   This run of MOLCAS is using the pymolcas driver

                             OPE
                             OPE          NMOL  CASOP  ENMOLC A   SO
                 OPE        NMOLC        AS  OP EN  MO LC     AS  OP
                OPENM       OL CA        SO  PE NM  OL CA     SOP EN
                OP EN      MO   LC       AS  OP ENMOL  CASO   PENMOL
                OP  EN     MO   LC       AS  OP EN     MO     LC ASO
               OP   E  NMOL  C  AS       OP  EN MO     LC     AS  OP
               OP  E   NMO   LC AS        OPEN  MO     LCASOP EN   M
               O  PEN   MO  LCA  SO
            OPE   NMO   L   CAS    OP
        OPENMOL  CASOP     ENMOL   CASOPE
     OPENMOLCA   SOPENMOLCASOPEN   MOLCASOPE
    OPENMOLCAS   OP           EN   MOL    CAS
    OPENMOLCAS       OP  ENM        O     LCA
    OPENMOLCAS    OPEN  MOLCASO     P  E  NMO
    OPENMOLCAS     OP               E  N  MOL
    OPENMOLCA   SO           PENM   O  L  CAS    OPEN    MO    LCAS
    OPENMOLCA   SOP           ENM   O  L  CAS   OP  EN  MOLC  AS   O
    OPENMOLCA   SOPE           NM      O  LCA   S      OP  EN MO
    OPENMOLC                AS         O  PEN   M      OL  CA  SOPE
    OPENMO        LCASOPE  NMOL        C  ASO   P      ENMOLC     AS
    OPE     NMO      LCA  SO     P     E   NM   OL  CA SO  PE N   MO
          OPENMOLCA            SOPE   NMO        LCAS  O    P  ENMO
     OPENMOLCASOPENMOLCASOPENMOLCASOPENMOLCA
        OPENMOLCASOPENMOLCASOPENMOLCASOPE
            OPENMOLCASOPENMOLCASOPENM
               OPENMOLCASOPENMOLCA        version: v23.06
                   OPENMOLCASO
                       OPE                tag:

 OpenMolcas is free software; you can redistribute it and/or modify it
 under the terms of the GNU Lesser General Public License version 2.1.
 OpenMolcas is distributed in the hope that it will be useful, but it
 is provided "as is" and without any express or implied warranties.
 For more details see the full text of the license in the file
 LICENSE or in <http://www.gnu.org/licenses/>.

                 Copyright (C) The OpenMolcas Authors
           For the author list and the recommended citation,
                   consult the file CONTRIBUTORS.md

           *************************************************
           * pymolcas version py2.24                       *
           *   build 4567b286dd94b1984b333a4ddf893180      *
           *   (after the EMIL interpreter by V. Veryazov) *
           *************************************************

configuration info
------------------
Host name: loginchem01.nottingham.ac.uk (Linux)
C Compiler ID: Intel
C flags: -std=gnu99 -gcc-sys -qopenmp
Fortran Compiler ID: Intel
Fortran flags: -fpp -i8 -heap-arrays -qopenmp
Definitions: _MOLCAS_;_I8_;_LINUX_
Parallel: OFF (GA=OFF)


   ------------------------------------------------------------------------------------------------------------
  |
  |              Project: orca_geometry_optimisation_225_165_BP86_def2-SVP_def2J_scf_cas1_ras12i11_cas2_ras12i8
  |       Submitted from: /home/pcaah4
  |         Scratch area: /srv/COMMUNAL_SCRATCH/10389
  |      Save outputs to: /home/pcaah4
  |               Molcas: /software/chemistry/openmolcas/openmolcas-23.06-openmp
  |
  | Scratch area is empty
  |
  |       MOLCAS_DRIVER = /software/chemistry/openmolcas/openmolcas-23.06-openmp/sbin/pymolcas
  | MOLCAS_KEEP_WORKDIR = NO
  |       MOLCAS_NPROCS = 1
  |       MOLCAS_SOURCE = /software/chemistry/openmolcas/openmolcas-23.06-openmp
  |    MOLCAS_STRUCTURE = 0
  |
   ------------------------------------------------------------------------------------------------------------

++ ---------   Input file   ---------

&SEWARD
TITLE
orca_geometry_optimisation_225_165_BP86_def2-SVP_def2J_scf_cas1_ras12i11
MULTIPOLES
2
SDIPOLE
ANGMOM
0 0 0
BASIS SET
C.ANO-S...4S3P1D.
C1            0.024171   -0.018876    0.099257 /Angstrom
C3            2.109300    1.277376   -0.020050 /Angstrom
C4            3.281030    1.086305   -0.996767 /Angstrom
C6            4.987854    2.266184   -2.348617 /Angstrom
C19          -0.573462   -1.421385    0.086700 /Angstrom
END OF BASIS
BASIS SET
N.ANO-S...4S3P1D.
N2            1.399478    0.030345    0.130008 /Angstrom
N5            3.831292    2.244963   -1.471131 /Angstrom
END OF BASIS
BASIS SET
O.ANO-S...4S3P1D.
O7           -0.673982    0.995528    0.109463 /Angstrom
O8            3.698314   -0.038702   -1.281495 /Angstrom
END OF BASIS
BASIS SET
H.ANO-S...2S1P.
H9           -1.195059   -1.551812    0.995114 /Angstrom
H10          -1.253289   -1.509782   -0.783765 /Angstrom
H11           0.180039   -2.232075    0.046820 /Angstrom
H12           1.960830   -0.800714   -0.087554 /Angstrom
H13           1.383566    2.047884   -0.360166 /Angstrom
H14           2.526427    1.639704    0.950873 /Angstrom
H15           3.395647    3.129981   -1.206429 /Angstrom
H16           4.750137    2.732393   -3.328370 /Angstrom
H17           5.838801    2.816240   -1.893057 /Angstrom
H18           5.289646    1.215656   -2.518621 /Angstrom
END OF BASIS
END OF INPUT

&RASSCF
TITLE
orca_geometry_optimisation_225_165_BP86_def2-SVP_def2J_scf_cas1_ras12i11
LUMORB
SPIN
1
SYMMETRY
1
NACTEL
12  0  0
INACTIVE
29
DELETED  ! delete Rydberg orbitals from an initial CAS(12,11) if done
3
FROZEN
0
RAS2
8
ITERATIONS
64 25
CIROOT
7 7
1 2 3 4 5 6 7
1 1 1 1 1 1 1
LEVSHFT
0.3
CIMX
20
FILEorb = /home/pcaah4/outputs/cas1_ras12i11_rasorb_files/orca_geometry_optimisation_225_165_BP86_def2-SVP_def2J_scf_cas1_ras12i11.RasOrb
ALTEr
3
 1 38 210
 1 39 211
 1 40 212
END OF INPUT

&RASSI
NROF JOBIPH
    1 7
    1 2 3 5 4 6 7
TOFILE
TRDI
TDMN
1.0D-6
END OF INPUT

&CASPT2
TITLE
orca_geometry_optimisation_225_165_BP86_def2-SVP_def2J_scf_cas1_ras12i11
MULTISTATE
7 1 2 3 4 5 6 7
SHIFT
0.35
MAXITER
50
END OF INPUT

-- ----------------------------------

--- Start Module: seward at Wed Nov 13 20:15:36 2024 ---
 
()()()()()()()()()()()()()()()()()()()()()()()()()()()()()()()()()()()()()()()()()()()()()()()()()()

                                              &SEWARD

                                   only a single process is used
                       available to each process: 2.0 GB of memory, 1 thread
                                            pid: 1792043
()()()()()()()()()()()()()()()()()()()()()()()()()()()()()()()()()()()()()()()()()()()()()()()()()()
 
               SEWARD will generate:
                  Multipole Moment integrals up to order  2
                  Kinetic Energy integrals
                  Nuclear Attraction integrals (point charge)
                  One-Electron Hamiltonian integrals
                  Velocity integrals
                  Orbital angular momentum around ( 0.0000  0.0000  0.0000 )
                  Velocity quadrupole around ( 3.8154  1.3509 -1.2193 )
                  Two-Electron Repulsion integrals
 
 Title:
            orca_geometry_optimisation_225_165_BP86_def2-SVP_def2J_scf_cas1_ras12i11    
 
 
                   Integrals are discarded if absolute value <: 0.10E-13
                   Integral cutoff threshold is set to       <: 0.10E-15
 
++    Symmetry information:
      ---------------------
 
                    Character Table for C1 
 
                             E  
                    a        1  x, y, xy, Rz, z, xz, Ry, yz, Rx, I
--
 
 
++    Basis set information:
      ----------------------
 
 
      Basis set label: C.ANO-S...4S3P1D......
 
      Electronic valence basis set:
      ------------------
      Associated Effective Charge   6.000000 au
      Associated Actual Charge      6.000000 au
      Nuclear Model: Point charge
 
      Shell  nPrim  nBasis  Cartesian Spherical Contaminant
         s      10       4        X                  
         p       6       3        X                  
         d       3       1                 X         
 
 
      Basis set label: N.ANO-S...4S3P1D......
 
      Electronic valence basis set:
      ------------------
      Associated Effective Charge   7.000000 au
      Associated Actual Charge      7.000000 au
      Nuclear Model: Point charge
 
      Shell  nPrim  nBasis  Cartesian Spherical Contaminant
         s      10       4        X                  
         p       6       3        X                  
         d       3       1                 X         
 
 
      Basis set label: O.ANO-S...4S3P1D......
 
      Electronic valence basis set:
      ------------------
      Associated Effective Charge   8.000000 au
      Associated Actual Charge      8.000000 au
      Nuclear Model: Point charge
 
      Shell  nPrim  nBasis  Cartesian Spherical Contaminant
         s      10       4        X                  
         p       6       3        X                  
         d       3       1                 X         
 
 
      Basis set label: H.ANO-S...2S1P......
 
      Electronic valence basis set:
      ------------------
      Associated Effective Charge   1.000000 au
      Associated Actual Charge      1.000000 au
      Nuclear Model: Point charge
 
      Shell  nPrim  nBasis  Cartesian Spherical Contaminant
         s       7       2        X                  
         p       3       1        X                  
--
 
 
++    Molecular structure info:
      -------------------------
 
                    ************************************************ 
                    **** Cartesian Coordinates / Bohr, Angstrom **** 
                    ************************************************ 
 
     Center  Label                x              y              z                     x              y              z
        1      C1               0.045677      -0.035670       0.187569              0.024171      -0.018876       0.099257
        2      C3               3.985999       2.413891      -0.037889              2.109300       1.277376      -0.020050
        3      C4               6.200248       2.052819      -1.883617              3.281030       1.086305      -0.996767
        4      C6               9.425678       4.282467      -4.438243              4.987854       2.266184      -2.348617
        5      C19             -1.083686      -2.686028       0.163839             -0.573462      -1.421385       0.086700
        6      N2               2.644630       0.057344       0.245680              1.399478       0.030345       0.130008
        7      N5               7.240093       4.242365      -2.780035              3.831292       2.244963      -1.471131
        8      O7              -1.273641       1.881275       0.206855             -0.673982       0.995528       0.109463
        9      O8               6.988801      -0.073136      -2.421675              3.698314      -0.038702      -1.281495
       10      H9              -2.258334      -2.932500       1.880493             -1.195059      -1.551812       0.995114
       11      H10             -2.368373      -2.853074      -1.481101             -1.253289      -1.509782      -0.783765
       12      H11              0.340224      -4.218010       0.088477              0.180039      -2.232075       0.046820
       13      H12              3.705432      -1.513130      -0.165453              1.960830      -0.800714      -0.087554
       14      H13              2.614561       3.869940      -0.680615              1.383566       2.047884      -0.360166
       15      H14              4.774255       3.098591       1.796890              2.526427       1.639704       0.950873
       16      H15              6.416843       5.914807      -2.279820              3.395647       3.129981      -1.206429
       17      H16              8.976458       5.163474      -6.289708              4.750137       2.732393      -3.328370
       18      H17             11.033735       5.321922      -3.577359              5.838801       2.816240      -1.893057
       19      H18              9.995982       2.297257      -4.759504              5.289646       1.215656      -2.518621
 
                    ************************************************* 
                    **** InterNuclear Distances / Bohr, Angstrom **** 
                    ************************************************* 
 
     Atom centers         Bohr        Angstrom
   16 H15       7 N5      1.930030        1.021328
   13 H12       6 N2      1.939257        1.026211
   19 H18       4 C6      2.090339        1.106160
   12 H11       5 C19     2.092886        1.107507
   11 H10       5 C19     2.093837        1.108011
   10 H9        5 C19     2.094623        1.108427
   17 H16       4 C6      2.099022        1.110755
   18 H17       4 C6      2.099389        1.110949
   14 H13       2 C3      2.100957        1.111778
   15 H14       2 C3      2.111060        1.117125
    8 O7        1 C1      2.327156        1.231478
    9 O8        3 C4      2.330452        1.233222
    7 N5        3 C4      2.584367        1.367588
    6 N2        1 C1      2.601267        1.376531
    6 N2        2 C3      2.726352        1.442723
    7 N5        4 C6      2.743729        1.451919
    5 C19       1 C1      2.881045        1.524583
    3 C4        2 C3      2.905165        1.537347
   11 H10      10 H9      3.364332        1.780328
   15 H14      14 H13     3.375987        1.786495
   19 H18      17 H16     3.405313        1.802014
   18 H17      17 H16     3.407980        1.803425
   12 H11      10 H9      3.408279        1.803584
   19 H18      18 H17     3.409252        1.804098
   12 H11      11 H10     3.415132        1.807210
   16 H15       3 C4      3.888295        2.057597
   19 H18       7 N5      3.911096        2.069663
   14 H13       6 N2      3.923623        2.076292
   13 H12       2 C3      3.939097        2.084480
   13 H12       1 C1      3.962489        2.096859
   17 H16       7 N5      4.022588        2.128662
   15 H14       6 N2      4.023772        2.129289
   18 H17       7 N5      4.024039        2.129430
   16 H15       4 C6      4.046778        2.141463
   11 H10       1 C1      4.068152        2.152773
   10 H9        1 C1      4.070145        2.153828
   15 H14       3 C4      4.083286        2.160782
   12 H11       1 C1      4.193870        2.219300
   14 H13       3 C4      4.195986        2.220420
   13 H12       9 O8      4.236110        2.241653
    8 O7        6 N2      4.322162        2.287190
   13 H12      12 H11     4.324983        2.288682
    9 O8        7 N5      4.337640        2.295380
   14 H13       8 O7      4.456513        2.358285
   19 H18       9 O8      4.486352        2.374075
    9 O8        2 C3      4.569962        2.418320
    8 O7        5 C19     4.571454        2.419110
    6 N2        3 C4      4.599809        2.434114
   16 H15      14 H13     4.603943        2.436301
    6 N2        5 C19     4.629593        2.449875
    7 N5        2 C3      4.631609        2.450942
    2 C3        1 C1      4.645140        2.458102
   13 H12       3 C4      4.678909        2.475972
    4 C6        3 C4      4.679834        2.476461
   14 H13       1 C1      4.754651        2.516053
   19 H18       3 C4      4.768446        2.523353
   16 H15       2 C3      4.815773        2.548397
   17 H16      16 H15     4.816153        2.548598
   18 H17      16 H15     4.832268        2.557126
   12 H11       6 N2      4.859388        2.571477
   13 H12       5 C19     4.941637        2.615002
   14 H13       7 N5      5.093310        2.695264
    9 O8        6 N2      5.099374        2.698473
   15 H14      13 H12     5.124563        2.711802
   11 H10       8 O7      5.144094        2.722137
   10 H9        8 O7      5.190676        2.746787
   16 H15      15 H14     5.220031        2.762322
    8 O7        2 C3      5.292202        2.800513
   15 H14       7 N5      5.323233        2.816934
    9 O8        4 C6      5.382955        2.848537
   14 H13      13 H12     5.516596        2.919257
   19 H18      16 H15     5.660895        2.995617
--
 
 
            Nuclear Potential Energy            447.96263111 au
 
 
      Basis set specifications :
      Symmetry species         a  
      Basis functions          212
 
 
      Input file to MOLDEN was generated!
 
--- Stop Module: seward at Wed Nov 13 20:17:28 2024 /rc=_RC_ALL_IS_WELL_ ---
*** files: orca_geometry_optimisation_225_165_BP86_def2-SVP_def2J_scf_cas1_ras12i11_cas2_ras12i8.GssOrb
           orca_geometry_optimisation_225_165_BP86_def2-SVP_def2J_scf_cas1_ras12i11_cas2_ras12i8.guessorb.molden xmldump
    saved to directory /home/pcaah4
--- Module seward spent 1 minute 51 seconds ---

*** symbolic link created: INPORB -> orca_geometry_optimisation_225_165_BP86_def2-SVP_def2J_scf_cas1_ras12i11_cas2_ras12i8.GssOrb
--- Start Module: rasscf at Wed Nov 13 20:17:28 2024 ---
 
()()()()()()()()()()()()()()()()()()()()()()()()()()()()()()()()()()()()()()()()()()()()()()()()()()

                                              &RASSCF

                                   only a single process is used
                       available to each process: 2.0 GB of memory, 1 thread
                                            pid: 1792351
()()()()()()()()()()()()()()()()()()()()()()()()()()()()()()()()()()()()()()()()()()()()()()()()()()
 
 
      Header of the ONEINT file:
      --------------------------
      orca_geometry_optimisation_225_165_BP86_def2-SVP_def2J_scf_cas1_ras12i11
      Integrals generated by Gateway/Seward, Wed Nov 13 20:15:40 2024
 
 
      OrdInt status: non-squared
 
 
      Cartesian coordinates in Angstrom:
      -----------------------------------------------------
      No.  Label        X            Y            Z        
      -----------------------------------------------------
       1   C1         0.02417100  -0.01887600   0.09925700
       2   C3         2.10930000   1.27737600  -0.02005000
       3   C4         3.28103000   1.08630500  -0.99676700
       4   C6         4.98785400   2.26618400  -2.34861700
       5   C19       -0.57346200  -1.42138500   0.08670000
       6   N2         1.39947800   0.03034500   0.13000800
       7   N5         3.83129200   2.24496300  -1.47113100
       8   O7        -0.67398200   0.99552800   0.10946300
       9   O8         3.69831400  -0.03870200  -1.28149500
      10   H9        -1.19505900  -1.55181200   0.99511400
      11   H10       -1.25328900  -1.50978200  -0.78376500
      12   H11        0.18003900  -2.23207500   0.04682000
      13   H12        1.96083000  -0.80071400  -0.08755400
      14   H13        1.38356600   2.04788400  -0.36016600
      15   H14        2.52642700   1.63970400   0.95087300
      16   H15        3.39564700   3.12998100  -1.20642900
      17   H16        4.75013700   2.73239300  -3.32837000
      18   H17        5.83880100   2.81624000  -1.89305700
      19   H18        5.28964600   1.21565600  -2.51862100
      -----------------------------------------------------
      Nuclear repulsion energy =  447.96263111
 
++    Wave function specifications:
      -----------------------------
 
      Number of closed shell electrons          58
      Number of electrons in active shells      12
      Max number of holes in RAS1 space          0
      Max nr of electrons in RAS3 space          0
      Number of inactive orbitals               29
      Number of active orbitals                  8
      Number of secondary orbitals             172
      Spin quantum number                      0.0
      State symmetry                             1
--
 
++    Orbital specifications:
      -----------------------
 
      Symmetry species                           1
                                                 a
      Frozen orbitals                            0
      Inactive orbitals                         29
      Active orbitals                            8
      RAS1 orbitals                              0
      RAS2 orbitals                              8
      RAS3 orbitals                              0
      Secondary orbitals                       172
      Deleted orbitals                           3
      Number of basis functions                212
--
 
++    CI expansion specifications:
      ----------------------------
 
      Number of CSFs                           336
      Number of determinants                   406
      Number of root(s) required                 7
      Root chosen for geometry opt.              7
      CI roots used                              1     2     3     4     5     6     7
      weights                                0.143 0.143 0.143 0.143 0.143 0.143 0.143
      highest root included in the CI            7
      max. size of the explicit Hamiltonian    200
--
 
++    Optimization specifications:
      ----------------------------
 
      RASSCF algorithm: Conventional
      Maximum number of macro iterations        64
      Maximum number of SX iterations           25
      Threshold for RASSCF energy            0.100E-07
      Threshold for max MO rotation          0.100E+00
      Threshold for max BLB element          0.100E-03
      Level shift parameter                  0.300E+00
      Make Quasi-Newton update
--
 
      The MO-coefficients are taken from the file:
      /home/pcaah4/outputs/cas1_ras12i11_rasorb_files/orca_geometry_optimisation_225_165_BP86_def2-SVP_def2J_scf_cas1_ras12i11.RasOrb                                                                                                                                 
      Title: RASSCF average (pseudo-natural) orbitals                                      
 
      Total molecular charge    0.00
 
      Molecular orbitals exchanged:
        In symmetry  1 :  38 210
        In symmetry  1 :  39 211
        In symmetry  1 :  40 212
 
 
      ************************************************************************************************************************
      *                                                                                                                      *
      *                                            Wave function control section                                             *
      *                                                                                                                      *
      ************************************************************************************************************************
 
 
                                         RASSCF iterations: Energy and convergence statistics
                                         ----------------------------------------------------
 
      Iter CI   SX   CI       RASSCF       Energy    max ROT     max BLB   max BLB  Level Ln srch  Step   QN   Walltime
          iter iter root      energy       change     param      element    value   shift minimum  type update hh:mm:ss
 Nr of preliminary CI iterations:   4
        1   1   25    0  -453.70378837    0.00E+00  -0.58E-01   34 142 1 -0.18E-01*  0.20   0.00    SX    NO    0:00:13
        2   1   10    0  -453.70680257   -0.30E-02* -0.32E-01   34 142 1 -0.31E-02*  0.20   0.00    SX    NO    0:00:06
        3   3    9    0  -453.70736738   -0.56E-03* -0.26E-01   36 100 1 -0.12E-02*  0.20   0.00    SX    NO    0:00:06
        4   6    9    0  -453.70756357   -0.20E-03* -0.17E-01   23  36 1  0.69E-03*  0.20   0.00    SX    NO    0:00:06
        5   4    8    0  -453.70763790   -0.74E-04* -0.23E-01   36  51 1  0.49E-03*  0.20   2.48    LS   YES    0:00:06
        6   5    7    0  -453.70768393   -0.46E-04* -0.66E-02   18  78 1 -0.29E-03*  0.20   1.19    QN   YES    0:00:06
        7   3    7    0  -453.70769153   -0.76E-05* -0.16E-02   36  41 1 -0.17E-03*  0.20   1.12    QN   YES    0:00:06
        8   5    7    0  -453.70769368   -0.22E-05*  0.15E-02   36  41 1 -0.11E-03*  0.20   1.52    QN   YES    0:00:06
        9   4    6    0  -453.70769443   -0.74E-06*  0.55E-03   36  41 1 -0.48E-04   0.20   1.16    QN   YES    0:00:06
       10   3    6    0  -453.70769457   -0.14E-06* -0.48E-03   36  41 1 -0.26E-04   0.20   1.69    QN   YES    0:00:06
       11   3    6    0  -453.70769464   -0.69E-07* -0.12E-03   36  49 1 -0.85E-05   0.20   1.24    QN   YES    0:00:06
       12   1    5    0  -453.70769465   -0.11E-07* -0.91E-04   36  67 1 -0.35E-05   0.20   1.32    QN   YES    0:00:06
       13   1    5    0  -453.70769465   -0.26E-08  -0.52E-04   36  67 1 -0.20E-05   0.20   1.40    QN   YES    0:00:06
      Convergence after 13 iterations
       14   1    5    0  -453.70769465   -0.65E-09  -0.52E-04   36  67 1 -0.90E-06   0.20   1.40    QN   YES    0:00:06
 
      ************************************************************************************************************************
                                                      Wave function printout:
                       occupation of active orbitals, and spin coupling of open shells (u,d: Spin up or down)
      ************************************************************************************************************************
 
      Note: transformation to natural orbitals
      has been made, which may change the order of the CSFs.
 
      printout of CI-coefficients larger than  0.05 for root  1
      energy=    -453.958480
      conf/sym  11111111     Coeff  Weight
             1  22222200  -0.96539 0.93198
             6  22220220   0.07500 0.00563
             7  22222u0d   0.12546 0.01574
            15  22222002   0.07974 0.00636
            64  2u22220d   0.07917 0.00627
            73  2u222d02   0.06418 0.00412
            81  u22222d0  -0.10008 0.01002
           175  20222202   0.10069 0.01014
           191  02222220   0.07767 0.00603
 
      printout of CI-coefficients larger than  0.05 for root  2
      energy=    -453.745842
      conf/sym  11111111     Coeff  Weight
            24  222u220d   0.96312 0.92760
            32  222u022d  -0.07401 0.00548
            33  222u2d02   0.09961 0.00992
           125  2u2d2202   0.18676 0.03488
           213  u22u22dd  -0.08469 0.00717
           269  022u222d   0.07829 0.00613
 
      printout of CI-coefficients larger than  0.05 for root  3
      energy=    -453.724507
      conf/sym  11111111     Coeff  Weight
             2  22222ud0  -0.09615 0.00924
            21  222u22d0   0.09914 0.00983
            41  22u222d0  -0.94436 0.89181
            43  22u2d220  -0.15426 0.02380
            45  22u22dud   0.06462 0.00418
            47  22u22udd  -0.11600 0.01346
            55  22u220d2  -0.07777 0.00605
           161  u2d22220   0.12670 0.01605
           219  2uu222dd   0.06939 0.00482
           222  2uu22dd2   0.05669 0.00321
           294  20u222d2   0.09994 0.00999
 
      printout of CI-coefficients larger than  0.05 for root  4
      energy=    -453.649078
      conf/sym  11111111     Coeff  Weight
             2  22222ud0  -0.68574 0.47024
             3  2222u2d0  -0.64808 0.42000
             7  22222u0d  -0.08190 0.00671
            12  2222uudd  -0.07375 0.00544
            18  2222u0d2  -0.05969 0.00356
            41  22u222d0   0.08375 0.00701
            65  2u222dud  -0.09515 0.00905
            67  2u222udd   0.13930 0.01940
            81  u22222d0  -0.05385 0.00290
            83  u222d220   0.15687 0.02461
           176  20222ud2   0.09692 0.00939
           177  2022u2d2   0.06502 0.00423
 
      printout of CI-coefficients larger than  0.05 for root  5
      energy=    -453.637731
      conf/sym  11111111     Coeff  Weight
             1  22222200  -0.05231 0.00274
             2  22222ud0   0.63444 0.40252
             3  2222u2d0  -0.62582 0.39165
             7  22222u0d  -0.30978 0.09597
            15  22222002   0.06285 0.00395
            18  2222u0d2  -0.05040 0.00254
            21  222u22d0   0.06127 0.00375
            65  2u222dud   0.10649 0.01134
            67  2u222udd  -0.14296 0.02044
            73  2u222d02  -0.07894 0.00623
            83  u222d220   0.13628 0.01857
           176  20222ud2  -0.09332 0.00871
           177  2022u2d2   0.06652 0.00442
 
      printout of CI-coefficients larger than  0.05 for root  6
      energy=    -453.624465
      conf/sym  11111111     Coeff  Weight
             1  22222200  -0.10099 0.01020
             2  22222ud0  -0.15951 0.02544
             3  2222u2d0   0.28870 0.08335
             7  22222u0d  -0.78724 0.61975
            14  22220u2d  -0.06444 0.00415
            15  22222002   0.15288 0.02337
            21  222u22d0   0.35312 0.12469
            25  222u2dud   0.08780 0.00771
            27  222u2udd  -0.12593 0.01586
            41  22u222d0   0.05252 0.00276
            73  2u222d02  -0.20353 0.04142
            83  u222d220  -0.07219 0.00521
            87  u2222udd   0.07789 0.00607
           175  20222202  -0.09001 0.00810
           193  02222u2d  -0.05965 0.00356
 
      printout of CI-coefficients larger than  0.05 for root  7
      energy=    -453.613760
      conf/sym  11111111     Coeff  Weight
             3  2222u2d0   0.06970 0.00486
             7  22222u0d  -0.35736 0.12770
            15  22222002   0.07837 0.00614
            21  222u22d0  -0.83138 0.69120
            25  222u2dud  -0.20010 0.04004
            27  222u2udd   0.28530 0.08140
            41  22u222d0  -0.08084 0.00654
            73  2u222d02  -0.09011 0.00812
           210  2u2u2dd2  -0.07024 0.00493
           262  202u22d2   0.07706 0.00594
 
      Natural orbitals and occupation numbers for root  1
      sym 1:   1.974985   1.995774   1.999876   1.999810   1.994877   1.955756   0.030277   0.048646
 
      Natural orbitals and occupation numbers for root  2
      sym 1:   1.974209   1.999984   1.999791   1.001931   1.995287   1.999905   0.030681   0.998213
 
      Natural orbitals and occupation numbers for root  3
      sym 1:   1.999907   1.995295   1.007245   1.998911   1.999523   1.953650   0.994648   0.050820
 
      Natural orbitals and occupation numbers for root  4
      sym 1:   1.986277   1.931522   1.999749   1.999594   1.974762   1.059092   0.974473   0.074532
 
      Natural orbitals and occupation numbers for root  5
      sym 1:   1.980538   1.941109   1.999861   1.999306   1.909287   1.076609   0.960926   0.132363
 
      Natural orbitals and occupation numbers for root  6
      sym 1:   1.980336   1.954482   1.999662   1.798388   1.985741   1.206066   0.240900   0.834425
 
      Natural orbitals and occupation numbers for root  7
      sym 1:   1.995152   1.975750   1.999421   1.295215   1.992773   1.799329   0.717070   0.225290
 
      ************************************************************************************************************************
      *                                                                                                                      *
      *                                                    Final results                                                     *
      *                                                                                                                      *
      ************************************************************************************************************************
 
 
++    Wave function specifications:
      -----------------------------
 
      Number of closed shell electrons          58
      Number of electrons in active shells      12
      Max number of holes in RAS1 space          0
      Max nr of electrons in RAS3 space          0
      Number of inactive orbitals               29
      Number of active orbitals                  8
      Number of secondary orbitals             172
      Spin quantum number                      0.0
      State symmetry                             1
--
 
++    Orbital specifications:
      -----------------------
 
      Symmetry species                           1
                                                 a
      Frozen orbitals                            0
      Inactive orbitals                         29
      Active orbitals                            8
      RAS1 orbitals                              0
      RAS2 orbitals                              8
      RAS3 orbitals                              0
      Secondary orbitals                       172
      Deleted orbitals                           3
      Number of basis functions                212
--
 
++    CI expansion specifications:
      ----------------------------
 
      Number of CSFs                           336
      Number of determinants                   406
      Number of root(s) required                 7
      CI roots used                              1     2     3     4     5     6     7
      weights                                0.143 0.143 0.143 0.143 0.143 0.143 0.143
      highest root included in the CI            7
      Root passed to geometry opt.               7
--
 
++    Final optimization conditions:
      ------------------------------
 
      Average CI energy                            -453.70769465
      RASSCF energy for state  7                   -453.61375954
      Super-CI energy                                -0.00000000
      RASSCF energy change                            0.00000000
      Max change in MO coefficients               0.400E-04
      Max non-diagonal density matrix element    -0.516E-04
      Maximum BLB matrix element                 -0.900E-06
      (orbital pair  36,  67 in symmetry   1)
      Norm of electronic gradient            0.300E+00
--
 
 
      Final state energy(ies):
      ------------------------
 
::    RASSCF root number  1 Total energy:   -453.95847956
::    RASSCF root number  2 Total energy:   -453.74584218
::    RASSCF root number  3 Total energy:   -453.72450717
::    RASSCF root number  4 Total energy:   -453.64907814
::    RASSCF root number  5 Total energy:   -453.63773076
::    RASSCF root number  6 Total energy:   -453.62446521
::    RASSCF root number  7 Total energy:   -453.61375954
 
++    Molecular orbitals:
      -------------------
 
      Pseudonatural active orbitals and approximate occupation numbers
 
 
 
 
      Molecular orbitals for symmetry species 1: a  
 
 
      Orbital                 1         2         3         4         5         6         7         8         9        10
      Energy           -20.6042  -20.5363  -15.6336  -15.5866  -11.3403  -11.2919  -11.2880  -11.2640  -11.2558   -1.4243
      Occ. No.           2.0000    2.0000    2.0000    2.0000    2.0000    2.0000    2.0000    2.0000    2.0000    2.0000
 
     1 C1     1s         0.0003   -0.0000    0.0003    0.0001    1.0000   -0.0000    0.0001   -0.0000   -0.0037   -0.0396
     2 C1     2s         0.0009   -0.0002    0.0015    0.0004    0.0025   -0.0002   -0.0004   -0.0002   -0.0004    0.3480
     3 C1     3s        -0.0005   -0.0002    0.0007    0.0002    0.0001   -0.0002   -0.0005   -0.0002   -0.0007   -0.0087
     4 C1     4s        -0.0004   -0.0001    0.0001    0.0001    0.0013   -0.0001   -0.0002   -0.0001   -0.0002    0.0025
     5 C1     2px       -0.0014   -0.0001    0.0017    0.0000    0.0012   -0.0005   -0.0001   -0.0001   -0.0003   -0.0464
     6 C1     3px       -0.0009   -0.0003    0.0013    0.0000    0.0012   -0.0006   -0.0005   -0.0002    0.0002    0.0275
     7 C1     4px        0.0002   -0.0001   -0.0001   -0.0000    0.0004   -0.0001   -0.0003   -0.0001    0.0002   -0.0142
     8 C1     2py        0.0029   -0.0001    0.0002   -0.0001    0.0012   -0.0005    0.0000   -0.0002   -0.0006    0.0938
     9 C1     3py        0.0019   -0.0002    0.0002   -0.0001    0.0010   -0.0007   -0.0005   -0.0002    0.0002   -0.0689
    10 C1     4py       -0.0004   -0.0000   -0.0000   -0.0000    0.0007   -0.0001   -0.0004   -0.0001    0.0003    0.0228
    11 C1     2pz        0.0001   -0.0002    0.0000   -0.0000    0.0001    0.0002    0.0001   -0.0000   -0.0000   -0.0001
    12 C1     3pz        0.0001   -0.0002    0.0001   -0.0001    0.0000    0.0002    0.0001    0.0000   -0.0000   -0.0046
    13 C1     4pz       -0.0000   -0.0000    0.0000   -0.0001    0.0001    0.0000   -0.0000    0.0000   -0.0000   -0.0001
    14 C1     3d2-       0.0001   -0.0000    0.0001   -0.0000   -0.0004   -0.0000    0.0000   -0.0000    0.0000   -0.0333
    15 C1     3d1-       0.0000   -0.0000    0.0000   -0.0000    0.0000    0.0000   -0.0000    0.0000   -0.0000    0.0007
    16 C1     3d0       -0.0000   -0.0000    0.0001   -0.0000   -0.0004    0.0000   -0.0001   -0.0000    0.0001   -0.0279
    17 C1     3d1+       0.0000   -0.0000   -0.0000    0.0000   -0.0000    0.0000    0.0000   -0.0000    0.0000   -0.0006
    18 C1     3d2+       0.0001    0.0000   -0.0002    0.0000   -0.0000   -0.0000    0.0000    0.0000   -0.0000   -0.0087
    19 C3     1s         0.0001   -0.0000    0.0004   -0.0001   -0.0001    0.0751    0.9967    0.0001    0.0001   -0.0097
    20 C3     2s         0.0004   -0.0004    0.0022   -0.0003    0.0007    0.0002   -0.0012    0.0007    0.0007    0.0194
    21 C3     3s         0.0002   -0.0003    0.0010   -0.0002    0.0004   -0.0003   -0.0026    0.0004    0.0004   -0.0179
    22 C3     4s         0.0000   -0.0002    0.0001   -0.0001   -0.0000    0.0000    0.0007    0.0000    0.0000   -0.0016
    23 C3     2px       -0.0001   -0.0001   -0.0003   -0.0000    0.0008   -0.0005   -0.0010    0.0003    0.0004   -0.0253
    24 C3     3px        0.0001   -0.0002    0.0001   -0.0002    0.0014   -0.0011   -0.0010    0.0001    0.0006   -0.0147
    25 C3     4px        0.0001   -0.0001    0.0001   -0.0002    0.0005   -0.0003   -0.0005   -0.0001    0.0001   -0.0061
    26 C3     2py       -0.0003    0.0007   -0.0005   -0.0004    0.0005   -0.0001   -0.0003    0.0003   -0.0001   -0.0217
    27 C3     3py       -0.0002    0.0006    0.0000   -0.0004    0.0007   -0.0002   -0.0002    0.0004    0.0001   -0.0054
    28 C3     4py        0.0000   -0.0001    0.0002   -0.0000    0.0001   -0.0001   -0.0008    0.0001    0.0001   -0.0047
    29 C3     2pz        0.0004   -0.0006   -0.0001    0.0003   -0.0001   -0.0000    0.0005   -0.0003    0.0002   -0.0045
    30 C3     3pz        0.0004   -0.0005   -0.0002    0.0004   -0.0003    0.0003    0.0003   -0.0002    0.0001   -0.0024
    31 C3     4pz        0.0000    0.0001   -0.0000    0.0001   -0.0001    0.0001   -0.0000    0.0000   -0.0000    0.0016
    32 C3     3d2-       0.0001    0.0001    0.0000   -0.0000    0.0000   -0.0001   -0.0000   -0.0000    0.0000    0.0032
    33 C3     3d1-      -0.0000   -0.0001    0.0000    0.0000   -0.0000    0.0000    0.0000    0.0000    0.0000   -0.0004
    34 C3     3d0       -0.0000   -0.0000    0.0001   -0.0000   -0.0000    0.0000    0.0000    0.0000   -0.0000   -0.0028
    35 C3     3d1+       0.0000   -0.0001    0.0000   -0.0000    0.0000    0.0001    0.0001   -0.0001    0.0000   -0.0012
    36 C3     3d2+      -0.0000    0.0000    0.0001   -0.0000    0.0000    0.0001    0.0000    0.0001   -0.0000   -0.0007
    37 C4     1s         0.0000    0.0004   -0.0002    0.0003   -0.0001    0.9972   -0.0750    0.0002   -0.0000   -0.0008
    38 C4     2s         0.0003    0.0013   -0.0016    0.0012   -0.0011    0.0029    0.0007   -0.0007   -0.0003    0.0336
    39 C4     3s         0.0001   -0.0002   -0.0012    0.0005   -0.0010    0.0003    0.0003   -0.0006   -0.0002    0.0086
    40 C4     4s        -0.0000   -0.0003   -0.0004    0.0001   -0.0003    0.0014   -0.0001   -0.0002   -0.0001    0.0034
    41 C4     2px       -0.0001    0.0012    0.0007    0.0007    0.0003    0.0007   -0.0007   -0.0000    0.0001   -0.0060
    42 C4     3px        0.0001    0.0008    0.0008    0.0006    0.0005    0.0004   -0.0000   -0.0006    0.0002   -0.0098
    43 C4     4px        0.0001   -0.0002    0.0002   -0.0000    0.0001    0.0004    0.0002   -0.0005    0.0001   -0.0031
    44 C4     2py       -0.0001   -0.0029   -0.0003    0.0013    0.0000    0.0008   -0.0000   -0.0004    0.0001   -0.0081
    45 C4     3py       -0.0002   -0.0019   -0.0001    0.0010    0.0000    0.0006    0.0002   -0.0006    0.0001   -0.0010
    46 C4     4py       -0.0001    0.0004    0.0002   -0.0001   -0.0000    0.0001    0.0002   -0.0001   -0.0000   -0.0009
    47 C4     2pz       -0.0002   -0.0007   -0.0002   -0.0007   -0.0002   -0.0000    0.0008    0.0001   -0.0002    0.0072
    48 C4     3pz       -0.0003   -0.0004   -0.0003   -0.0005   -0.0003   -0.0002    0.0004    0.0006   -0.0003    0.0089
    49 C4     4pz       -0.0001    0.0001   -0.0001    0.0001   -0.0001   -0.0002   -0.0001    0.0004   -0.0000    0.0022
    50 C4     3d2-       0.0000    0.0001    0.0000   -0.0001   -0.0000   -0.0001   -0.0000    0.0000    0.0000   -0.0008
    51 C4     3d1-      -0.0000   -0.0001    0.0000    0.0001   -0.0000    0.0000    0.0000   -0.0000   -0.0000    0.0004
    52 C4     3d0       -0.0000    0.0000   -0.0000    0.0001    0.0000   -0.0003    0.0001   -0.0000   -0.0000   -0.0011
    53 C4     3d1+      -0.0000   -0.0001   -0.0000    0.0000   -0.0000   -0.0001    0.0000   -0.0000   -0.0000   -0.0007
    54 C4     3d2+       0.0000    0.0001   -0.0000    0.0002    0.0000   -0.0004    0.0001   -0.0000    0.0000   -0.0015
    55 C6     1s         0.0001    0.0001    0.0000    0.0003   -0.0001   -0.0004    0.0002    0.9997   -0.0000    0.0002
    56 C6     2s         0.0003    0.0006    0.0001    0.0014   -0.0004   -0.0002    0.0007    0.0001   -0.0002    0.0060
    57 C6     3s         0.0002    0.0004   -0.0000    0.0003   -0.0004   -0.0004    0.0005   -0.0016   -0.0002    0.0056
    58 C6     4s         0.0000    0.0001   -0.0000   -0.0001   -0.0002   -0.0002    0.0001    0.0009   -0.0001    0.0025
    59 C6     2px        0.0000   -0.0002   -0.0000   -0.0004    0.0002    0.0002   -0.0003   -0.0001    0.0001   -0.0059
    60 C6     3px        0.0001   -0.0001   -0.0000    0.0001    0.0002    0.0003   -0.0003    0.0002    0.0001   -0.0052
    61 C6     4px        0.0000    0.0000   -0.0000    0.0002    0.0000    0.0001    0.0000   -0.0006   -0.0000   -0.0004
    62 C6     2py        0.0000   -0.0002    0.0001    0.0001   -0.0000    0.0003    0.0000    0.0002    0.0000   -0.0013
    63 C6     3py        0.0000   -0.0001    0.0001    0.0002    0.0000    0.0004   -0.0000   -0.0001    0.0000   -0.0020
    64 C6     4py        0.0000    0.0001    0.0000    0.0000    0.0000    0.0001   -0.0000   -0.0000    0.0000   -0.0008
    65 C6     2pz        0.0001    0.0002   -0.0001    0.0002   -0.0002   -0.0004   -0.0000    0.0000   -0.0000    0.0023
    66 C6     3pz        0.0001    0.0001   -0.0001   -0.0002   -0.0002   -0.0004   -0.0000   -0.0002   -0.0000    0.0024
    67 C6     4pz       -0.0000   -0.0000   -0.0000   -0.0001   -0.0000   -0.0001   -0.0000    0.0004   -0.0000    0.0007
    68 C6     3d2-       0.0000    0.0000   -0.0000    0.0000   -0.0000    0.0000   -0.0000    0.0000    0.0000   -0.0000
    69 C6     3d1-       0.0000   -0.0000    0.0000   -0.0000    0.0000   -0.0001    0.0000   -0.0000    0.0000   -0.0001
    70 C6     3d0       -0.0000   -0.0000   -0.0000    0.0000   -0.0000    0.0000    0.0000    0.0000   -0.0000    0.0001
    71 C6     3d1+      -0.0000   -0.0000    0.0000    0.0001    0.0000   -0.0000   -0.0000    0.0001    0.0000   -0.0004
    72 C6     3d2+      -0.0000    0.0000   -0.0000   -0.0000   -0.0000   -0.0000    0.0000   -0.0001   -0.0000    0.0003
    73 C19    1s         0.0002    0.0000   -0.0000   -0.0000    0.0036   -0.0000    0.0002   -0.0000    0.9999   -0.0144
    74 C19    2s         0.0011    0.0002   -0.0001   -0.0001    0.0005   -0.0003    0.0007   -0.0001    0.0019   -0.0128
    75 C19    3s         0.0007    0.0001    0.0000   -0.0001    0.0002   -0.0003    0.0003   -0.0002   -0.0004   -0.0393
    76 C19    4s         0.0001   -0.0000   -0.0000   -0.0000    0.0001   -0.0001   -0.0001   -0.0001    0.0013   -0.0039
    77 C19    2px        0.0008    0.0000   -0.0003   -0.0000   -0.0002    0.0000    0.0002    0.0000   -0.0002   -0.0108
    78 C19    3px        0.0005    0.0000   -0.0003    0.0000   -0.0003    0.0001    0.0002    0.0000   -0.0001   -0.0078
    79 C19    4px       -0.0002   -0.0000    0.0000    0.0000   -0.0000    0.0000    0.0000    0.0000    0.0002    0.0075
    80 C19    2py       -0.0001   -0.0001    0.0004   -0.0000    0.0004   -0.0001    0.0002   -0.0001   -0.0002    0.0202
    81 C19    3py       -0.0003   -0.0001    0.0003   -0.0000   -0.0001   -0.0001   -0.0000   -0.0001   -0.0000   -0.0068
    82 C19    4py       -0.0002   -0.0000   -0.0001    0.0000   -0.0001    0.0000   -0.0001    0.0000    0.0004    0.0057
    83 C19    2pz       -0.0001   -0.0001    0.0001    0.0001    0.0001   -0.0000    0.0002   -0.0000    0.0000    0.0001
    84 C19    3pz       -0.0001   -0.0001    0.0001    0.0001    0.0000   -0.0000    0.0002   -0.0000    0.0000    0.0000
    85 C19    4pz       -0.0000    0.0000   -0.0000    0.0000   -0.0000   -0.0000   -0.0000    0.0000    0.0000    0.0001
    86 C19    3d2-       0.0001   -0.0000   -0.0000    0.0000    0.0000    0.0000    0.0001   -0.0000   -0.0001    0.0002
    87 C19    3d1-      -0.0000    0.0000   -0.0000   -0.0000   -0.0000   -0.0000   -0.0000    0.0000   -0.0000    0.0001
    88 C19    3d0       -0.0001   -0.0000   -0.0001    0.0000    0.0001    0.0000   -0.0000   -0.0000    0.0001    0.0015
    89 C19    3d1+       0.0000    0.0000   -0.0000   -0.0000   -0.0000   -0.0000   -0.0000    0.0000   -0.0000    0.0002
    90 C19    3d2+       0.0001   -0.0000   -0.0000   -0.0000   -0.0001    0.0000   -0.0000   -0.0000    0.0001   -0.0069
    91 N2     1s         0.0001    0.0000    0.9998   -0.0000   -0.0002    0.0000    0.0001    0.0000    0.0001   -0.0181
    92 N2     2s         0.0005    0.0002   -0.0001    0.0000   -0.0001    0.0003    0.0013    0.0001    0.0006    0.1146
    93 N2     3s         0.0004    0.0002   -0.0014    0.0001   -0.0002    0.0002    0.0007    0.0001    0.0004   -0.0491
    94 N2     4s         0.0001    0.0001    0.0005    0.0000    0.0001    0.0001    0.0002    0.0000    0.0001   -0.0118
    95 N2     2px        0.0001   -0.0001    0.0007    0.0003   -0.0002    0.0002    0.0009   -0.0001   -0.0004   -0.0318
    96 N2     3px        0.0001   -0.0002    0.0008    0.0004    0.0001    0.0002    0.0008   -0.0002   -0.0003    0.0136
    97 N2     4px        0.0000   -0.0001   -0.0001    0.0000   -0.0002    0.0001    0.0000   -0.0000    0.0001   -0.0060
    98 N2     2py       -0.0014    0.0003   -0.0007    0.0000    0.0001    0.0002    0.0007    0.0000   -0.0003    0.0369
    99 N2     3py       -0.0017    0.0003   -0.0002    0.0000    0.0001    0.0002    0.0006    0.0000   -0.0003    0.0151
   100 N2     4py       -0.0000   -0.0000    0.0005   -0.0000   -0.0001   -0.0000    0.0002   -0.0000    0.0001   -0.0054
   101 N2     2pz       -0.0001    0.0004   -0.0003   -0.0002   -0.0000    0.0000   -0.0003    0.0001   -0.0001    0.0024
   102 N2     3pz       -0.0002    0.0005   -0.0001   -0.0003   -0.0001   -0.0001   -0.0004    0.0001   -0.0001    0.0092
   103 N2     4pz        0.0000    0.0000   -0.0003   -0.0000   -0.0000   -0.0000   -0.0001    0.0000    0.0000    0.0000
   104 N2     3d2-       0.0001    0.0000   -0.0002   -0.0000   -0.0001    0.0000   -0.0000   -0.0000   -0.0000   -0.0027
   105 N2     3d1-       0.0000   -0.0000    0.0001   -0.0000   -0.0000   -0.0000    0.0000    0.0000    0.0000   -0.0008
   106 N2     3d0       -0.0000    0.0000   -0.0000   -0.0000    0.0002   -0.0000    0.0001    0.0000   -0.0001   -0.0028
   107 N2     3d1+      -0.0000    0.0000   -0.0000   -0.0000   -0.0000   -0.0000    0.0000    0.0000   -0.0000   -0.0000
   108 N2     3d2+      -0.0000   -0.0000    0.0000   -0.0000    0.0001   -0.0000   -0.0000   -0.0000    0.0000    0.0047
   109 N5     1s         0.0000    0.0001    0.0001    0.9999    0.0001   -0.0003    0.0000    0.0001    0.0000   -0.0015
   110 N5     2s         0.0000    0.0009    0.0005    0.0006    0.0004   -0.0003    0.0000    0.0017    0.0001    0.0019
   111 N5     3s         0.0000    0.0006    0.0004   -0.0011    0.0002   -0.0004    0.0000    0.0010    0.0000   -0.0044
   112 N5     4s         0.0000    0.0001    0.0001    0.0006    0.0001    0.0000   -0.0000    0.0004    0.0000   -0.0008
   113 N5     2px       -0.0002   -0.0011   -0.0003   -0.0005    0.0002    0.0004   -0.0004    0.0008    0.0001   -0.0006
   114 N5     3px       -0.0003   -0.0012   -0.0003   -0.0003    0.0003    0.0002   -0.0005    0.0007    0.0001   -0.0015
   115 N5     4px       -0.0000    0.0000    0.0000    0.0001    0.0001   -0.0002    0.0000    0.0002    0.0000   -0.0009
   116 N5     2py        0.0001    0.0010   -0.0002    0.0007    0.0001   -0.0003   -0.0003    0.0001    0.0001   -0.0042
   117 N5     3py        0.0001    0.0011   -0.0002    0.0003    0.0001   -0.0001   -0.0002   -0.0002    0.0001   -0.0022
   118 N5     4py       -0.0000    0.0000    0.0000   -0.0003    0.0000   -0.0002    0.0001   -0.0002   -0.0000   -0.0001
   119 N5     2pz        0.0002    0.0007    0.0002    0.0004   -0.0003    0.0001    0.0004   -0.0006   -0.0001    0.0037
   120 N5     3pz        0.0002    0.0009    0.0002    0.0002   -0.0005   -0.0001    0.0005   -0.0005   -0.0002    0.0055
   121 N5     4pz        0.0000   -0.0000   -0.0000   -0.0001   -0.0001    0.0001    0.0000   -0.0001   -0.0000    0.0018
   122 N5     3d2-      -0.0000   -0.0000    0.0000   -0.0001   -0.0000    0.0000    0.0000   -0.0000   -0.0000    0.0003
   123 N5     3d1-       0.0000    0.0000   -0.0000    0.0001   -0.0000   -0.0000   -0.0000    0.0000    0.0000   -0.0002
   124 N5     3d0       -0.0000   -0.0000   -0.0000   -0.0000   -0.0000    0.0000   -0.0000    0.0000   -0.0000    0.0001
   125 N5     3d1+      -0.0000   -0.0001   -0.0000    0.0001    0.0000    0.0002   -0.0001    0.0001   -0.0000    0.0000
   126 N5     3d2+      -0.0000    0.0000   -0.0000   -0.0001   -0.0000   -0.0000   -0.0000    0.0000   -0.0000    0.0001
   127 O7     1s         0.9997    0.0000    0.0000    0.0000   -0.0003    0.0000   -0.0000    0.0000    0.0001   -0.0237
   128 O7     2s        -0.0016    0.0000    0.0001    0.0000    0.0004    0.0001   -0.0001    0.0000    0.0003    0.6924
   129 O7     3s        -0.0014    0.0000    0.0001    0.0000   -0.0000    0.0001   -0.0000    0.0000    0.0003   -0.0341
   130 O7     4s         0.0000    0.0000   -0.0000    0.0000    0.0000    0.0000    0.0000    0.0000    0.0001   -0.0138
   131 O7     2px        0.0001    0.0000   -0.0003    0.0000    0.0004    0.0001   -0.0001    0.0000    0.0001    0.0893
   132 O7     3px       -0.0003    0.0001   -0.0004    0.0000   -0.0000    0.0001   -0.0000   -0.0000    0.0001   -0.0266
   133 O7     4px        0.0008    0.0000   -0.0001    0.0000    0.0001    0.0000    0.0000   -0.0000   -0.0000   -0.0015
   134 O7     2py       -0.0001   -0.0000   -0.0002    0.0000   -0.0006    0.0000    0.0000   -0.0000   -0.0001   -0.1185
   135 O7     3py        0.0006   -0.0000   -0.0001    0.0000   -0.0003    0.0001   -0.0000   -0.0000   -0.0001    0.0361
   136 O7     4py       -0.0011   -0.0000    0.0001   -0.0000   -0.0003    0.0000   -0.0000   -0.0000    0.0000    0.0001
   137 O7     2pz       -0.0000    0.0000   -0.0001    0.0000    0.0001   -0.0000    0.0000    0.0000   -0.0000    0.0015
   138 O7     3pz       -0.0000    0.0000   -0.0000    0.0000   -0.0000   -0.0001    0.0000   -0.0000   -0.0000    0.0015
   139 O7     4pz       -0.0000   -0.0000   -0.0000    0.0000   -0.0000   -0.0000    0.0000   -0.0000   -0.0000    0.0004
   140 O7     3d2-       0.0001   -0.0000    0.0000   -0.0000   -0.0002   -0.0000    0.0000    0.0000   -0.0000   -0.0184
   141 O7     3d1-       0.0000   -0.0000    0.0000    0.0000   -0.0000    0.0000    0.0000   -0.0000    0.0000    0.0000
   142 O7     3d0       -0.0000    0.0000   -0.0001    0.0000   -0.0001    0.0000   -0.0000    0.0000   -0.0000   -0.0106
   143 O7     3d1+      -0.0000   -0.0000    0.0000   -0.0000   -0.0000   -0.0000    0.0000    0.0000   -0.0000   -0.0001
   144 O7     3d2+       0.0000   -0.0000   -0.0001   -0.0000   -0.0001    0.0000   -0.0000    0.0000   -0.0000   -0.0059
   145 O8     1s        -0.0000    0.9997   -0.0000    0.0000    0.0000   -0.0002    0.0000   -0.0000    0.0000   -0.0017
   146 O8     2s        -0.0000   -0.0015   -0.0003    0.0002    0.0002    0.0006   -0.0000   -0.0003    0.0001    0.0278
   147 O8     3s        -0.0001   -0.0014   -0.0002    0.0001    0.0002    0.0001    0.0000   -0.0001    0.0001   -0.0037
   148 O8     4s        -0.0000    0.0000   -0.0000    0.0000    0.0001    0.0001   -0.0000   -0.0000    0.0000   -0.0011
   149 O8     2px        0.0000   -0.0001    0.0001   -0.0002   -0.0001    0.0001    0.0001   -0.0000   -0.0000   -0.0024
   150 O8     3px        0.0000    0.0002    0.0000   -0.0001   -0.0001   -0.0001    0.0001   -0.0000   -0.0000    0.0009
   151 O8     4px       -0.0000   -0.0005   -0.0000    0.0000   -0.0000   -0.0001    0.0000   -0.0000    0.0000   -0.0003
   152 O8     2py        0.0001    0.0002   -0.0000   -0.0001    0.0000    0.0008   -0.0000   -0.0001    0.0000    0.0047
   153 O8     3py        0.0001   -0.0005   -0.0000   -0.0002    0.0000    0.0002    0.0000   -0.0000   -0.0000   -0.0031
   154 O8     4py        0.0000    0.0012    0.0000   -0.0001   -0.0000    0.0001   -0.0000    0.0000   -0.0000    0.0002
   155 O8     2pz        0.0000    0.0000   -0.0001    0.0002    0.0000    0.0004   -0.0001    0.0000    0.0001    0.0022
   156 O8     3pz        0.0000   -0.0002   -0.0001    0.0001    0.0000    0.0000   -0.0001    0.0000    0.0001   -0.0014
   157 O8     4pz       -0.0000    0.0003   -0.0000   -0.0000   -0.0000    0.0001   -0.0000   -0.0000    0.0000    0.0000
   158 O8     3d2-      -0.0000    0.0001    0.0000   -0.0000   -0.0000   -0.0001    0.0000   -0.0000   -0.0000   -0.0005
   159 O8     3d1-       0.0000   -0.0001   -0.0000    0.0000    0.0000    0.0001   -0.0000    0.0000    0.0000    0.0004
   160 O8     3d0       -0.0000    0.0000   -0.0000   -0.0000    0.0000   -0.0001    0.0000    0.0000    0.0000   -0.0004
   161 O8     3d1+       0.0000   -0.0000    0.0000   -0.0001   -0.0000    0.0000   -0.0000   -0.0000   -0.0000   -0.0002
   162 O8     3d2+      -0.0000    0.0001   -0.0000    0.0000   -0.0000   -0.0002    0.0000    0.0000   -0.0000   -0.0004
   163 H9     1s         0.0002    0.0000    0.0000   -0.0001   -0.0000   -0.0002   -0.0005   -0.0000    0.0003    0.0145
   164 H9     2s         0.0001    0.0000   -0.0000   -0.0000    0.0000   -0.0001   -0.0003   -0.0000   -0.0002    0.0038
   165 H9     2px       -0.0000    0.0000    0.0000   -0.0000    0.0000   -0.0000   -0.0000   -0.0000   -0.0000    0.0009
   166 H9     2py       -0.0001    0.0000   -0.0000    0.0000    0.0001   -0.0000   -0.0000   -0.0000    0.0000    0.0013
   167 H9     2pz       -0.0000    0.0000    0.0000    0.0000   -0.0000    0.0000    0.0000    0.0000    0.0001   -0.0006
   168 H10    1s         0.0001   -0.0003    0.0002    0.0001    0.0001   -0.0001   -0.0000   -0.0001    0.0003    0.0131
   169 H10    2s         0.0000   -0.0002    0.0001    0.0000    0.0001   -0.0001   -0.0000   -0.0000   -0.0003    0.0025
   170 H10    2px       -0.0000   -0.0000    0.0001    0.0000    0.0000   -0.0000   -0.0000   -0.0000   -0.0000    0.0008
   171 H10    2py       -0.0001   -0.0000   -0.0000   -0.0000    0.0000   -0.0000   -0.0000   -0.0000    0.0000    0.0011
   172 H10    2pz        0.0000   -0.0000   -0.0000    0.0000    0.0000   -0.0000   -0.0000   -0.0000   -0.0001    0.0006
   173 H11    1s        -0.0005   -0.0002    0.0004    0.0000    0.0003   -0.0001   -0.0001   -0.0001    0.0004    0.0204
   174 H11    2s        -0.0003   -0.0001    0.0003    0.0000    0.0002   -0.0001   -0.0001   -0.0001   -0.0002    0.0059
   175 H11    2px       -0.0000    0.0000   -0.0001   -0.0000   -0.0000    0.0000    0.0000    0.0000    0.0001   -0.0001
   176 H11    2py       -0.0000   -0.0000    0.0000    0.0000    0.0001    0.0000   -0.0000   -0.0000   -0.0000    0.0019
   177 H11    2pz       -0.0000    0.0000   -0.0000   -0.0000    0.0000    0.0000   -0.0000    0.0000   -0.0000    0.0001
   178 H12    1s        -0.0010    0.0005   -0.0008   -0.0001    0.0001    0.0001   -0.0003   -0.0000   -0.0005    0.0364
   179 H12    2s        -0.0006    0.0004   -0.0006   -0.0001   -0.0000    0.0000   -0.0001   -0.0000   -0.0003   -0.0026
   180 H12    2px        0.0000   -0.0000    0.0002    0.0000   -0.0001    0.0000    0.0000   -0.0000    0.0000   -0.0045
   181 H12    2py       -0.0000    0.0001   -0.0004    0.0000    0.0000    0.0000    0.0000   -0.0000   -0.0000    0.0039
   182 H12    2pz       -0.0001   -0.0000   -0.0002    0.0000    0.0000    0.0000    0.0000   -0.0000   -0.0000    0.0013
   183 H13    1s         0.0004   -0.0002   -0.0004    0.0003   -0.0003   -0.0003    0.0009   -0.0002    0.0002    0.0115
   184 H13    2s         0.0003   -0.0001   -0.0002    0.0002   -0.0002   -0.0002    0.0001   -0.0001    0.0001   -0.0038
   185 H13    2px        0.0000   -0.0000    0.0000   -0.0000   -0.0000    0.0001    0.0000   -0.0000    0.0000   -0.0004
   186 H13    2py       -0.0000   -0.0000    0.0000   -0.0001    0.0000    0.0000   -0.0001   -0.0000   -0.0000   -0.0010
   187 H13    2pz        0.0000   -0.0000    0.0000    0.0000   -0.0000   -0.0000   -0.0000   -0.0000   -0.0000    0.0009
   188 H14    1s         0.0001    0.0008   -0.0004   -0.0001   -0.0006   -0.0001    0.0009   -0.0002   -0.0003    0.0168
   189 H14    2s         0.0001    0.0005   -0.0002   -0.0001   -0.0005   -0.0000    0.0001   -0.0001   -0.0002    0.0057
   190 H14    2px       -0.0000   -0.0000    0.0000   -0.0000    0.0000    0.0001    0.0000    0.0000   -0.0000   -0.0007
   191 H14    2py       -0.0000   -0.0001    0.0000   -0.0000    0.0000    0.0000   -0.0000   -0.0000    0.0000   -0.0006
   192 H14    2pz        0.0000   -0.0000   -0.0000    0.0000    0.0001   -0.0000    0.0000    0.0000    0.0000   -0.0012
   193 H15    1s        -0.0003   -0.0014   -0.0000   -0.0008   -0.0001    0.0004    0.0001   -0.0001   -0.0001    0.0076
   194 H15    2s        -0.0002   -0.0008   -0.0000   -0.0006   -0.0001    0.0001    0.0001   -0.0000   -0.0001    0.0037
   195 H15    2px       -0.0000   -0.0000    0.0000   -0.0002   -0.0000   -0.0000    0.0000    0.0000   -0.0000    0.0005
   196 H15    2py        0.0000    0.0001   -0.0000    0.0004    0.0000   -0.0002   -0.0000    0.0000    0.0000   -0.0009
   197 H15    2pz        0.0000    0.0000   -0.0000    0.0001    0.0000    0.0000   -0.0000   -0.0000    0.0000   -0.0003
   198 H16    1s         0.0001    0.0003   -0.0002   -0.0005   -0.0001   -0.0004   -0.0002    0.0005   -0.0000    0.0028
   199 H16    2s         0.0001    0.0002   -0.0001   -0.0002   -0.0001   -0.0004   -0.0001   -0.0001   -0.0000    0.0022
   200 H16    2px       -0.0000   -0.0000   -0.0000    0.0000    0.0000   -0.0000   -0.0000   -0.0000   -0.0000    0.0001
   201 H16    2py       -0.0000   -0.0000    0.0000    0.0000    0.0000    0.0000    0.0000   -0.0000   -0.0000   -0.0000
   202 H16    2pz        0.0000    0.0000   -0.0000   -0.0000   -0.0000   -0.0001   -0.0000    0.0000   -0.0000    0.0002
   203 H17    1s        -0.0001    0.0003    0.0001   -0.0005   -0.0001   -0.0003    0.0002    0.0005   -0.0001    0.0038
   204 H17    2s        -0.0001    0.0002    0.0000   -0.0002   -0.0001   -0.0002    0.0001   -0.0001   -0.0000    0.0026
   205 H17    2px        0.0000   -0.0000    0.0000    0.0000    0.0000    0.0001   -0.0000   -0.0000    0.0000   -0.0003
   206 H17    2py        0.0000   -0.0000   -0.0000    0.0000    0.0000    0.0000   -0.0000    0.0000    0.0000   -0.0003
   207 H17    2pz        0.0000    0.0000    0.0000   -0.0000    0.0000    0.0000   -0.0000    0.0000    0.0000   -0.0003
   208 H18    1s        -0.0001   -0.0000   -0.0001   -0.0002   -0.0002   -0.0000    0.0001    0.0010   -0.0000    0.0039
   209 H18    2s        -0.0000    0.0000   -0.0001   -0.0000   -0.0001    0.0000    0.0000    0.0001   -0.0000    0.0023
   210 H18    2px        0.0000    0.0000    0.0000   -0.0000    0.0000   -0.0000    0.0000   -0.0001   -0.0000   -0.0001
   211 H18    2py       -0.0000   -0.0000   -0.0000    0.0000   -0.0000   -0.0000    0.0000    0.0001   -0.0000    0.0005
   212 H18    2pz       -0.0000   -0.0000   -0.0000    0.0000   -0.0000    0.0000    0.0000    0.0000   -0.0000    0.0002
 
 
      Orbital                11        12        13        14        15        16        17        18        19        20
      Energy            -1.3697   -1.2536   -1.2173   -1.0283   -0.9726   -0.9148   -0.8161   -0.7799   -0.7201   -0.6939
      Occ. No.           2.0000    2.0000    2.0000    2.0000    2.0000    2.0000    2.0000    2.0000    2.0000    2.0000
 
     1 C1     1s         0.0041   -0.0088    0.0020   -0.0165    0.0000    0.0065   -0.0143    0.0019    0.0067    0.0031
     2 C1     2s         0.0048    0.1294    0.0081    0.2766   -0.0448   -0.0926    0.3729   -0.0176   -0.2604   -0.0713
     3 C1     3s         0.0159   -0.0013    0.0122   -0.0185   -0.0022    0.0090   -0.0066    0.0053    0.0056    0.0173
     4 C1     4s         0.0047    0.0002    0.0039   -0.0053   -0.0013    0.0041   -0.0030    0.0018    0.0034    0.0031
     5 C1     2px        0.0321    0.1525    0.0154   -0.0082    0.0993   -0.0998    0.1315   -0.0040    0.1431    0.2645
     6 C1     3px        0.0178   -0.0418    0.0271   -0.0531   -0.0253    0.0389   -0.0219   -0.0042   -0.0660   -0.0587
     7 C1     4px        0.0089    0.0266    0.0049   -0.0093    0.0114   -0.0070    0.0103   -0.0012    0.0051    0.0177
     8 C1     2py        0.0058   -0.0344    0.0195   -0.1599    0.0650   -0.0010    0.0575    0.0360    0.0545   -0.1449
     9 C1     3py        0.0249    0.0431    0.0223    0.0098   -0.0491    0.0444   -0.0087   -0.0023   -0.0051    0.0620
    10 C1     4py        0.0006   -0.0051    0.0041   -0.0258    0.0072    0.0044    0.0081    0.0021   -0.0018   -0.0084
    11 C1     2pz       -0.0004   -0.0109   -0.0035    0.0055    0.0064   -0.0087    0.0160    0.0028    0.0065   -0.0022
    12 C1     3pz       -0.0003   -0.0120   -0.0053    0.0061    0.0066   -0.0092    0.0036    0.0016    0.0029   -0.0011
    13 C1     4pz       -0.0005   -0.0016   -0.0011    0.0023    0.0015   -0.0030    0.0009    0.0006    0.0018   -0.0010
    14 C1     3d2-       0.0037    0.0158   -0.0002    0.0083   -0.0085    0.0066    0.0128    0.0071    0.0175    0.0072
    15 C1     3d1-      -0.0001   -0.0004    0.0000    0.0002    0.0000    0.0000    0.0006    0.0002   -0.0004   -0.0008
    16 C1     3d0        0.0010   -0.0066    0.0000   -0.0115    0.0001    0.0052   -0.0133    0.0007    0.0063    0.0024
    17 C1     3d1+      -0.0000   -0.0005   -0.0000    0.0009    0.0010   -0.0008    0.0029    0.0007    0.0028    0.0009
    18 C1     3d2+       0.0027    0.0272   -0.0009    0.0023    0.0149   -0.0140    0.0090   -0.0011    0.0135    0.0169
    19 C3     1s        -0.0154   -0.0305   -0.0068    0.0343    0.0251   -0.0232   -0.0093   -0.0071   -0.0006    0.0002
    20 C3     2s         0.0252    0.1755    0.0150   -0.2880   -0.2321    0.3147    0.0998    0.0751   -0.0292    0.0395
    21 C3     3s        -0.0378   -0.0497   -0.0189    0.0592    0.0427   -0.0211   -0.0198   -0.0154    0.0010    0.0003
    22 C3     4s        -0.0048   -0.0101   -0.0022    0.0159    0.0104   -0.0058   -0.0050   -0.0050    0.0019   -0.0019
    23 C3     2px        0.0166   -0.0535    0.0244   -0.0357   -0.0717    0.0047   -0.0489   -0.1264   -0.2438    0.0859
    24 C3     3px        0.0041    0.0052    0.0146   -0.0336    0.0146    0.0133    0.0139    0.0235    0.0378   -0.0099
    25 C3     4px        0.0094   -0.0066    0.0063   -0.0065    0.0001   -0.0014   -0.0025   -0.0063   -0.0032    0.0024
    26 C3     2py       -0.0361   -0.0983    0.0094    0.0036   -0.0409   -0.0354    0.1467    0.0157   -0.0340    0.2266
    27 C3     3py       -0.0029    0.0110   -0.0046   -0.0377    0.0092   -0.0297   -0.0093    0.0142    0.0070   -0.0317
    28 C3     4py        0.0061   -0.0028    0.0033   -0.0134   -0.0082    0.0034    0.0078    0.0094   -0.0029    0.0095
    29 C3     2pz       -0.0059    0.0034   -0.0180    0.0099    0.0301    0.0273    0.0059    0.0802    0.1041   -0.0778
    30 C3     3pz        0.0109    0.0024   -0.0047   -0.0103   -0.0213    0.0149    0.0031   -0.0115   -0.0126    0.0108
    31 C3     4pz       -0.0052    0.0073   -0.0018   -0.0054   -0.0046    0.0119    0.0007    0.0045   -0.0012   -0.0000
    32 C3     3d2-      -0.0011    0.0186    0.0040   -0.0030    0.0063   -0.0020   -0.0036    0.0046    0.0169   -0.0190
    33 C3     3d1-       0.0042   -0.0031   -0.0035    0.0009   -0.0015    0.0012   -0.0013   -0.0028   -0.0105    0.0039
    34 C3     3d0       -0.0012   -0.0115    0.0013    0.0041   -0.0045   -0.0023    0.0038   -0.0054   -0.0110    0.0102
    35 C3     3d1+      -0.0019   -0.0047   -0.0022    0.0061    0.0087   -0.0000    0.0039    0.0098    0.0121   -0.0003
    36 C3     3d2+       0.0004   -0.0098    0.0024    0.0004   -0.0090   -0.0031    0.0173   -0.0077   -0.0079    0.0176
    37 C4     1s        -0.0399    0.0072   -0.0064    0.0082    0.0155    0.0076   -0.0040    0.0160    0.0032   -0.0023
    38 C4     2s         0.3559    0.0134    0.1298   -0.1122   -0.2269   -0.0441    0.0364   -0.3997   -0.0836    0.0352
    39 C4     3s        -0.0071    0.0203    0.0085    0.0143    0.0142    0.0190   -0.0091    0.0090    0.0045   -0.0035
    40 C4     4s         0.0024    0.0058    0.0028    0.0047    0.0043    0.0059   -0.0020    0.0049    0.0036   -0.0023
    41 C4     2px        0.0558   -0.0463    0.0489    0.0577    0.0910   -0.0415    0.0142   -0.0578    0.1487   -0.0678
    42 C4     3px       -0.0202   -0.0045    0.0388   -0.0245    0.0425    0.0769    0.0008    0.0025   -0.0659    0.0344
    43 C4     4px        0.0135   -0.0107    0.0141    0.0052    0.0183    0.0039    0.0032   -0.0057    0.0028    0.0003
    44 C4     2py       -0.0791    0.0016    0.1633   -0.0333   -0.0706   -0.0753    0.0217   -0.0934    0.0434    0.0276
    45 C4     3py        0.0588   -0.0371   -0.0449    0.0117    0.0442    0.0313    0.0151    0.0233   -0.0221   -0.0046
    46 C4     4py       -0.0225   -0.0038    0.0312   -0.0027   -0.0059   -0.0058    0.0097   -0.0026    0.0028    0.0024
    47 C4     2pz       -0.0335    0.0280   -0.0445   -0.0488   -0.0747    0.0283   -0.0152    0.0270   -0.1383    0.0546
    48 C4     3pz        0.0052   -0.0060   -0.0340    0.0222   -0.0195   -0.0762   -0.0057   -0.0016    0.0557   -0.0302
    49 C4     4pz       -0.0106    0.0060   -0.0130   -0.0059   -0.0119   -0.0048   -0.0034    0.0041   -0.0038   -0.0007
    50 C4     3d2-      -0.0181    0.0041    0.0231    0.0002   -0.0023   -0.0095   -0.0060   -0.0121    0.0105   -0.0109
    51 C4     3d1-       0.0107   -0.0032   -0.0177    0.0002    0.0019    0.0084    0.0039    0.0094   -0.0092    0.0087
    52 C4     3d0       -0.0210    0.0040   -0.0015   -0.0008    0.0039    0.0080   -0.0017    0.0027   -0.0030   -0.0011
    53 C4     3d1+      -0.0117   -0.0019   -0.0053    0.0088    0.0104   -0.0059   -0.0023    0.0158    0.0030    0.0003
    54 C4     3d2+      -0.0286    0.0078   -0.0020   -0.0050    0.0030    0.0162    0.0014   -0.0018   -0.0004   -0.0020
    55 C6     1s        -0.0090    0.0045   -0.0345   -0.0127   -0.0382   -0.0421   -0.0062    0.0071    0.0062   -0.0057
    56 C6     2s         0.0248    0.0087    0.1560    0.0958    0.2552    0.3665    0.0306   -0.1157   -0.0508    0.0426
    57 C6     3s        -0.0132    0.0205   -0.0599   -0.0155   -0.0737   -0.0680   -0.0188    0.0105    0.0163   -0.0162
    58 C6     4s        -0.0001    0.0062   -0.0097   -0.0020   -0.0162   -0.0137   -0.0048    0.0030    0.0043   -0.0043
    59 C6     2px       -0.0184   -0.0020   -0.0843   -0.0225   -0.0126    0.0321    0.0300   -0.0837   -0.0748    0.1021
    60 C6     3px        0.0027   -0.0083    0.0163    0.0006    0.0172    0.0047    0.0019    0.0062    0.0130   -0.0162
    61 C6     4px       -0.0029   -0.0007   -0.0010    0.0038    0.0111    0.0160    0.0032   -0.0082   -0.0039    0.0048
    62 C6     2py       -0.0076    0.0008   -0.0034   -0.0028    0.0097    0.0145   -0.0141    0.1174   -0.1064    0.0564
    63 C6     3py       -0.0010   -0.0009    0.0028   -0.0014    0.0105    0.0117    0.0031   -0.0025    0.0086   -0.0045
    64 C6     4py       -0.0005   -0.0000    0.0024    0.0006    0.0030    0.0016   -0.0026    0.0064   -0.0059    0.0029
    65 C6     2pz        0.0140    0.0051    0.0652    0.0117    0.0066   -0.0190   -0.0195    0.0555    0.0578   -0.0782
    66 C6     3pz       -0.0005    0.0109   -0.0107   -0.0058   -0.0170    0.0018    0.0012   -0.0041   -0.0100    0.0136
    67 C6     4pz        0.0025    0.0012    0.0007   -0.0024   -0.0093   -0.0118   -0.0020    0.0057    0.0028   -0.0035
    68 C6     3d2-       0.0005    0.0001   -0.0002   -0.0005   -0.0013   -0.0012    0.0014   -0.0088    0.0040   -0.0015
    69 C6     3d1-      -0.0005    0.0001    0.0002   -0.0000    0.0009    0.0010   -0.0010    0.0074   -0.0039    0.0016
    70 C6     3d0        0.0003    0.0001    0.0014   -0.0004   -0.0009   -0.0010   -0.0006    0.0029   -0.0026    0.0009
    71 C6     3d1+      -0.0044    0.0009   -0.0197   -0.0047   -0.0060    0.0021    0.0032   -0.0080   -0.0129    0.0147
    72 C6     3d2+       0.0022   -0.0002    0.0136    0.0023    0.0026   -0.0025   -0.0029    0.0116    0.0027   -0.0065
    73 C19    1s         0.0009   -0.0096    0.0014   -0.0560    0.0429   -0.0221    0.0132   -0.0036   -0.0092    0.0019
    74 C19    2s         0.0046    0.0026    0.0070    0.2962   -0.2740    0.1665   -0.0741    0.0364    0.0987    0.0026
    75 C19    3s         0.0067   -0.0262    0.0096   -0.1122    0.0802   -0.0369    0.0355   -0.0065   -0.0170    0.0114
    76 C19    4s         0.0028   -0.0030    0.0035   -0.0242    0.0180   -0.0080    0.0099   -0.0019   -0.0053    0.0032
    77 C19    2px        0.0019    0.0243   -0.0018    0.0532   -0.0007   -0.0269    0.0424   -0.0232   -0.0536    0.1317
    78 C19    3px       -0.0015   -0.0011   -0.0020    0.0047    0.0046   -0.0021   -0.0033    0.0042    0.0123   -0.0114
    79 C19    4px       -0.0013    0.0001   -0.0008   -0.0072    0.0119   -0.0088    0.0011   -0.0032   -0.0060    0.0030
    80 C19    2py        0.0037    0.0086    0.0064    0.0460   -0.0129   -0.0158    0.0647   -0.0316   -0.2036   -0.0555
    81 C19    3py        0.0057   -0.0028    0.0073   -0.0324    0.0184   -0.0027   -0.0099    0.0003    0.0211    0.0126
    82 C19    4py        0.0003    0.0011    0.0002   -0.0128    0.0142   -0.0099    0.0132   -0.0014   -0.0088   -0.0016
    83 C19    2pz        0.0023   -0.0040   -0.0000   -0.0006    0.0011    0.0000    0.0044   -0.0020    0.0017   -0.0012
    84 C19    3pz        0.0026   -0.0031    0.0004   -0.0025    0.0001    0.0015    0.0002   -0.0027   -0.0008    0.0004
    85 C19    4pz        0.0002    0.0005    0.0003   -0.0004   -0.0008    0.0007    0.0001   -0.0002   -0.0001    0.0002
    86 C19    3d2-       0.0004    0.0059   -0.0002    0.0107   -0.0022   -0.0028    0.0071   -0.0025   -0.0132   -0.0004
    87 C19    3d1-      -0.0000    0.0002    0.0001    0.0004   -0.0003    0.0000    0.0004   -0.0000   -0.0001    0.0004
    88 C19    3d0       -0.0001   -0.0009    0.0000   -0.0087    0.0040    0.0005   -0.0033    0.0023    0.0082   -0.0080
    89 C19    3d1+      -0.0001    0.0005    0.0002   -0.0001   -0.0003    0.0003   -0.0003    0.0001   -0.0006   -0.0007
    90 C19    3d2+       0.0006    0.0022   -0.0001   -0.0076    0.0051   -0.0009   -0.0034    0.0018    0.0143    0.0051
    91 N2     1s        -0.0065   -0.0414    0.0000   -0.0037   -0.0040    0.0011    0.0035    0.0003    0.0019   -0.0006
    92 N2     2s         0.0539    0.5828   -0.0220   -0.0096    0.2056   -0.1296   -0.1577   -0.0170    0.1224   -0.0509
    93 N2     3s        -0.0158   -0.0806   -0.0035   -0.0087    0.0049   -0.0059    0.0058    0.0020    0.0095   -0.0005
    94 N2     4s        -0.0040   -0.0259   -0.0004   -0.0006   -0.0010   -0.0001    0.0027    0.0006   -0.0004    0.0004
    95 N2     2px        0.0161   -0.0363    0.0030   -0.1439   -0.0308    0.1234   -0.3714   -0.0083   -0.0874   -0.2742
    96 N2     3px        0.0060   -0.0179    0.0060    0.0240    0.0468   -0.0585    0.1030   -0.0004   -0.0060    0.0600
    97 N2     4px        0.0042    0.0005    0.0018   -0.0068    0.0074   -0.0044   -0.0016   -0.0005   -0.0021    0.0061
    98 N2     2py       -0.0038   -0.0007    0.0023   -0.1217   -0.0415    0.1149    0.2113    0.1505    0.2428   -0.2097
    99 N2     3py       -0.0119   -0.0437   -0.0046    0.0401    0.0437   -0.0564   -0.0236   -0.0378   -0.0527    0.0299
   100 N2     4py        0.0007   -0.0112    0.0002   -0.0007    0.0044   -0.0046    0.0080   -0.0025   -0.0018    0.0047
   101 N2     2pz       -0.0090   -0.0090    0.0041    0.0111   -0.0061   -0.0018    0.0339    0.0188    0.0458   -0.0092
   102 N2     3pz       -0.0040    0.0252    0.0024    0.0014   -0.0082    0.0010   -0.0214   -0.0031   -0.0086    0.0010
   103 N2     4pz       -0.0016    0.0007    0.0001    0.0004   -0.0009    0.0006   -0.0006    0.0006   -0.0010    0.0009
   104 N2     3d2-       0.0009    0.0072    0.0002   -0.0019   -0.0074    0.0087    0.0060    0.0043    0.0063   -0.0035
   105 N2     3d1-       0.0000    0.0001   -0.0003    0.0024    0.0022   -0.0024   -0.0052   -0.0016   -0.0033    0.0021
   106 N2     3d0       -0.0017   -0.0164    0.0007    0.0012   -0.0039    0.0013   -0.0010   -0.0007   -0.0030   -0.0000
   107 N2     3d1+      -0.0007   -0.0009    0.0006    0.0016   -0.0005   -0.0012    0.0059    0.0011    0.0029    0.0027
   108 N2     3d2+       0.0007    0.0052    0.0005    0.0103    0.0055   -0.0121    0.0183   -0.0043   -0.0043    0.0146
   109 N5     1s        -0.0194    0.0015   -0.0426   -0.0015    0.0008    0.0029    0.0020   -0.0034    0.0032   -0.0018
   110 N5     2s         0.1249   -0.0311    0.5779    0.0439   -0.0201   -0.2201   -0.0631    0.1659    0.1008   -0.1004
   111 N5     3s        -0.0489    0.0033   -0.0799   -0.0023   -0.0058   -0.0135    0.0001   -0.0004    0.0150   -0.0099
   112 N5     4s        -0.0115    0.0019   -0.0265   -0.0014   -0.0026   -0.0014   -0.0001   -0.0022    0.0017   -0.0008
   113 N5     2px        0.0168   -0.0144   -0.0105    0.0443    0.1286    0.1231    0.0071    0.0066    0.0709   -0.1038
   114 N5     3px        0.0156   -0.0170   -0.0210   -0.0163   -0.0441   -0.0734    0.0092    0.0022   -0.0135    0.0218
   115 N5     4px       -0.0068   -0.0032   -0.0050    0.0016    0.0017   -0.0037    0.0026   -0.0030    0.0012    0.0010
   116 N5     2py       -0.0394    0.0073   -0.0132    0.0176    0.0647    0.0422   -0.0724    0.3936   -0.2225    0.0907
   117 N5     3py        0.0114   -0.0037    0.0281    0.0015    0.0023   -0.0001    0.0077   -0.1023    0.0366   -0.0164
   118 N5     4py       -0.0018   -0.0018    0.0104    0.0041    0.0039   -0.0004   -0.0004    0.0073   -0.0021    0.0023
   119 N5     2pz       -0.0009    0.0135    0.0117   -0.0349   -0.1127   -0.0949   -0.0002   -0.0416   -0.0522    0.0777
   120 N5     3pz       -0.0123    0.0151    0.0149    0.0252    0.0317    0.0536   -0.0079    0.0058    0.0095   -0.0152
   121 N5     4pz        0.0047    0.0025    0.0025    0.0025   -0.0016    0.0022   -0.0022    0.0020   -0.0004   -0.0010
   122 N5     3d2-       0.0020   -0.0003    0.0065   -0.0016   -0.0047   -0.0021    0.0030   -0.0158    0.0046   -0.0007
   123 N5     3d1-      -0.0024    0.0003   -0.0066    0.0016    0.0045    0.0025   -0.0022    0.0123   -0.0028    0.0002
   124 N5     3d0       -0.0025    0.0012   -0.0058   -0.0003    0.0017    0.0055    0.0002   -0.0005   -0.0011   -0.0003
   125 N5     3d1+      -0.0004    0.0002   -0.0160   -0.0016   -0.0038   -0.0035    0.0003   -0.0021   -0.0004    0.0017
   126 N5     3d2+      -0.0048    0.0018   -0.0023    0.0009    0.0062    0.0117   -0.0003    0.0028   -0.0018   -0.0016
   127 O7     1s         0.0013    0.0027   -0.0005   -0.0043    0.0023    0.0005   -0.0134   -0.0010    0.0142    0.0216
   128 O7     2s        -0.0736   -0.3029    0.0015   -0.2078    0.0609    0.0295   -0.3459   -0.0294    0.2389    0.3515
   129 O7     3s        -0.0006   -0.0086   -0.0022   -0.0198    0.0103   -0.0001   -0.0426   -0.0036    0.0396    0.0612
   130 O7     4s         0.0004   -0.0001   -0.0007   -0.0033    0.0026   -0.0009   -0.0084   -0.0009    0.0078    0.0130
   131 O7     2px       -0.0088   -0.0023   -0.0028   -0.0003    0.0265   -0.0331    0.1753    0.0191   -0.1077   -0.2335
   132 O7     3px       -0.0019   -0.0004   -0.0035   -0.0064    0.0044    0.0024   -0.0232   -0.0028    0.0101    0.0205
   133 O7     4px       -0.0004    0.0001   -0.0004   -0.0004    0.0002    0.0010   -0.0022   -0.0001    0.0007    0.0012
   134 O7     2py        0.0110    0.0388   -0.0016   -0.0324    0.0257    0.0010   -0.1529   -0.0059    0.2653    0.4081
   135 O7     3py       -0.0043   -0.0019   -0.0022    0.0141    0.0003   -0.0043    0.0240   -0.0015   -0.0312   -0.0433
   136 O7     4py       -0.0010   -0.0018   -0.0006   -0.0003    0.0009    0.0005    0.0028   -0.0003   -0.0036   -0.0066
   137 O7     2pz        0.0002    0.0017    0.0009    0.0019   -0.0008    0.0001    0.0017   -0.0008   -0.0038   -0.0003
   138 O7     3pz        0.0007    0.0031    0.0021   -0.0004   -0.0012    0.0010   -0.0016   -0.0009   -0.0010   -0.0002
   139 O7     4pz        0.0003    0.0008    0.0007   -0.0001   -0.0002    0.0002   -0.0006   -0.0003   -0.0000    0.0000
   140 O7     3d2-       0.0016    0.0037   -0.0000    0.0007   -0.0020    0.0024   -0.0118   -0.0007    0.0103    0.0186
   141 O7     3d1-       0.0000   -0.0002    0.0000   -0.0002   -0.0000    0.0001   -0.0003   -0.0000   -0.0002   -0.0003
   142 O7     3d0        0.0011    0.0043   -0.0002    0.0014    0.0001   -0.0002   -0.0050   -0.0007    0.0063    0.0120
   143 O7     3d1+       0.0000    0.0000    0.0001    0.0002    0.0000   -0.0001   -0.0000   -0.0001   -0.0001   -0.0000
   144 O7     3d2+       0.0007    0.0048   -0.0002   -0.0024    0.0045   -0.0031    0.0016    0.0007    0.0105    0.0117
   145 O8     1s        -0.0235    0.0021    0.0033    0.0010    0.0033   -0.0003   -0.0009    0.0128    0.0020    0.0019
   146 O8     2s         0.6713   -0.1429   -0.3250    0.1093    0.1513   -0.0004    0.0054    0.3534    0.0382    0.0562
   147 O8     3s        -0.0295   -0.0045   -0.0115    0.0068    0.0143   -0.0019   -0.0000    0.0468    0.0063    0.0065
   148 O8     4s        -0.0128   -0.0007   -0.0007    0.0005    0.0017   -0.0008    0.0009    0.0099    0.0013    0.0015
   149 O8     2px       -0.0362   -0.0033    0.0303    0.0144    0.0049   -0.0287    0.0230    0.0283    0.0889   -0.0057
   150 O8     3px        0.0142   -0.0026   -0.0040   -0.0003   -0.0091   -0.0066   -0.0019   -0.0087   -0.0054   -0.0031
   151 O8     4px        0.0001   -0.0009   -0.0025    0.0006    0.0001   -0.0003   -0.0005   -0.0005   -0.0018   -0.0003
   152 O8     2py        0.1328   -0.0277   -0.0275    0.0034   -0.0191   -0.0217    0.0316   -0.1946    0.0408   -0.0613
   153 O8     3py       -0.0390    0.0017    0.0011    0.0052    0.0058    0.0017   -0.0015    0.0285    0.0010    0.0045
   154 O8     4py       -0.0008   -0.0008    0.0012   -0.0000   -0.0014    0.0015    0.0019    0.0038   -0.0004    0.0012
   155 O8     2pz        0.0383    0.0042   -0.0191   -0.0195   -0.0176    0.0249   -0.0141   -0.0313   -0.0786    0.0111
   156 O8     3pz       -0.0077    0.0038    0.0043   -0.0018    0.0052    0.0082    0.0027    0.0070    0.0046    0.0018
   157 O8     4pz        0.0002    0.0014    0.0022   -0.0010   -0.0001    0.0010    0.0007    0.0009    0.0018   -0.0002
   158 O8     3d2-      -0.0100    0.0010    0.0051    0.0006    0.0004   -0.0022    0.0003    0.0035    0.0046    0.0001
   159 O8     3d1-       0.0076   -0.0006   -0.0035   -0.0011   -0.0012    0.0020   -0.0002   -0.0032   -0.0047    0.0005
[...]
AIVX     1  Mu1.0001  In1.029 Se1.045               0.03751997     -0.00067378      0.00227770     -0.00000153
AIVX     1  Mu1.0001  In1.018 Se1.046               0.29014108     -0.00162380      0.00290364     -0.00000471
AIVX     1  Mu1.0001  In1.021 Se1.046               0.24028031     -0.00187860      0.00336301     -0.00000632
AIVX     1  Mu1.0001  In1.022 Se1.046               0.14747555     -0.00010924      0.00013987     -0.00000002
AIVX     1  Mu1.0001  In1.024 Se1.046               0.22157870      0.00015610     -0.00048261     -0.00000008
AIVX     1  Mu1.0001  In1.025 Se1.046               0.15471120      0.00005570     -0.00020993     -0.00000001
AIVX     1  Mu1.0001  In1.026 Se1.046               0.26576802     -0.00005528      0.00008749     -0.00000000
AIVX     1  Mu1.0001  In1.027 Se1.046               0.24957366     -0.00065110      0.00105780     -0.00000069
AIVX     1  Mu1.0001  In1.028 Se1.046               0.07569284     -0.00049075      0.00100184     -0.00000049
AIVX     1  Mu1.0001  In1.029 Se1.046               0.10596093      0.00007110     -0.00042604     -0.00000003
AIVX     1  Mu1.0001  In1.018 Se1.047               0.26610494     -0.00025450      0.00101000     -0.00000026
AIVX     1  Mu1.0001  In1.021 Se1.047               0.21624417     -0.00184992      0.00337008     -0.00000623
AIVX     1  Mu1.0001  In1.022 Se1.047               0.12343941     -0.00021970      0.00069834     -0.00000015
AIVX     1  Mu1.0001  In1.023 Se1.047               0.28925121     -0.00105384      0.00199094     -0.00000210
AIVX     1  Mu1.0001  In1.024 Se1.047               0.19754256      0.00233951     -0.00479309     -0.00001121
AIVX     1  Mu1.0001  In1.025 Se1.047               0.13067506     -0.00023342      0.00013254     -0.00000003
AIVX     1  Mu1.0001  In1.026 Se1.047               0.24173188      0.00050918     -0.00126667     -0.00000064
AIVX     1  Mu1.0001  In1.027 Se1.047               0.22553752     -0.00083060      0.00135157     -0.00000112
AIVX     1  Mu1.0001  In1.028 Se1.047               0.05165670      0.00003593     -0.00014853     -0.00000001
AIVX     1  Mu1.0001  In1.029 Se1.047               0.08192479      0.00025308     -0.00062005     -0.00000016
AIVX     1  Mu1.0001  In1.021 Se1.048               0.25435872      0.00115341     -0.00216314     -0.00000249
AIVX     1  Mu1.0001  In1.022 Se1.048               0.16155395     -0.00028412      0.00034236     -0.00000010
AIVX     1  Mu1.0001  In1.024 Se1.048               0.23565710     -0.00039129      0.00069213     -0.00000027
AIVX     1  Mu1.0001  In1.025 Se1.048               0.16878961      0.00008440      0.00007990      0.00000001
AIVX     1  Mu1.0001  In1.026 Se1.048               0.27984643      0.00149024     -0.00245271     -0.00000366
AIVX     1  Mu1.0001  In1.027 Se1.048               0.26365207     -0.00107329      0.00158759     -0.00000170
AIVX     1  Mu1.0001  In1.028 Se1.048               0.08977125     -0.00059308      0.00157001     -0.00000093
AIVX     1  Mu1.0001  In1.029 Se1.048               0.12003934      0.00045458     -0.00113198     -0.00000051
AIVX     1  Mu1.0001  In1.021 Se1.049               0.27423277     -0.00151007      0.00251620     -0.00000380
AIVX     1  Mu1.0001  In1.022 Se1.049               0.18142801     -0.00099649      0.00130394     -0.00000130
AIVX     1  Mu1.0001  In1.024 Se1.049               0.25553116     -0.00044784      0.00042559     -0.00000019
AIVX     1  Mu1.0001  In1.025 Se1.049               0.18866366      0.00015406     -0.00005574     -0.00000001
AIVX     1  Mu1.0001  In1.026 Se1.049               0.29972048     -0.00005780     -0.00009074      0.00000001
AIVX     1  Mu1.0001  In1.027 Se1.049               0.28352612     -0.00206495      0.00302677     -0.00000625
AIVX     1  Mu1.0001  In1.028 Se1.049               0.10964531      0.00046408     -0.00126244     -0.00000059
AIVX     1  Mu1.0001  In1.029 Se1.049               0.13991339     -0.00009165      0.00034973     -0.00000003
AIVX     1  Mu1.0001  In1.021 Se1.050               0.26674165     -0.00171055      0.00248618     -0.00000425
AIVX     1  Mu1.0001  In1.022 Se1.050               0.17393689      0.00020843     -0.00048146     -0.00000010
AIVX     1  Mu1.0001  In1.024 Se1.050               0.24804004      0.00029712     -0.00062659     -0.00000019
AIVX     1  Mu1.0001  In1.025 Se1.050               0.18117254      0.00005992     -0.00011978     -0.00000001
AIVX     1  Mu1.0001  In1.026 Se1.050               0.29222936     -0.00122771      0.00193699     -0.00000238
AIVX     1  Mu1.0001  In1.027 Se1.050               0.27603500     -0.00146533      0.00224269     -0.00000329
AIVX     1  Mu1.0001  In1.028 Se1.050               0.10215418      0.00041920     -0.00060183     -0.00000025
AIVX     1  Mu1.0001  In1.029 Se1.050               0.13242227     -0.00057316      0.00087333     -0.00000050
AIVX     1  Mu1.0001  In1.021 Se1.051               0.29700261      0.00051132     -0.00157818     -0.00000081
AIVX     1  Mu1.0001  In1.022 Se1.051               0.20419785      0.00040457     -0.00047282     -0.00000019
AIVX     1  Mu1.0001  In1.024 Se1.051               0.27830100     -0.00178678      0.00291111     -0.00000520
AIVX     1  Mu1.0001  In1.025 Se1.051               0.21143350     -0.00008337      0.00022934     -0.00000002
AIVX     1  Mu1.0001  In1.028 Se1.051               0.13241514      0.00020842     -0.00034565     -0.00000007
AIVX     1  Mu1.0001  In1.029 Se1.051               0.16268323     -0.00072437      0.00068176     -0.00000049
AIVX     1  Mu1.0001  In1.022 Se1.052               0.22730253     -0.00047746      0.00056090     -0.00000027
AIVX     1  Mu1.0001  In1.025 Se1.052               0.23453818     -0.00000633     -0.00001272      0.00000000
AIVX     1  Mu1.0001  In1.028 Se1.052               0.15551983     -0.00013874      0.00026827     -0.00000004
AIVX     1  Mu1.0001  In1.029 Se1.052               0.18578792      0.00054219     -0.00111682     -0.00000061
AIVX     1  Mu1.0001  In1.022 Se1.053               0.25340999     -0.00002495     -0.00002701      0.00000000
AIVX     1  Mu1.0001  In1.025 Se1.053               0.26064564      0.00027953     -0.00041191     -0.00000012
AIVX     1  Mu1.0001  In1.028 Se1.053               0.18162729     -0.00011546      0.00022893     -0.00000003
AIVX     1  Mu1.0001  In1.029 Se1.053               0.21189538     -0.00014925     -0.00017843      0.00000003
AIVX     1  Mu1.0001  In1.022 Se1.054               0.24652695     -0.00094294      0.00146933     -0.00000139
AIVX     1  Mu1.0001  In1.025 Se1.054               0.25376260      0.00016676     -0.00011559     -0.00000002
AIVX     1  Mu1.0001  In1.028 Se1.054               0.17474425      0.00088874     -0.00162286     -0.00000144
AIVX     1  Mu1.0001  In1.029 Se1.054               0.20501234     -0.00015996      0.00014705     -0.00000002
AIVX     1  Mu1.0001  In1.022 Se1.055               0.28367097      0.00011088      0.00009215      0.00000001
AIVX     1  Mu1.0001  In1.025 Se1.055               0.29090662     -0.00016574      0.00005234     -0.00000001
AIVX     1  Mu1.0001  In1.028 Se1.055               0.21188827      0.00064160     -0.00163303     -0.00000105
AIVX     1  Mu1.0001  In1.029 Se1.055               0.24215635     -0.00029095      0.00048981     -0.00000014
AIVX     1  Mu1.0001  In1.022 Se1.056               0.29303350      0.00094137     -0.00110299     -0.00000104
AIVX     1  Mu1.0001  In1.028 Se1.056               0.22125080      0.00046795     -0.00127092     -0.00000059
AIVX     1  Mu1.0001  In1.029 Se1.056               0.25151889     -0.00099445      0.00166433     -0.00000166
AIVX     1  Mu1.0001  In1.028 Se1.057               0.23252055      0.00085839     -0.00168427     -0.00000145
AIVX     1  Mu1.0001  In1.029 Se1.057               0.26278864     -0.00215597      0.00369963     -0.00000798
AIVX     1  Mu1.0001  In1.028 Se1.058               0.27562156     -0.00018382      0.00024333     -0.00000004
AIVX     1  Mu1.0001  In1.028 Se1.059               0.25298338     -0.00049304      0.00123355     -0.00000061
AIVX     1  Mu1.0001  In1.029 Se1.059               0.28325146      0.00103229     -0.00163727     -0.00000169
AIVX     1  Mu1.0001  In1.028 Se1.060               0.24657015      0.00036511     -0.00034513     -0.00000013
AIVX     1  Mu1.0001  In1.029 Se1.060               0.27683823     -0.00116861      0.00170060     -0.00000199
AIVX     1  Mu1.0001  In1.028 Se1.061               0.29989732      0.00053107     -0.00095899     -0.00000051
AIVX     1  Mu1.0001  In1.022 Se1.209               0.27043408      0.00129367     -0.00194871     -0.00000252
AIVX     1  Mu1.0001  In1.025 Se1.209               0.27766973     -0.00027358      0.00051281     -0.00000014
AIVX     1  Mu1.0001  In1.028 Se1.209               0.19865137      0.00001738      0.00034654      0.00000001
AIVX     1  Mu1.0001  In1.029 Se1.209               0.22891946     -0.00072977      0.00144556     -0.00000105
--
 
   (Skipping property calculation,
    use PROP keyword to activate)
--
 
  Total CASPT2 energies:
::    CASPT2 Root  1     Total energy:   -455.20971958
::    CASPT2 Root  2     Total energy:   -455.01548794
::    CASPT2 Root  3     Total energy:   -454.99285441
::    CASPT2 Root  4     Total energy:   -454.94249651
::    CASPT2 Root  5     Total energy:   -454.93157342
::    CASPT2 Root  6     Total energy:   -454.94102476
::    CASPT2 Root  7     Total energy:   -454.91633305
 
++ Multi-State CASPT2 section:
********************************************************************************
  MULTI-STATE CASPT2 SECTION
--------------------------------------------------------------------------------
 
  Output diagonal energies have been shifted. Add   -455.000000000000     
 
  Effective Hamiltonian matrix (Symmetric):
 
                1               2               3               4               5
   1        -0.20971958
   2        -0.00011624     -0.01548794
   3        -0.00060786      0.00002818      0.00714559
   4        -0.00246187     -0.00013329     -0.00080634      0.05750349
   5        -0.00822411      0.00028425      0.00028028     -0.00889633      0.06842658
   6        -0.01335959     -0.00106036     -0.00047813      0.00244041     -0.00543644
   7        -0.01118460      0.00040066      0.00157946      0.00001347     -0.00336066
 
                6               7
   6         0.05897524
   7        -0.00990183      0.08366695
 
       Total MS-CASPT2 energies:
::    MS-CASPT2 Root  1     Total energy:   -455.21113701
::    MS-CASPT2 Root  2     Total energy:   -455.01550407
::    MS-CASPT2 Root  3     Total energy:   -454.99290064
::    MS-CASPT2 Root  4     Total energy:   -454.94753277
::    MS-CASPT2 Root  5     Total energy:   -454.94534640
::    MS-CASPT2 Root  6     Total energy:   -454.92447431
::    MS-CASPT2 Root  7     Total energy:   -454.91259447
 
       Eigenvectors:
            0.99734751     -0.00124970     -0.00200972     -0.04128952     -0.05635460
            0.00075011      0.99990100      0.00058574     -0.00228077     -0.01007725
            0.00259690     -0.00072256      0.99965871     -0.00884171      0.00889817
            0.00971036      0.00100546      0.01511278      0.80327813     -0.38544778
            0.03112327     -0.00264940     -0.00344856      0.53208440      0.12919142
            0.05133718      0.01339202      0.00370508      0.23660373      0.86502570
            0.03990220     -0.00292187     -0.02059274      0.11773239      0.28829421
 
           -0.00381112     -0.01992876
            0.00672779      0.00671385
            0.00999612      0.02044304
           -0.45369650     -0.00316865
            0.83333523     -0.06899712
           -0.31258329     -0.30856494
           -0.04294022      0.94823883
 
--
 
  THE ORIGINAL CI ARRAYS ARE NOW MIXED AS LINEAR
  COMBINATIONS, GIVEN BY THE EIGENVECTORS.
  A NEW JOBIPH FILE NAMED 'JOBMIX' IS PREPARED.
********************************************************************************
 
++ Mixed CI coefficients:
  The CI coefficients for the MIXED state nr.   1
--------------------------------------------------------------------------------
 CI COEFFICIENTS LARGER THAN  0.50D-01
  Occupation of active orbitals, and spin coupling
  of open shells. (u,d: Spin up or down).
  SGUGA info is (Midvert:IsyUp:UpperWalk/LowerWalk)
        Conf  SGUGA info        Occupation    Coefficient         Weight
           1  ( 1:1:   1/   1)   22222200       -0.971784       0.944365
           6  ( 1:1:   6/   1)   22220220        0.077127       0.005949
           7  ( 1:1:   7/   1)   22222u0d        0.059975       0.003597
          15  ( 1:1:  15/   1)   22222002        0.092598       0.008574
          64  ( 2:1:   4/   3)   2u22220d        0.079752       0.006360
          81  ( 2:1:   1/   4)   u22222d0       -0.104398       0.010899
         175  ( 3:1:   5/   8)   20222202        0.092864       0.008624
         191  ( 3:1:   1/  10)   02222220        0.077581       0.006019
 
  The CI coefficients for the MIXED state nr.   2
--------------------------------------------------------------------------------
 CI COEFFICIENTS LARGER THAN  0.50D-01
  Occupation of active orbitals, and spin coupling
  of open shells. (u,d: Spin up or down).
  SGUGA info is (Midvert:IsyUp:UpperWalk/LowerWalk)
        Conf  SGUGA info        Occupation    Coefficient         Weight
          24  ( 2:1:   4/   1)   222u220d        0.963002       0.927373
          32  ( 2:1:  12/   1)   222u022d       -0.074002       0.005476
          33  ( 2:1:  13/   1)   222u2d02        0.099640       0.009928
         125  ( 3:1:   5/   3)   2u2d2202        0.186735       0.034870
         213  ( 4:1:   1/   3)   u22u22dd       -0.084751       0.007183
         269  ( 5:1:   1/   9)   022u222d        0.078274       0.006127
 
  The CI coefficients for the MIXED state nr.   3
--------------------------------------------------------------------------------
 CI COEFFICIENTS LARGER THAN  0.50D-01
  Occupation of active orbitals, and spin coupling
  of open shells. (u,d: Spin up or down).
  SGUGA info is (Midvert:IsyUp:UpperWalk/LowerWalk)
        Conf  SGUGA info        Occupation    Coefficient         Weight
           2  ( 1:1:   2/   1)   22222ud0       -0.108475       0.011767
          21  ( 2:1:   1/   1)   222u22d0        0.117396       0.013782
          41  ( 2:1:   1/   2)   22u222d0       -0.940779       0.885065
          43  ( 2:1:   3/   2)   22u2d220       -0.153761       0.023642
          45  ( 2:1:   5/   2)   22u22dud        0.064405       0.004148
          47  ( 2:1:   7/   2)   22u22udd       -0.115706       0.013388
          55  ( 2:1:  15/   2)   22u220d2       -0.077550       0.006014
         161  ( 3:1:   1/   7)   u2d22220        0.126226       0.015933
         219  ( 4:1:   1/   4)   2uu222dd        0.069050       0.004768
         222  ( 4:1:   4/   4)   2uu22dd2        0.056463       0.003188
         294  ( 5:1:   2/  15)   20u222d2        0.099524       0.009905
 
  The CI coefficients for the MIXED state nr.   4
--------------------------------------------------------------------------------
 CI COEFFICIENTS LARGER THAN  0.50D-01
  Occupation of active orbitals, and spin coupling
  of open shells. (u,d: Spin up or down).
  SGUGA info is (Midvert:IsyUp:UpperWalk/LowerWalk)
        Conf  SGUGA info        Occupation    Coefficient         Weight
           2  ( 1:1:   2/   1)   22222ud0       -0.254800       0.064923
           3  ( 1:1:   3/   1)   2222u2d0       -0.777270       0.604149
           6  ( 1:1:   6/   1)   22220220        0.051079       0.002609
           7  ( 1:1:   7/   1)   22222u0d       -0.464011       0.215306
          12  ( 1:1:  12/   1)   2222uudd       -0.078806       0.006210
          15  ( 1:1:  15/   1)   22222002        0.086380       0.007461
          18  ( 1:1:  18/   1)   2222u0d2       -0.067345       0.004535
          41  ( 2:1:   1/   2)   22u222d0        0.058369       0.003407
          68  ( 2:1:   8/   3)   2u22u2dd        0.059338       0.003521
          73  ( 2:1:  13/   3)   2u222d02       -0.120695       0.014567
          81  ( 2:1:   1/   4)   u22222d0       -0.074075       0.005487
          83  ( 2:1:   3/   4)   u222d220        0.180204       0.032474
         175  ( 3:1:   5/   8)   20222202       -0.055408       0.003070
         177  ( 3:1:   7/   8)   2022u2d2        0.080491       0.006479
 
  The CI coefficients for the MIXED state nr.   5
--------------------------------------------------------------------------------
 CI COEFFICIENTS LARGER THAN  0.50D-01
  Occupation of active orbitals, and spin coupling
  of open shells. (u,d: Spin up or down).
  SGUGA info is (Midvert:IsyUp:UpperWalk/LowerWalk)
        Conf  SGUGA info        Occupation    Coefficient         Weight
           2  ( 1:1:   2/   1)   22222ud0        0.196202       0.038495
           3  ( 1:1:   3/   1)   2222u2d0        0.438022       0.191864
           7  ( 1:1:   7/   1)   22222u0d       -0.799368       0.638989
          14  ( 1:1:  14/   1)   22220u2d       -0.067072       0.004499
          15  ( 1:1:  15/   1)   22222002        0.153292       0.023498
          21  ( 2:1:   1/   1)   222u22d0        0.072284       0.005225
          73  ( 2:1:  13/   3)   2u222d02       -0.207520       0.043065
          83  ( 2:1:   3/   4)   u222d220       -0.110055       0.012112
          87  ( 2:1:   7/   4)   u2222udd        0.076892       0.005912
         175  ( 3:1:   5/   8)   20222202       -0.098208       0.009645
         193  ( 3:1:   3/  10)   02222u2d       -0.060164       0.003620
 
  The CI coefficients for the MIXED state nr.   6
--------------------------------------------------------------------------------
 CI COEFFICIENTS LARGER THAN  0.50D-01
  Occupation of active orbitals, and spin coupling
  of open shells. (u,d: Spin up or down).
  SGUGA info is (Midvert:IsyUp:UpperWalk/LowerWalk)
        Conf  SGUGA info        Occupation    Coefficient         Weight
           2  ( 1:1:   2/   1)   22222ud0        0.890357       0.792736
           3  ( 1:1:   3/   1)   2222u2d0       -0.320982       0.103030
          41  ( 2:1:   1/   2)   22u222d0       -0.091849       0.008436
          65  ( 2:1:   5/   3)   2u222dud        0.142360       0.020266
          67  ( 2:1:   7/   3)   2u222udd       -0.196262       0.038519
          83  ( 2:1:   3/   4)   u222d220        0.066216       0.004385
         176  ( 3:1:   6/   8)   20222ud2       -0.130323       0.016984
 
  The CI coefficients for the MIXED state nr.   7
--------------------------------------------------------------------------------
 CI COEFFICIENTS LARGER THAN  0.50D-01
  Occupation of active orbitals, and spin coupling
  of open shells. (u,d: Spin up or down).
  SGUGA info is (Midvert:IsyUp:UpperWalk/LowerWalk)
        Conf  SGUGA info        Occupation    Coefficient         Weight
           7  ( 1:1:   7/   1)   22222u0d       -0.077131       0.005949
          21  ( 2:1:   1/   1)   222u22d0       -0.899776       0.809598
          25  ( 2:1:   5/   1)   222u2dud       -0.217524       0.047317
          27  ( 2:1:   7/   1)   222u2udd        0.310359       0.096323
          41  ( 2:1:   1/   2)   22u222d0       -0.109828       0.012062
         210  ( 4:1:   4/   2)   2u2u2dd2       -0.076693       0.005882
         262  ( 5:1:   2/   7)   202u22d2        0.084102       0.007073
 
--
 
--- Stop Module: caspt2 at Wed Nov 13 20:26:51 2024 /rc=_RC_ALL_IS_WELL_ ---
*** files: xmldump
    saved to directory /home/pcaah4
--- Module caspt2 spent 6 minutes 50 seconds ---

.##################.
.# Happy landing! #.
.##################.

    Timing: Wall=672.27 User=581.73 System=75.64
******************************************************
*** WorkDir at /srv/COMMUNAL_SCRATCH/10389 cleaned ***
******************************************************
