   This run of MOLCAS is using the pymolcas driver

                             OPE
                             OPE          NMOL  CASOP  ENMOLC A   SO
                 OPE        NMOLC        AS  OP EN  MO LC     AS  OP
                OPENM       OL CA        SO  PE NM  OL CA     SOP EN
                OP EN      MO   LC       AS  OP ENMOL  CASO   PENMOL
                OP  EN     MO   LC       AS  OP EN     MO     LC ASO
               OP   E  NMOL  C  AS       OP  EN MO     LC     AS  OP
               OP  E   NMO   LC AS        OPEN  MO     LCASOP EN   M
               O  PEN   MO  LCA  SO
            OPE   NMO   L   CAS    OP
        OPENMOL  CASOP     ENMOL   CASOPE
     OPENMOLCA   SOPENMOLCASOPEN   MOLCASOPE
    OPENMOLCAS   OP           EN   MOL    CAS
    OPENMOLCAS       OP  ENM        O     LCA
    OPENMOLCAS    OPEN  MOLCASO     P  E  NMO
    OPENMOLCAS     OP               E  N  MOL
    OPENMOLCA   SO           PENM   O  L  CAS    OPEN    MO    LCAS
    OPENMOLCA   SOP           ENM   O  L  CAS   OP  EN  MOLC  AS   O
    OPENMOLCA   SOPE           NM      O  LCA   S      OP  EN MO
    OPENMOLC                AS         O  PEN   M      OL  CA  SOPE
    OPENMO        LCASOPE  NMOL        C  ASO   P      ENMOLC     AS
    OPE     NMO      LCA  SO     P     E   NM   OL  CA SO  PE N   MO
          OPENMOLCA            SOPE   NMO        LCAS  O    P  ENMO
     OPENMOLCASOPENMOLCASOPENMOLCASOPENMOLCA
        OPENMOLCASOPENMOLCASOPENMOLCASOPE
            OPENMOLCASOPENMOLCASOPENM
               OPENMOLCASOPENMOLCA        version: v23.06
                   OPENMOLCASO
                       OPE                tag:

 OpenMolcas is free software; you can redistribute it and/or modify it
 under the terms of the GNU Lesser General Public License version 2.1.
 OpenMolcas is distributed in the hope that it will be useful, but it
 is provided "as is" and without any express or implied warranties.
 For more details see the full text of the license in the file
 LICENSE or in <http://www.gnu.org/licenses/>.

                 Copyright (C) The OpenMolcas Authors
           For the author list and the recommended citation,
                   consult the file CONTRIBUTORS.md

           *************************************************
           * pymolcas version py2.24                       *
           *   build 4567b286dd94b1984b333a4ddf893180      *
           *   (after the EMIL interpreter by V. Veryazov) *
           *************************************************

configuration info
------------------
Host name: loginchem01.nottingham.ac.uk (Linux)
C Compiler ID: Intel
C flags: -std=gnu99 -gcc-sys -qopenmp
Fortran Compiler ID: Intel
Fortran flags: -fpp -i8 -heap-arrays -qopenmp
Definitions: _MOLCAS_;_I8_;_LINUX_
Parallel: OFF (GA=OFF)


   -----------------------------------------------------------------------------------------------------------
  |
  |              Project: orca_geometry_optimisation_225_90_BP86_def2-SVP_def2J_scf_cas1_ras12i11_cas2_ras12i8
  |       Submitted from: /home/pcaah4
  |         Scratch area: /srv/COMMUNAL_SCRATCH/10399
  |      Save outputs to: /home/pcaah4
  |               Molcas: /software/chemistry/openmolcas/openmolcas-23.06-openmp
  |
  | Scratch area is empty
  |
  |       MOLCAS_DRIVER = /software/chemistry/openmolcas/openmolcas-23.06-openmp/sbin/pymolcas
  | MOLCAS_KEEP_WORKDIR = NO
  |       MOLCAS_NPROCS = 1
  |       MOLCAS_SOURCE = /software/chemistry/openmolcas/openmolcas-23.06-openmp
  |    MOLCAS_STRUCTURE = 0
  |
   -----------------------------------------------------------------------------------------------------------

++ ---------   Input file   ---------

&SEWARD
TITLE
orca_geometry_optimisation_225_90_BP86_def2-SVP_def2J_scf_cas1_ras12i11
MULTIPOLES
2
SDIPOLE
ANGMOM
0 0 0
BASIS SET
C.ANO-S...4S3P1D.
C1           -0.016681   -0.057599   -0.053465 /Angstrom
C3            2.138861    1.166501   -0.043445 /Angstrom
C4            3.300944    1.060920   -1.045181 /Angstrom
C6            3.935437    1.379619   -3.418117 /Angstrom
C19          -0.671898   -1.425464    0.101185 /Angstrom
END OF BASIS
BASIS SET
N.ANO-S...4S3P1D.
N2            1.362069   -0.063386   -0.034699 /Angstrom
N5            2.997189    1.479217   -2.316498 /Angstrom
END OF BASIS
BASIS SET
O.ANO-S...4S3P1D.
O7           -0.672131    0.974535   -0.192361 /Angstrom
O8            4.388932    0.583451   -0.722315 /Angstrom
END OF BASIS
BASIS SET
H.ANO-S...2S1P.
H9           -1.230529   -1.446418    1.058863 /Angstrom
H10          -1.416011   -1.555902   -0.708520 /Angstrom
H11           0.040085   -2.273983    0.083106 /Angstrom
H12           1.861650   -0.934863    0.151776 /Angstrom
H13           1.423800    1.979949   -0.280864 /Angstrom
H14           2.589064    1.368445    0.952391 /Angstrom
H15           2.059105    1.841620   -2.494689 /Angstrom
H16           3.565182    0.699944   -4.215815 /Angstrom
H17           4.143617    2.372306   -3.870989 /Angstrom
H18           4.876977    0.968296   -3.006947 /Angstrom
END OF BASIS
END OF INPUT

&RASSCF
TITLE
orca_geometry_optimisation_225_90_BP86_def2-SVP_def2J_scf_cas1_ras12i11
LUMORB
SPIN
1
SYMMETRY
1
NACTEL
12  0  0
INACTIVE
29
DELETED  ! delete Rydberg orbitals from an initial CAS(12,11) if done
3
FROZEN
0
RAS2
8
ITERATIONS
64 25
CIROOT
7 7
1 2 3 4 5 6 7
1 1 1 1 1 1 1
LEVSHFT
0.3
CIMX
20
FILEorb = /home/pcaah4/outputs/cas1_ras12i11_rasorb_files/orca_geometry_optimisation_225_90_BP86_def2-SVP_def2J_scf_cas1_ras12i11.RasOrb
ALTEr
4
 1 36 39
 1 38 210
 1 39 211
 1 40 212
END OF INPUT

&RASSI
NROF JOBIPH
    1 7
    1 2 3 5 4 6 7
TOFILE
TRDI
TDMN
1.0D-6
END OF INPUT

&CASPT2
TITLE
orca_geometry_optimisation_225_90_BP86_def2-SVP_def2J_scf_cas1_ras12i11
MULTISTATE
7 1 2 3 4 5 6 7
SHIFT
0.35
MAXITER
50
END OF INPUT

-- ----------------------------------

--- Start Module: seward at Wed Nov 13 20:45:34 2024 ---
 
()()()()()()()()()()()()()()()()()()()()()()()()()()()()()()()()()()()()()()()()()()()()()()()()()()

                                              &SEWARD

                                   only a single process is used
                       available to each process: 2.0 GB of memory, 1 thread
                                            pid: 1799493
()()()()()()()()()()()()()()()()()()()()()()()()()()()()()()()()()()()()()()()()()()()()()()()()()()
 
               SEWARD will generate:
                  Multipole Moment integrals up to order  2
                  Kinetic Energy integrals
                  Nuclear Attraction integrals (point charge)
                  One-Electron Hamiltonian integrals
                  Velocity integrals
                  Orbital angular momentum around ( 0.0000  0.0000  0.0000 )
                  Velocity quadrupole around ( 3.5272  1.0646 -1.6488 )
                  Two-Electron Repulsion integrals
 
 Title:
            orca_geometry_optimisation_225_90_BP86_def2-SVP_def2J_scf_cas1_ras12i11     
 
 
                   Integrals are discarded if absolute value <: 0.10E-13
                   Integral cutoff threshold is set to       <: 0.10E-15
 
++    Symmetry information:
      ---------------------
 
                    Character Table for C1 
 
                             E  
                    a        1  x, y, xy, Rz, z, xz, Ry, yz, Rx, I
--
 
 
++    Basis set information:
      ----------------------
 
 
      Basis set label: C.ANO-S...4S3P1D......
 
      Electronic valence basis set:
      ------------------
      Associated Effective Charge   6.000000 au
      Associated Actual Charge      6.000000 au
      Nuclear Model: Point charge
 
      Shell  nPrim  nBasis  Cartesian Spherical Contaminant
         s      10       4        X                  
         p       6       3        X                  
         d       3       1                 X         
 
 
      Basis set label: N.ANO-S...4S3P1D......
 
      Electronic valence basis set:
      ------------------
      Associated Effective Charge   7.000000 au
      Associated Actual Charge      7.000000 au
      Nuclear Model: Point charge
 
      Shell  nPrim  nBasis  Cartesian Spherical Contaminant
         s      10       4        X                  
         p       6       3        X                  
         d       3       1                 X         
 
 
      Basis set label: O.ANO-S...4S3P1D......
 
      Electronic valence basis set:
      ------------------
      Associated Effective Charge   8.000000 au
      Associated Actual Charge      8.000000 au
      Nuclear Model: Point charge
 
      Shell  nPrim  nBasis  Cartesian Spherical Contaminant
         s      10       4        X                  
         p       6       3        X                  
         d       3       1                 X         
 
 
      Basis set label: H.ANO-S...2S1P......
 
      Electronic valence basis set:
      ------------------
      Associated Effective Charge   1.000000 au
      Associated Actual Charge      1.000000 au
      Nuclear Model: Point charge
 
      Shell  nPrim  nBasis  Cartesian Spherical Contaminant
         s       7       2        X                  
         p       3       1        X                  
--
 
 
++    Molecular structure info:
      -------------------------
 
                    ************************************************ 
                    **** Cartesian Coordinates / Bohr, Angstrom **** 
                    ************************************************ 
 
     Center  Label                x              y              z                     x              y              z
        1      C1              -0.031523      -0.108846      -0.101034             -0.016681      -0.057599      -0.053465
        2      C3               4.041862       2.204367      -0.082099              2.138861       1.166501      -0.043445
        3      C4               6.237880       2.004848      -1.975106              3.300944       1.060920      -1.045181
        4      C6               7.436898       2.607102      -6.459305              3.935437       1.379619      -3.418117
        5      C19             -1.269703      -2.693737       0.191212             -0.671898      -1.425464       0.101185
        6      N2               2.573937      -0.119782      -0.065572              1.362069      -0.063386      -0.034699
        7      N5               5.663866       2.795315      -4.377547              2.997189       1.479217      -2.316498
        8      O7              -1.270144       1.841604      -0.363510             -0.672131       0.974535      -0.192361
        9      O8               8.293879       1.102563      -1.364978              4.388932       0.583451      -0.722315
       10      H9              -2.325363      -2.733334       2.000961             -1.230529      -1.446418       1.058863
       11      H10             -2.675873      -2.940229      -1.338909             -1.416011      -1.555902      -0.708520
       12      H11              0.075750      -4.297205       0.157048              0.040085      -2.273983       0.083106
       13      H12              3.518009      -1.766635       0.286815              1.861650      -0.934863       0.151776
       14      H13              2.690592       3.741561      -0.530756              1.423800       1.979949      -0.280864
       15      H14              4.892622       2.585986       1.799758              2.589064       1.368445       0.952391
       16      H15              3.891145       3.480157      -4.714279              2.059105       1.841620      -2.494689
       17      H16              6.737218       1.322702      -7.966736              3.565182       0.699944      -4.215815
       18      H17              7.830301       4.483009      -7.315109              4.143617       2.372306      -3.870989
       19      H18              9.216151       1.829814      -5.682306              4.876977       0.968296      -3.006947
 
                    ************************************************* 
                    **** InterNuclear Distances / Bohr, Angstrom **** 
                    ************************************************* 
 
     Atom centers         Bohr        Angstrom
   16 H15       7 N5      1.930010        1.021318
   13 H12       6 N2      1.930692        1.021678
   19 H18       4 C6      2.091326        1.106682
   11 H10       5 C19     2.092688        1.107403
   12 H11       5 C19     2.093447        1.107805
   14 H13       2 C3      2.095277        1.108773
   10 H9        5 C19     2.095514        1.108898
   18 H17       4 C6      2.099093        1.110792
   15 H14       2 C3      2.100194        1.111375
   17 H16       4 C6      2.100377        1.111472
    8 O7        1 C1      2.325367        1.230531
    9 O8        3 C4      2.326695        1.231234
    7 N5        3 C4      2.593463        1.372402
    6 N2        1 C1      2.605724        1.378890
    7 N5        4 C6      2.740946        1.450446
    6 N2        2 C3      2.748954        1.454684
    5 C19       1 C1      2.880999        1.524559
    3 C4        2 C3      2.906162        1.537875
   11 H10      10 H9      3.364579        1.780459
   18 H17      17 H16     3.406902        1.802855
   12 H11      10 H9      3.407499        1.803171
   15 H14      14 H13     3.408165        1.803523
   19 H18      17 H16     3.408943        1.803935
   19 H18      18 H17     3.409701        1.804336
   12 H11      11 H10     3.413312        1.806247
   14 H13       6 N2      3.891013        2.059035
   16 H15       3 C4      3.897021        2.062215
   19 H18       7 N5      3.905549        2.066728
   13 H12       1 C1      3.936732        2.083229
   18 H17       7 N5      4.021321        2.127991
   15 H14       6 N2      4.022056        2.128380
   13 H12       2 C3      4.022360        2.128541
   17 H16       7 N5      4.025289        2.130091
   16 H15       4 C6      4.047185        2.141678
   15 H14       3 C4      4.049326        2.142811
   11 H10       1 C1      4.067143        2.152239
   10 H9        1 C1      4.070384        2.153954
   12 H11       1 C1      4.197673        2.221313
   14 H13       3 C4      4.205422        2.225413
   13 H12      12 H11     4.274315        2.261870
    8 O7        6 N2      4.325825        2.289128
    9 O8        7 N5      4.342574        2.297991
   16 H15      14 H13     4.360220        2.307329
   14 H13       8 O7      4.396048        2.326288
   19 H18       9 O8      4.474238        2.367665
    8 O7        5 C19     4.569139        2.417884
    9 O8        2 C3      4.575960        2.421494
    7 N5        2 C3      4.629362        2.449753
    6 N2        5 C19     4.633007        2.451682
    6 N2        3 C4      4.645950        2.458531
    4 C6        3 C4      4.680641        2.476888
    2 C3        1 C1      4.684418        2.478887
   14 H13       1 C1      4.734998        2.505653
   19 H18       3 C4      4.758578        2.518131
   16 H15       2 C3      4.807020        2.543766
   15 H14      13 H12     4.808729        2.544670
   18 H17      16 H15     4.825659        2.553629
   17 H16      16 H15     4.830447        2.556163
   12 H11       6 N2      4.872511        2.578422
   15 H14       9 O8      4.876951        2.580771
   13 H12       5 C19     4.877586        2.581107
   14 H13       7 N5      4.953134        2.621086
   11 H10       8 O7      5.078721        2.687543
   13 H12       3 C4      5.170887        2.736316
   10 H9        8 O7      5.256831        2.781795
    8 O7        2 C3      5.331809        2.821472
    9 O8        4 C6      5.380542        2.847260
   14 H13      13 H12     5.629677        2.979097
   19 H18      16 H15     5.658304        2.994245
--
 
 
            Nuclear Potential Energy            449.24565284 au
 
 
      Basis set specifications :
      Symmetry species         a  
      Basis functions          212
 
 
      Input file to MOLDEN was generated!
 
--- Stop Module: seward at Wed Nov 13 20:47:23 2024 /rc=_RC_ALL_IS_WELL_ ---
*** files: orca_geometry_optimisation_225_90_BP86_def2-SVP_def2J_scf_cas1_ras12i11_cas2_ras12i8.GssOrb
           orca_geometry_optimisation_225_90_BP86_def2-SVP_def2J_scf_cas1_ras12i11_cas2_ras12i8.guessorb.molden xmldump
    saved to directory /home/pcaah4
--- Module seward spent 1 minute 48 seconds ---

*** symbolic link created: INPORB -> orca_geometry_optimisation_225_90_BP86_def2-SVP_def2J_scf_cas1_ras12i11_cas2_ras12i8.GssOrb
--- Start Module: rasscf at Wed Nov 13 20:47:23 2024 ---
 
()()()()()()()()()()()()()()()()()()()()()()()()()()()()()()()()()()()()()()()()()()()()()()()()()()

                                              &RASSCF

                                   only a single process is used
                       available to each process: 2.0 GB of memory, 1 thread
                                            pid: 1799888
()()()()()()()()()()()()()()()()()()()()()()()()()()()()()()()()()()()()()()()()()()()()()()()()()()
 
 
      Header of the ONEINT file:
      --------------------------
      orca_geometry_optimisation_225_90_BP86_def2-SVP_def2J_scf_cas1_ras12i11
      Integrals generated by Gateway/Seward, Wed Nov 13 20:45:34 2024
 
 
      OrdInt status: non-squared
 
 
      Cartesian coordinates in Angstrom:
      -----------------------------------------------------
      No.  Label        X            Y            Z        
      -----------------------------------------------------
       1   C1        -0.01668100  -0.05759900  -0.05346500
       2   C3         2.13886100   1.16650100  -0.04344500
       3   C4         3.30094400   1.06092000  -1.04518100
       4   C6         3.93543700   1.37961900  -3.41811700
       5   C19       -0.67189800  -1.42546400   0.10118500
       6   N2         1.36206900  -0.06338600  -0.03469900
       7   N5         2.99718900   1.47921700  -2.31649800
       8   O7        -0.67213100   0.97453500  -0.19236100
       9   O8         4.38893200   0.58345100  -0.72231500
      10   H9        -1.23052900  -1.44641800   1.05886300
      11   H10       -1.41601100  -1.55590200  -0.70852000
      12   H11        0.04008500  -2.27398300   0.08310600
      13   H12        1.86165000  -0.93486300   0.15177600
      14   H13        1.42380000   1.97994900  -0.28086400
      15   H14        2.58906400   1.36844500   0.95239100
      16   H15        2.05910500   1.84162000  -2.49468900
      17   H16        3.56518200   0.69994400  -4.21581500
      18   H17        4.14361700   2.37230600  -3.87098900
      19   H18        4.87697700   0.96829600  -3.00694700
      -----------------------------------------------------
      Nuclear repulsion energy =  449.24565284
 
++    Wave function specifications:
      -----------------------------
 
      Number of closed shell electrons          58
      Number of electrons in active shells      12
      Max number of holes in RAS1 space          0
      Max nr of electrons in RAS3 space          0
      Number of inactive orbitals               29
      Number of active orbitals                  8
      Number of secondary orbitals             172
      Spin quantum number                      0.0
      State symmetry                             1
--
 
++    Orbital specifications:
      -----------------------
 
      Symmetry species                           1
                                                 a
      Frozen orbitals                            0
      Inactive orbitals                         29
      Active orbitals                            8
      RAS1 orbitals                              0
      RAS2 orbitals                              8
      RAS3 orbitals                              0
      Secondary orbitals                       172
      Deleted orbitals                           3
      Number of basis functions                212
--
 
++    CI expansion specifications:
      ----------------------------
 
      Number of CSFs                           336
      Number of determinants                   406
      Number of root(s) required                 7
      Root chosen for geometry opt.              7
      CI roots used                              1     2     3     4     5     6     7
      weights                                0.143 0.143 0.143 0.143 0.143 0.143 0.143
      highest root included in the CI            7
      max. size of the explicit Hamiltonian    200
--
 
++    Optimization specifications:
      ----------------------------
 
      RASSCF algorithm: Conventional
      Maximum number of macro iterations        64
      Maximum number of SX iterations           25
      Threshold for RASSCF energy            0.100E-07
      Threshold for max MO rotation          0.100E+00
      Threshold for max BLB element          0.100E-03
      Level shift parameter                  0.300E+00
      Make Quasi-Newton update
--
 
      The MO-coefficients are taken from the file:
      /home/pcaah4/outputs/cas1_ras12i11_rasorb_files/orca_geometry_optimisation_225_90_BP86_def2-SVP_def2J_scf_cas1_ras12i11.RasOrb                                                                                                                                  
      Title: RASSCF average (pseudo-natural) orbitals                                      
 
      Total molecular charge    0.00
 
      Molecular orbitals exchanged:
        In symmetry  1 :  36  39
        In symmetry  1 :  38 210
        In symmetry  1 :  39 211
        In symmetry  1 :  40 212
 
 
      ************************************************************************************************************************
      *                                                                                                                      *
      *                                            Wave function control section                                             *
      *                                                                                                                      *
      ************************************************************************************************************************
 
 
                                         RASSCF iterations: Energy and convergence statistics
                                         ----------------------------------------------------
 
      Iter CI   SX   CI       RASSCF       Energy    max ROT     max BLB   max BLB  Level Ln srch  Step   QN   Walltime
          iter iter root      energy       change     param      element    value   shift minimum  type update hh:mm:ss
 Nr of preliminary CI iterations:   5
        1   1   16    0  -453.70212419    0.00E+00  -0.25E-01   35 143 1  0.12E-01*  0.17   0.00    SX    NO    0:00:13
        2   3    8    0  -453.70550016   -0.34E-02* -0.13E-01   11  40 1 -0.30E-02*  0.17   0.00    SX    NO    0:00:06
        3   1    8    0  -453.70577940   -0.28E-03* -0.49E-02   21  68 1  0.20E-02*  0.18   0.00    SX    NO    0:00:06
        4   5    7    0  -453.70590687   -0.13E-03* -0.40E-02   30 114 1  0.52E-03*  0.18   0.00    SX    NO    0:00:06
        5   3    7    0  -453.70593429   -0.27E-04* -0.45E-02   21  68 1  0.45E-03*  0.18   1.33    QN   YES    0:00:06
        6   4    7    0  -453.70594759   -0.13E-04* -0.73E-03   30 114 1 -0.20E-03*  0.18   1.01    QN   YES    0:00:06
        7   3    6    0  -453.70594862   -0.10E-05* -0.90E-03   22  97 1 -0.14E-03*  0.18   1.33    QN   YES    0:00:06
        8   5    6    0  -453.70594913   -0.50E-06*  0.19E-03   35 114 1  0.52E-04   0.18   0.94    QN   YES    0:00:06
        9   3    5    0  -453.70594923   -0.99E-07*  0.25E-03   22  97 1 -0.22E-04   0.18   1.57    QN   YES    0:00:06
       10   3    5    0  -453.70594926   -0.37E-07* -0.69E-04   13 209 1 -0.77E-05   0.18   1.04    QN   YES    0:00:06
       11   1    5    0  -453.70594927   -0.49E-08  -0.74E-04   36  41 1 -0.40E-05   0.18   1.80    QN   YES    0:00:06
      Convergence after 11 iterations
       12   1    5    0  -453.70594927   -0.18E-08  -0.74E-04   23  86 1 -0.12E-05   0.18   1.80    QN   YES    0:00:06
 
      ************************************************************************************************************************
                                                      Wave function printout:
                       occupation of active orbitals, and spin coupling of open shells (u,d: Spin up or down)
      ************************************************************************************************************************
 
      Note: transformation to natural orbitals
      has been made, which may change the order of the CSFs.
 
      printout of CI-coefficients larger than  0.05 for root  1
      energy=    -453.958434
      conf/sym  11111111     Coeff  Weight
             1  22222200   0.96316 0.92767
             4  22222020  -0.08575 0.00735
            24  222u220d   0.13974 0.01953
            64  2u22220d  -0.07616 0.00580
            81  u22222d0   0.08688 0.00755
           105  22202202  -0.07483 0.00560
           125  2u2d2202   0.06053 0.00366
           175  20222202  -0.09753 0.00951
           191  02222220  -0.07729 0.00597
 
      printout of CI-coefficients larger than  0.05 for root  2
      energy=    -453.745517
      conf/sym  11111111     Coeff  Weight
             3  2222u2d0   0.13277 0.01763
             8  2222u20d  -0.95372 0.90959
            13  2222u02d   0.08340 0.00696
            34  222ud202   0.08465 0.00717
            54  22u2d202  -0.06078 0.00369
            74  2u22d202  -0.18251 0.03331
            88  u222u2dd   0.07139 0.00510
           194  0222u22d  -0.07762 0.00603
 
      printout of CI-coefficients larger than  0.05 for root  3
      energy=    -453.738599
      conf/sym  11111111     Coeff  Weight
            21  222u22d0   0.26159 0.06843
            41  22u222d0   0.91084 0.82964
            42  22u22d20  -0.17520 0.03069
           112  22ud22ud   0.06191 0.00383
           161  u2d22220  -0.12975 0.01683
           201  22uu22dd  -0.10399 0.01081
           219  2uu222dd  -0.06360 0.00404
           238  22u022d2   0.07811 0.00610
           294  20u222d2  -0.09117 0.00831
 
      printout of CI-coefficients larger than  0.05 for root  4
      energy=    -453.648165
      conf/sym  11111111     Coeff  Weight
             1  22222200   0.05696 0.00324
             2  22222ud0  -0.75850 0.57532
             3  2222u2d0   0.06218 0.00387
             4  22222020  -0.06834 0.00467
            21  222u22d0   0.41787 0.17461
            22  222u2d20   0.05646 0.00319
            24  222u220d  -0.31361 0.09835
            27  222u2udd  -0.07891 0.00623
            41  22u222d0  -0.16428 0.02699
            67  2u222udd   0.05504 0.00303
            81  u22222d0   0.09901 0.00980
            82  u2222d20   0.17847 0.03185
           105  22202202  -0.06992 0.00489
           106  22202ud2   0.06468 0.00418
           122  2u2d22ud   0.05739 0.00329
           125  2u2d2202  -0.08041 0.00647
           176  20222ud2   0.07412 0.00549
           207  2u2u22dd  -0.07690 0.00591
           262  202u22d2  -0.05285 0.00279
 
      printout of CI-coefficients larger than  0.05 for root  5
      energy=    -453.633949
      conf/sym  11111111     Coeff  Weight
             1  22222200   0.07726 0.00597
             2  22222ud0   0.54912 0.30154
             3  2222u2d0   0.15630 0.02443
            21  222u22d0   0.48153 0.23187
            24  222u220d  -0.54417 0.29612
            26  222ud2ud  -0.05026 0.00253
            27  222u2udd   0.05201 0.00270
            28  222uu2dd  -0.06895 0.00475
            29  222u202d   0.05187 0.00269
            41  22u222d0  -0.12993 0.01688
            82  u2222d20  -0.14564 0.02121
           105  22202202  -0.11278 0.01272
           122  2u2d22ud   0.08187 0.00670
           125  2u2d2202  -0.14161 0.02005
           175  20222202   0.06114 0.00374
           176  20222ud2  -0.05371 0.00289
           207  2u2u22dd  -0.09572 0.00916
           213  u22u22dd   0.05689 0.00324
           262  202u22d2  -0.06155 0.00379
 
      printout of CI-coefficients larger than  0.05 for root  6
      energy=    -453.621184
      conf/sym  11111111     Coeff  Weight
             1  22222200  -0.06797 0.00462
             2  22222ud0   0.10167 0.01034
             3  2222u2d0  -0.40352 0.16283
             8  2222u20d  -0.05120 0.00262
            21  222u22d0   0.62798 0.39436
            24  222u220d   0.52422 0.27481
            26  222ud2ud   0.09900 0.00980
            28  222uu2dd   0.14065 0.01978
            41  22u222d0  -0.13924 0.01939
           105  22202202   0.08861 0.00785
           122  2u2d22ud   0.10331 0.01067
           125  2u2d2202   0.13562 0.01839
           207  2u2u22dd  -0.15693 0.02463
           262  202u22d2  -0.09584 0.00919
 
      printout of CI-coefficients larger than  0.05 for root  7
      energy=    -453.595797
      conf/sym  11111111     Coeff  Weight
             1  22222200   0.05328 0.00284
             3  2222u2d0  -0.76683 0.58802
             8  2222u20d  -0.11427 0.01306
            21  222u22d0  -0.18714 0.03502
            24  222u220d  -0.40179 0.16144
            26  222ud2ud   0.19890 0.03956
            28  222uu2dd   0.27457 0.07539
            41  22u222d0   0.06730 0.00453
            44  22u2220d   0.05473 0.00300
            46  22u2d2ud   0.07969 0.00635
            48  22u2u2dd   0.07737 0.00599
            81  u22222d0   0.07490 0.00561
           105  22202202  -0.09792 0.00959
           125  2u2d2202  -0.09907 0.00982
           127  2u2du2d2   0.07837 0.00614
           177  2022u2d2   0.06681 0.00446
 
      Natural orbitals and occupation numbers for root  1
      sym 1:   1.969808   1.995583   1.999846   1.956380   1.999554   1.994788   0.035824   0.048216
 
      Natural orbitals and occupation numbers for root  2
      sym 1:   1.970000   1.999847   1.999324   1.999544   1.005895   1.995243   0.035496   0.994651
 
      Natural orbitals and occupation numbers for root  3
      sym 1:   1.999827   1.993227   1.005545   1.955928   1.999071   1.998507   0.997952   0.049943
 
      Natural orbitals and occupation numbers for root  4
      sym 1:   1.966839   1.955579   1.999027   1.873645   1.998732   1.154255   0.894796   0.157127
 
      Natural orbitals and occupation numbers for root  5
      sym 1:   1.973661   1.937755   1.998017   1.186789   1.991008   1.808197   0.858968   0.245606
 
      Natural orbitals and occupation numbers for root  6
      sym 1:   1.998347   1.949060   1.991543   1.105523   1.901591   1.986037   0.901952   0.165947
 
      Natural orbitals and occupation numbers for root  7
      sym 1:   1.997627   1.971382   1.991840   1.785216   1.311205   1.983145   0.705613   0.253974
 
      ************************************************************************************************************************
      *                                                                                                                      *
      *                                                    Final results                                                     *
      *                                                                                                                      *
      ************************************************************************************************************************
 
 
++    Wave function specifications:
      -----------------------------
 
      Number of closed shell electrons          58
      Number of electrons in active shells      12
      Max number of holes in RAS1 space          0
      Max nr of electrons in RAS3 space          0
      Number of inactive orbitals               29
      Number of active orbitals                  8
      Number of secondary orbitals             172
      Spin quantum number                      0.0
      State symmetry                             1
--
 
++    Orbital specifications:
      -----------------------
 
      Symmetry species                           1
                                                 a
      Frozen orbitals                            0
      Inactive orbitals                         29
      Active orbitals                            8
      RAS1 orbitals                              0
      RAS2 orbitals                              8
      RAS3 orbitals                              0
      Secondary orbitals                       172
      Deleted orbitals                           3
      Number of basis functions                212
--
 
++    CI expansion specifications:
      ----------------------------
 
      Number of CSFs                           336
      Number of determinants                   406
      Number of root(s) required                 7
      CI roots used                              1     2     3     4     5     6     7
      weights                                0.143 0.143 0.143 0.143 0.143 0.143 0.143
      highest root included in the CI            7
      Root passed to geometry opt.               7
--
 
++    Final optimization conditions:
      ------------------------------
 
      Average CI energy                            -453.70594927
      RASSCF energy for state  7                   -453.59579672
      Super-CI energy                                -0.00000000
      RASSCF energy change                            0.00000000
      Max change in MO coefficients              -0.568E-04
      Max non-diagonal density matrix element    -0.742E-04
      Maximum BLB matrix element                 -0.121E-05
      (orbital pair  23,  86 in symmetry   1)
      Norm of electronic gradient            0.250E+00
--
 
 
      Final state energy(ies):
      ------------------------
 
::    RASSCF root number  1 Total energy:   -453.95843446
::    RASSCF root number  2 Total energy:   -453.74551735
::    RASSCF root number  3 Total energy:   -453.73859878
::    RASSCF root number  4 Total energy:   -453.64816475
::    RASSCF root number  5 Total energy:   -453.63394886
::    RASSCF root number  6 Total energy:   -453.62118397
::    RASSCF root number  7 Total energy:   -453.59579672
 
++    Molecular orbitals:
      -------------------
 
      Pseudonatural active orbitals and approximate occupation numbers
 
 
 
 
      Molecular orbitals for symmetry species 1: a  
 
 
      Orbital                 1         2         3         4         5         6         7         8         9        10
      Energy           -20.6105  -20.5170  -15.6398  -15.5811  -11.3453  -11.2873  -11.2861  -11.2622  -11.2604   -1.4303
      Occ. No.           2.0000    2.0000    2.0000    2.0000    2.0000    2.0000    2.0000    2.0000    2.0000    2.0000
 
     1 C1     1s        -0.0003   -0.0001    0.0002   -0.0001    0.9999    0.0001   -0.0001    0.0037   -0.0001   -0.0387
     2 C1     2s        -0.0009   -0.0007    0.0007   -0.0004    0.0019   -0.0007   -0.0000    0.0005   -0.0004    0.3552
     3 C1     3s         0.0005   -0.0006    0.0001   -0.0003   -0.0004   -0.0007   -0.0001    0.0008   -0.0004   -0.0029
     4 C1     4s         0.0004   -0.0002   -0.0000   -0.0001    0.0012   -0.0003   -0.0000    0.0002   -0.0001    0.0040
     5 C1     2px        0.0013   -0.0005    0.0017   -0.0005    0.0014    0.0001   -0.0003    0.0004   -0.0002   -0.0435
     6 C1     3px        0.0008   -0.0003    0.0012   -0.0006    0.0015   -0.0002   -0.0005   -0.0001   -0.0003    0.0254
     7 C1     4px       -0.0001    0.0001   -0.0001   -0.0001    0.0005   -0.0003   -0.0001   -0.0002   -0.0001   -0.0135
     8 C1     2py       -0.0031   -0.0002    0.0001   -0.0001    0.0012    0.0000   -0.0004    0.0006   -0.0001    0.0963
     9 C1     3py       -0.0021   -0.0004    0.0001   -0.0001    0.0011   -0.0004   -0.0003   -0.0002   -0.0001   -0.0694
    10 C1     4py        0.0004   -0.0001    0.0001   -0.0000    0.0007   -0.0004    0.0000   -0.0003   -0.0000    0.0229
    11 C1     2pz        0.0004   -0.0002    0.0001   -0.0001   -0.0002   -0.0000    0.0001   -0.0000    0.0000   -0.0110
    12 C1     3pz        0.0003   -0.0003    0.0001   -0.0001   -0.0001   -0.0000    0.0000    0.0001    0.0000    0.0088
    13 C1     4pz       -0.0001   -0.0001   -0.0000   -0.0000   -0.0001    0.0000   -0.0000    0.0000    0.0000   -0.0035
    14 C1     3d2-      -0.0001    0.0000    0.0001    0.0000   -0.0004   -0.0000   -0.0000   -0.0001    0.0000   -0.0325
    15 C1     3d1-      -0.0000   -0.0000    0.0000    0.0000   -0.0001    0.0000    0.0000   -0.0000    0.0000   -0.0079
    16 C1     3d0        0.0000    0.0000    0.0001    0.0000   -0.0004   -0.0001    0.0000   -0.0001    0.0000   -0.0270
    17 C1     3d1+       0.0000   -0.0000    0.0000   -0.0000    0.0001    0.0000    0.0000    0.0000   -0.0000    0.0048
    18 C1     3d2+      -0.0001   -0.0000   -0.0002   -0.0000   -0.0000    0.0000    0.0000    0.0000    0.0000   -0.0113
    19 C3     1s        -0.0001    0.0002    0.0003    0.0001   -0.0002    0.9698   -0.2413   -0.0000    0.0000   -0.0084
    20 C3     2s        -0.0007    0.0011    0.0014    0.0010    0.0000   -0.0021   -0.0003   -0.0006    0.0006    0.0186
    21 C3     3s        -0.0005    0.0008    0.0007    0.0007   -0.0000   -0.0031   -0.0001   -0.0003    0.0003   -0.0165
    22 C3     4s        -0.0001    0.0001    0.0002    0.0001   -0.0001    0.0006   -0.0003   -0.0000    0.0000   -0.0019
    23 C3     2px       -0.0001   -0.0005   -0.0004    0.0004    0.0007   -0.0010    0.0003   -0.0002   -0.0002   -0.0212
    24 C3     3px       -0.0003   -0.0007    0.0001    0.0004    0.0012   -0.0011   -0.0002   -0.0004   -0.0005   -0.0107
    25 C3     4px       -0.0002   -0.0002    0.0002   -0.0000    0.0004   -0.0006    0.0000   -0.0001   -0.0002   -0.0062
    26 C3     2py        0.0002   -0.0000   -0.0007   -0.0005    0.0002    0.0000    0.0003    0.0000   -0.0000   -0.0162
    27 C3     3py        0.0001    0.0000   -0.0002   -0.0003    0.0003    0.0001    0.0001   -0.0001   -0.0000   -0.0032
    28 C3     4py       -0.0000    0.0000    0.0002    0.0001    0.0001   -0.0008    0.0001   -0.0001   -0.0000   -0.0044
    29 C3     2pz        0.0002   -0.0004   -0.0005    0.0004   -0.0006   -0.0002    0.0001    0.0001   -0.0006    0.0096
    30 C3     3pz        0.0001   -0.0002   -0.0008    0.0004   -0.0008   -0.0003    0.0005    0.0001   -0.0006    0.0146
    31 C3     4pz       -0.0000    0.0002   -0.0002    0.0001   -0.0001   -0.0002    0.0001    0.0000   -0.0000    0.0023
    32 C3     3d2-      -0.0000    0.0000    0.0000   -0.0000    0.0000   -0.0001   -0.0000   -0.0000   -0.0000    0.0034
    33 C3     3d1-       0.0000   -0.0001   -0.0000   -0.0000   -0.0000   -0.0000    0.0000    0.0000    0.0000    0.0000
    34 C3     3d0        0.0000    0.0001    0.0001    0.0000   -0.0001    0.0000   -0.0001    0.0000    0.0000   -0.0021
    35 C3     3d1+      -0.0000   -0.0000   -0.0000    0.0000    0.0000    0.0001   -0.0000   -0.0000   -0.0001   -0.0004
    36 C3     3d2+       0.0000   -0.0000    0.0001    0.0000    0.0000    0.0001   -0.0000    0.0000    0.0000   -0.0003
    37 C4     1s         0.0000    0.0004    0.0000    0.0002   -0.0001    0.2414    0.9704    0.0001    0.0003    0.0002
    38 C4     2s         0.0001    0.0015    0.0001    0.0009   -0.0010    0.0015    0.0023    0.0004   -0.0003    0.0248
    39 C4     3s         0.0001    0.0000    0.0002    0.0004   -0.0008    0.0004    0.0001    0.0003   -0.0003    0.0078
    40 C4     4s         0.0001   -0.0002    0.0000    0.0001   -0.0003    0.0004    0.0013    0.0001   -0.0001    0.0028
    41 C4     2px        0.0001    0.0028   -0.0005   -0.0003   -0.0000   -0.0008    0.0001   -0.0002    0.0002    0.0009
    42 C4     3px        0.0000    0.0018   -0.0005   -0.0002    0.0000   -0.0002    0.0000   -0.0002   -0.0002    0.0015
    43 C4     4px       -0.0000   -0.0004    0.0000   -0.0000    0.0000    0.0002    0.0001   -0.0000   -0.0003   -0.0008
    44 C4     2py       -0.0000   -0.0013    0.0002    0.0003   -0.0001    0.0003   -0.0000    0.0002   -0.0001   -0.0000
    45 C4     3py        0.0000   -0.0010    0.0001    0.0002   -0.0003    0.0005   -0.0001    0.0002   -0.0002    0.0060
    46 C4     4py        0.0000    0.0001   -0.0001   -0.0001   -0.0001    0.0002   -0.0001    0.0001   -0.0000    0.0018
    47 C4     2pz        0.0003    0.0007    0.0000   -0.0016   -0.0001    0.0012   -0.0010    0.0001    0.0004    0.0041
    48 C4     3pz        0.0005    0.0007    0.0003   -0.0012   -0.0002    0.0011   -0.0006    0.0001    0.0011    0.0033
    49 C4     4pz        0.0001    0.0000    0.0002    0.0001   -0.0000   -0.0000   -0.0004    0.0000    0.0005    0.0013
    50 C4     3d2-      -0.0000    0.0000    0.0001    0.0001   -0.0000   -0.0000   -0.0003   -0.0000   -0.0000   -0.0008
    51 C4     3d1-      -0.0000   -0.0000    0.0000    0.0001    0.0000   -0.0000   -0.0002   -0.0000   -0.0000   -0.0007
    52 C4     3d0       -0.0000    0.0001    0.0000   -0.0001   -0.0000   -0.0000    0.0000    0.0000    0.0001   -0.0000
    53 C4     3d1+       0.0000   -0.0001   -0.0000   -0.0002   -0.0000   -0.0000    0.0003    0.0000    0.0000    0.0005
    54 C4     3d2+      -0.0000   -0.0000   -0.0000   -0.0000   -0.0000    0.0001    0.0002    0.0000    0.0000    0.0011
    55 C6     1s         0.0000    0.0001   -0.0002    0.0003   -0.0001   -0.0001   -0.0004    0.0000    0.9997    0.0018
    56 C6     2s         0.0004    0.0008   -0.0010    0.0014   -0.0009   -0.0002   -0.0001    0.0001   -0.0000    0.0156
    57 C6     3s         0.0003    0.0006   -0.0007    0.0003   -0.0007   -0.0002   -0.0002    0.0001   -0.0016    0.0120
    58 C6     4s         0.0001    0.0001   -0.0002   -0.0001   -0.0002   -0.0001   -0.0002    0.0000    0.0009    0.0036
    59 C6     2px       -0.0001   -0.0001    0.0002   -0.0004    0.0002   -0.0002    0.0001   -0.0001   -0.0001   -0.0050
    60 C6     3px       -0.0001   -0.0001    0.0002    0.0001    0.0002   -0.0001    0.0000   -0.0001    0.0002   -0.0044
    61 C6     4px        0.0000   -0.0000   -0.0000    0.0001    0.0000    0.0000   -0.0000    0.0000   -0.0004   -0.0001
    62 C6     2py       -0.0001    0.0001   -0.0002    0.0002   -0.0002   -0.0002    0.0002   -0.0000    0.0000    0.0016
    63 C6     3py       -0.0000    0.0001   -0.0002    0.0002   -0.0001   -0.0002    0.0002   -0.0000   -0.0001    0.0011
    64 C6     4py        0.0000    0.0000    0.0000    0.0000    0.0000   -0.0000    0.0001   -0.0000    0.0000   -0.0003
    65 C6     2pz        0.0001    0.0004   -0.0002    0.0003   -0.0003   -0.0000   -0.0004    0.0000   -0.0001    0.0053
    66 C6     3pz        0.0001    0.0004   -0.0002   -0.0002   -0.0003   -0.0001   -0.0005    0.0000   -0.0002    0.0052
    67 C6     4pz        0.0000   -0.0000   -0.0000   -0.0002   -0.0000   -0.0001   -0.0001    0.0000    0.0005    0.0008
    68 C6     3d2-       0.0000   -0.0000    0.0000    0.0001    0.0000   -0.0000    0.0000    0.0000    0.0000    0.0000
    69 C6     3d1-       0.0000   -0.0000   -0.0000    0.0000    0.0000    0.0000   -0.0000    0.0000   -0.0000   -0.0000
    70 C6     3d0        0.0000    0.0000    0.0000   -0.0000    0.0000    0.0000    0.0001    0.0000    0.0000    0.0000
    71 C6     3d1+      -0.0000   -0.0000    0.0000    0.0001    0.0000   -0.0000    0.0000   -0.0000    0.0001   -0.0004
    72 C6     3d2+       0.0000    0.0000    0.0000   -0.0001    0.0000    0.0000   -0.0000   -0.0000   -0.0001   -0.0000
    73 C19    1s        -0.0002   -0.0001   -0.0000   -0.0000    0.0037    0.0002   -0.0000   -1.0000   -0.0000   -0.0145
    74 C19    2s        -0.0012   -0.0006   -0.0001   -0.0000    0.0007    0.0009   -0.0001   -0.0020   -0.0001   -0.0128
    75 C19    3s        -0.0007   -0.0005    0.0000   -0.0001    0.0003    0.0005   -0.0000    0.0004   -0.0001   -0.0392
    76 C19    4s        -0.0001   -0.0002   -0.0000   -0.0001    0.0002    0.0000    0.0000   -0.0013   -0.0001   -0.0037
    77 C19    2px       -0.0008   -0.0001   -0.0003    0.0000   -0.0001    0.0003    0.0001    0.0001   -0.0000   -0.0097
    78 C19    3px       -0.0005   -0.0001   -0.0003    0.0000   -0.0003    0.0002    0.0001    0.0001   -0.0000   -0.0075
    79 C19    4px        0.0002    0.0000   -0.0000    0.0000   -0.0000   -0.0000    0.0000   -0.0002    0.0000    0.0079
    80 C19    2py        0.0001   -0.0002    0.0003   -0.0002    0.0005    0.0003   -0.0001    0.0003   -0.0001    0.0211
    81 C19    3py        0.0003   -0.0001    0.0003   -0.0002   -0.0000    0.0001   -0.0001    0.0000   -0.0001   -0.0059
    82 C19    4py        0.0002    0.0000   -0.0001   -0.0000   -0.0001   -0.0001    0.0000   -0.0004   -0.0000    0.0053
    83 C19    2pz        0.0001   -0.0000   -0.0000   -0.0001   -0.0000    0.0000   -0.0000   -0.0001   -0.0001   -0.0030
    84 C19    3pz        0.0000   -0.0000    0.0000   -0.0001    0.0000    0.0000   -0.0000   -0.0000   -0.0000    0.0003
    85 C19    4pz       -0.0000    0.0000    0.0000    0.0000    0.0000    0.0000    0.0000    0.0000    0.0000   -0.0006
    86 C19    3d2-      -0.0001   -0.0000   -0.0000   -0.0000    0.0000    0.0001   -0.0000    0.0001   -0.0000    0.0008
    87 C19    3d1-      -0.0000    0.0000   -0.0000    0.0000    0.0000   -0.0000    0.0000   -0.0000    0.0000   -0.0008
    88 C19    3d0        0.0001    0.0000   -0.0001    0.0000    0.0001   -0.0000   -0.0000   -0.0001    0.0000    0.0015
    89 C19    3d1+      -0.0000    0.0000    0.0000    0.0000   -0.0000   -0.0000    0.0000   -0.0000    0.0000    0.0001
    90 C19    3d2+      -0.0001    0.0000   -0.0000    0.0000   -0.0001   -0.0000    0.0000   -0.0001    0.0000   -0.0069
    91 N2     1s        -0.0001    0.0000    0.9998   -0.0000   -0.0002    0.0001    0.0001   -0.0001    0.0000   -0.0173
    92 N2     2s        -0.0005    0.0003    0.0000   -0.0003   -0.0002    0.0016    0.0003   -0.0006    0.0000    0.1121
    93 N2     3s        -0.0004    0.0002   -0.0014   -0.0002   -0.0004    0.0009    0.0004   -0.0005    0.0000   -0.0461
    94 N2     4s        -0.0001    0.0000    0.0004   -0.0000    0.0000    0.0003    0.0001   -0.0001   -0.0000   -0.0109
    95 N2     2px       -0.0001   -0.0007    0.0003   -0.0006   -0.0003    0.0010    0.0002    0.0004   -0.0002   -0.0268
    96 N2     3px        0.0000   -0.0011    0.0002   -0.0007   -0.0001    0.0009    0.0002    0.0003   -0.0003    0.0205
    97 N2     4px        0.0000   -0.0001   -0.0002   -0.0000   -0.0002   -0.0000   -0.0001   -0.0001   -0.0001   -0.0052
    98 N2     2py        0.0015   -0.0003   -0.0008   -0.0002    0.0003    0.0009    0.0002    0.0003   -0.0001    0.0373
    99 N2     3py        0.0018   -0.0004   -0.0001   -0.0003    0.0003    0.0010    0.0002    0.0002   -0.0001    0.0142
   100 N2     4py        0.0000   -0.0000    0.0004   -0.0000   -0.0000    0.0002   -0.0001   -0.0001   -0.0000   -0.0061
   101 N2     2pz       -0.0003    0.0002    0.0003    0.0001    0.0001   -0.0000    0.0001   -0.0001    0.0001   -0.0044
   102 N2     3pz       -0.0004    0.0003   -0.0000    0.0002    0.0001   -0.0001    0.0001   -0.0001    0.0001   -0.0063
   103 N2     4pz       -0.0000    0.0001    0.0001    0.0000    0.0000   -0.0001    0.0001   -0.0000    0.0000    0.0001
   104 N2     3d2-      -0.0001   -0.0000   -0.0002   -0.0000   -0.0001   -0.0000    0.0000    0.0000   -0.0000   -0.0029
   105 N2     3d1-       0.0000    0.0000   -0.0000    0.0000    0.0000   -0.0000   -0.0000    0.0000    0.0000    0.0004
   106 N2     3d0        0.0000    0.0000   -0.0000    0.0000    0.0001    0.0001   -0.0000    0.0001   -0.0000   -0.0025
   107 N2     3d1+       0.0000    0.0000    0.0000    0.0000    0.0000   -0.0000   -0.0000   -0.0000    0.0000    0.0005
   108 N2     3d2+       0.0000   -0.0000   -0.0000   -0.0000    0.0001   -0.0000    0.0000   -0.0000   -0.0000    0.0045
   109 N5     1s        -0.0000    0.0001   -0.0000    0.9999    0.0001   -0.0000   -0.0002   -0.0000    0.0001   -0.0017
   110 N5     2s        -0.0002    0.0006   -0.0002    0.0006    0.0006    0.0003   -0.0002   -0.0002    0.0017   -0.0014
   111 N5     3s        -0.0002    0.0004   -0.0002   -0.0010    0.0004    0.0002   -0.0003   -0.0001    0.0010   -0.0055
   112 N5     4s        -0.0000    0.0001   -0.0000    0.0006    0.0001    0.0001    0.0000   -0.0000    0.0004   -0.0011
   113 N5     2px        0.0001   -0.0016    0.0006   -0.0010    0.0003    0.0004    0.0002    0.0000    0.0006   -0.0079
   114 N5     3px        0.0000   -0.0018    0.0009   -0.0006    0.0007    0.0005    0.0000    0.0000    0.0007   -0.0129
   115 N5     4px       -0.0000   -0.0000    0.0001    0.0003    0.0002    0.0001   -0.0001   -0.0000    0.0002   -0.0026
   116 N5     2py        0.0000    0.0005    0.0001    0.0003    0.0002   -0.0001   -0.0002   -0.0001   -0.0000   -0.0034
   117 N5     3py        0.0000    0.0005    0.0001    0.0001    0.0003   -0.0001   -0.0001   -0.0001   -0.0001   -0.0023
   118 N5     4py        0.0000    0.0000    0.0000   -0.0002    0.0001    0.0000   -0.0001   -0.0000   -0.0001   -0.0007
   119 N5     2pz        0.0001    0.0004   -0.0008   -0.0000   -0.0005    0.0000    0.0000    0.0000   -0.0008    0.0104
   120 N5     3pz        0.0001    0.0006   -0.0010    0.0000   -0.0008   -0.0002    0.0001    0.0001   -0.0006    0.0154
   121 N5     4pz        0.0000    0.0000   -0.0001    0.0001   -0.0001   -0.0001    0.0003    0.0000   -0.0000    0.0031
   122 N5     3d2-       0.0000   -0.0000    0.0000   -0.0000   -0.0000    0.0000    0.0001    0.0000    0.0000    0.0000
   123 N5     3d1-       0.0000    0.0000    0.0000   -0.0000    0.0000   -0.0000    0.0000    0.0000    0.0000   -0.0002
   124 N5     3d0        0.0000    0.0000   -0.0000   -0.0001   -0.0000    0.0000   -0.0001    0.0000   -0.0001    0.0003
   125 N5     3d1+      -0.0000   -0.0001   -0.0000    0.0001    0.0000    0.0000    0.0001   -0.0000    0.0000   -0.0001
   126 N5     3d2+      -0.0000    0.0000   -0.0000    0.0000    0.0000    0.0000   -0.0001   -0.0000   -0.0000   -0.0001
   127 O7     1s        -0.9997   -0.0000    0.0000    0.0000   -0.0003   -0.0000    0.0000   -0.0001    0.0000   -0.0239
   128 O7     2s         0.0016   -0.0001    0.0003    0.0000    0.0004   -0.0001    0.0002   -0.0004    0.0000    0.6947
   129 O7     3s         0.0014   -0.0001    0.0002    0.0000   -0.0001   -0.0000    0.0001   -0.0003    0.0000   -0.0343
   130 O7     4s        -0.0000   -0.0000    0.0000   -0.0000    0.0000    0.0000    0.0000   -0.0001   -0.0000   -0.0137
   131 O7     2px       -0.0001   -0.0001   -0.0003    0.0001    0.0003   -0.0001    0.0001   -0.0001    0.0000    0.0851
   132 O7     3px        0.0003   -0.0001   -0.0004    0.0002   -0.0001   -0.0001    0.0002   -0.0001    0.0000   -0.0245
   133 O7     4px       -0.0008   -0.0000   -0.0001    0.0000    0.0000   -0.0000    0.0000    0.0000    0.0000   -0.0014
   134 O7     2py        0.0002    0.0000   -0.0002    0.0000   -0.0007   -0.0000    0.0000    0.0002   -0.0000   -0.1204
   135 O7     3py       -0.0005    0.0000   -0.0002    0.0001   -0.0004   -0.0001    0.0001    0.0001   -0.0001    0.0381
   136 O7     4py        0.0011   -0.0000    0.0001    0.0000   -0.0003   -0.0000    0.0000   -0.0000   -0.0000    0.0003
   137 O7     2pz       -0.0000    0.0000    0.0001   -0.0000    0.0001    0.0000   -0.0000   -0.0000   -0.0000    0.0170
   138 O7     3pz        0.0001    0.0001    0.0000   -0.0000    0.0001    0.0001   -0.0000   -0.0000   -0.0000   -0.0056
   139 O7     4pz       -0.0001    0.0000   -0.0000    0.0000    0.0001    0.0000   -0.0000    0.0000   -0.0000   -0.0001
   140 O7     3d2-      -0.0001    0.0000    0.0000   -0.0000   -0.0002    0.0000   -0.0000    0.0000   -0.0000   -0.0177
   141 O7     3d1-      -0.0000    0.0000   -0.0000   -0.0000   -0.0000    0.0000   -0.0000    0.0000   -0.0000   -0.0035
   142 O7     3d0        0.0000    0.0000   -0.0001   -0.0000   -0.0001    0.0000    0.0000    0.0000    0.0000   -0.0103
   143 O7     3d1+       0.0000   -0.0000    0.0000   -0.0000    0.0000   -0.0000    0.0000   -0.0000   -0.0000    0.0024
   144 O7     3d2+      -0.0000    0.0000   -0.0001    0.0000   -0.0001   -0.0000    0.0000    0.0000   -0.0000   -0.0071
   145 O8     1s        -0.0000    0.9997    0.0000    0.0000    0.0000   -0.0000   -0.0002   -0.0000   -0.0001   -0.0012
   146 O8     2s        -0.0001   -0.0016    0.0002    0.0002    0.0002    0.0003    0.0005    0.0000   -0.0003    0.0098
   147 O8     3s        -0.0000   -0.0015    0.0001    0.0001    0.0001    0.0002    0.0000    0.0000   -0.0002   -0.0030
   148 O8     4s        -0.0000   -0.0000   -0.0000    0.0000    0.0001    0.0000    0.0000   -0.0000   -0.0000   -0.0008
   149 O8     2px        0.0000   -0.0002    0.0000   -0.0001   -0.0001   -0.0003   -0.0006    0.0000    0.0000   -0.0028
   150 O8     3px       -0.0000    0.0005    0.0001   -0.0000   -0.0001   -0.0001   -0.0002    0.0001    0.0000    0.0019
   151 O8     4px       -0.0000   -0.0012    0.0001    0.0001   -0.0000   -0.0000   -0.0002    0.0000   -0.0000   -0.0001
   152 O8     2py       -0.0000    0.0001    0.0000   -0.0000    0.0001    0.0001    0.0002   -0.0000   -0.0000   -0.0024
   153 O8     3py       -0.0000   -0.0003    0.0000   -0.0000    0.0001   -0.0000    0.0001   -0.0000   -0.0000   -0.0016
   154 O8     4py       -0.0000    0.0005   -0.0000   -0.0000    0.0000   -0.0000    0.0001    0.0000    0.0000   -0.0001
   155 O8     2pz       -0.0000   -0.0001   -0.0001    0.0003   -0.0000   -0.0002   -0.0003    0.0000    0.0001   -0.0004
   156 O8     3pz       -0.0001    0.0001   -0.0001    0.0003   -0.0001   -0.0002    0.0001    0.0000   -0.0000    0.0012
   157 O8     4pz       -0.0000   -0.0004   -0.0000    0.0000   -0.0000   -0.0000    0.0000    0.0000   -0.0000    0.0001
   158 O8     3d2-      -0.0000    0.0000   -0.0000   -0.0000   -0.0000   -0.0001   -0.0001    0.0000    0.0000   -0.0001
   159 O8     3d1-      -0.0000   -0.0000    0.0000    0.0000   -0.0000   -0.0000   -0.0000    0.0000    0.0000    0.0000
   160 O8     3d0       -0.0000    0.0001   -0.0000   -0.0000   -0.0000   -0.0000   -0.0001    0.0000    0.0000   -0.0002
   161 O8     3d1+      -0.0000   -0.0001    0.0000   -0.0001   -0.0000    0.0000    0.0001   -0.0000   -0.0000    0.0001
   162 O8     3d2+      -0.0000   -0.0000   -0.0000    0.0001   -0.0000    0.0001    0.0001   -0.0000    0.0000    0.0003
   163 H9     1s        -0.0002    0.0001    0.0001    0.0000    0.0001   -0.0002   -0.0001   -0.0003    0.0000    0.0145
   164 H9     2s        -0.0001    0.0001    0.0000    0.0000    0.0001   -0.0002   -0.0000    0.0003    0.0000    0.0040
   165 H9     2px        0.0000    0.0000    0.0000   -0.0000    0.0000   -0.0000   -0.0000    0.0000    0.0000    0.0010
   166 H9     2py        0.0001    0.0000   -0.0000    0.0000    0.0001   -0.0000   -0.0000   -0.0000    0.0000    0.0011
   167 H9     2pz        0.0000    0.0000    0.0000    0.0000   -0.0000    0.0000   -0.0000   -0.0001    0.0000   -0.0007
   168 H10    1s        -0.0001   -0.0001    0.0002   -0.0002    0.0001   -0.0001   -0.0001   -0.0003   -0.0001    0.0137
   169 H10    2s        -0.0000   -0.0001    0.0001   -0.0001    0.0001   -0.0001   -0.0001    0.0003   -0.0001    0.0026
   170 H10    2px        0.0000   -0.0000    0.0000   -0.0000    0.0000   -0.0000   -0.0000    0.0000   -0.0000    0.0009
   171 H10    2py        0.0001   -0.0000   -0.0000   -0.0000    0.0001   -0.0000   -0.0000   -0.0000   -0.0000    0.0011
   172 H10    2pz       -0.0000   -0.0000   -0.0000   -0.0000    0.0000   -0.0000   -0.0000    0.0001   -0.0000    0.0005
   173 H11    1s         0.0004   -0.0000    0.0004   -0.0002    0.0003   -0.0000   -0.0000   -0.0003   -0.0001    0.0205
   174 H11    2s         0.0002   -0.0000    0.0003   -0.0001    0.0002   -0.0000   -0.0000    0.0002   -0.0000    0.0060
   175 H11    2px        0.0000   -0.0000   -0.0001    0.0000   -0.0000    0.0000    0.0000   -0.0001    0.0000   -0.0001
   176 H11    2py        0.0000   -0.0000    0.0000   -0.0000    0.0001    0.0000    0.0000    0.0000   -0.0000    0.0020
   177 H11    2pz        0.0000    0.0000    0.0000    0.0000    0.0000   -0.0000   -0.0000    0.0000    0.0000    0.0002
   178 H12    1s         0.0011   -0.0001   -0.0009    0.0004    0.0002   -0.0003   -0.0001    0.0004   -0.0001    0.0372
   179 H12    2s         0.0006   -0.0001   -0.0006    0.0003    0.0000   -0.0001   -0.0000    0.0002   -0.0001   -0.0017
   180 H12    2px       -0.0000    0.0000    0.0002    0.0000   -0.0001    0.0000   -0.0001   -0.0000    0.0000   -0.0041
   181 H12    2py        0.0000   -0.0000   -0.0005    0.0001    0.0000   -0.0000   -0.0001    0.0000   -0.0000    0.0046
   182 H12    2pz       -0.0000    0.0000    0.0001   -0.0000   -0.0000    0.0000    0.0000   -0.0000   -0.0000   -0.0009
   183 H13    1s        -0.0003    0.0001   -0.0003    0.0003   -0.0001    0.0006   -0.0004   -0.0001   -0.0002    0.0134
   184 H13    2s        -0.0003    0.0001   -0.0001    0.0002   -0.0000   -0.0001   -0.0001   -0.0000   -0.0001   -0.0028
   185 H13    2px       -0.0000    0.0001    0.0000    0.0000   -0.0000    0.0000   -0.0000    0.0000    0.0000   -0.0005
   186 H13    2py        0.0000   -0.0000   -0.0000   -0.0000    0.0000   -0.0001   -0.0000    0.0000   -0.0000   -0.0013
   187 H13    2pz       -0.0000    0.0000    0.0000    0.0001   -0.0000   -0.0000   -0.0000    0.0000   -0.0000    0.0001
   188 H14    1s        -0.0004    0.0001   -0.0001   -0.0002   -0.0000    0.0012   -0.0003    0.0001    0.0001    0.0028
   189 H14    2s        -0.0002    0.0000    0.0000   -0.0001   -0.0001    0.0004   -0.0001    0.0001    0.0001   -0.0028
   190 H14    2px        0.0000   -0.0001    0.0000    0.0000    0.0000   -0.0000    0.0000    0.0000   -0.0000   -0.0002
   191 H14    2py        0.0000    0.0000    0.0000    0.0001    0.0000   -0.0001   -0.0000   -0.0000   -0.0000   -0.0004
   192 H14    2pz        0.0000    0.0000   -0.0000   -0.0000    0.0000   -0.0000   -0.0001   -0.0000    0.0000   -0.0005
   193 H15    1s         0.0003   -0.0014    0.0002   -0.0010   -0.0003    0.0002    0.0002    0.0001   -0.0002    0.0003
   194 H15    2s         0.0002   -0.0008    0.0001   -0.0007   -0.0002    0.0001    0.0000    0.0000   -0.0001   -0.0010
   195 H15    2px        0.0001   -0.0001    0.0000   -0.0005   -0.0001    0.0000    0.0001    0.0000   -0.0000    0.0008
   196 H15    2py       -0.0000    0.0000    0.0000    0.0002    0.0000   -0.0000   -0.0001    0.0000    0.0000   -0.0004
   197 H15    2pz        0.0000   -0.0000   -0.0000   -0.0001   -0.0000    0.0000    0.0001   -0.0000   -0.0000   -0.0001
   198 H16    1s        -0.0000    0.0005   -0.0001   -0.0004   -0.0002   -0.0002   -0.0003   -0.0000    0.0005    0.0023
   199 H16    2s        -0.0000    0.0003   -0.0001   -0.0002   -0.0001   -0.0002   -0.0002   -0.0000   -0.0001    0.0019
   200 H16    2px       -0.0000    0.0000   -0.0000    0.0000   -0.0000    0.0000   -0.0000    0.0000   -0.0000    0.0003
   201 H16    2py       -0.0000    0.0000    0.0000   -0.0000   -0.0000   -0.0000   -0.0000   -0.0000   -0.0000    0.0001
   202 H16    2pz       -0.0000    0.0000   -0.0000   -0.0000   -0.0000   -0.0000   -0.0000   -0.0000    0.0000    0.0001
   203 H17    1s         0.0000    0.0002    0.0001   -0.0006   -0.0000    0.0001   -0.0004    0.0001    0.0005    0.0033
   204 H17    2s         0.0000    0.0002    0.0001   -0.0003   -0.0001    0.0001   -0.0003    0.0000   -0.0001    0.0025
   205 H17    2px       -0.0000   -0.0000    0.0000    0.0000    0.0000    0.0000    0.0000   -0.0000   -0.0000   -0.0001
   206 H17    2py       -0.0000   -0.0000   -0.0000    0.0000   -0.0000   -0.0000    0.0001   -0.0000    0.0000   -0.0002
   207 H17    2pz        0.0000    0.0000   -0.0000   -0.0000    0.0000    0.0000   -0.0000    0.0000    0.0000    0.0002
   208 H18    1s        -0.0000    0.0000   -0.0001   -0.0001   -0.0001    0.0001   -0.0000    0.0001    0.0010    0.0044
   209 H18    2s        -0.0000    0.0001   -0.0001   -0.0000   -0.0001    0.0001    0.0000    0.0001    0.0001    0.0028
   210 H18    2px       -0.0000   -0.0000    0.0000   -0.0000    0.0000   -0.0000    0.0000   -0.0000   -0.0001   -0.0005
   211 H18    2py        0.0000    0.0000    0.0000   -0.0000    0.0000    0.0000   -0.0000    0.0000    0.0001    0.0001
   212 H18    2pz       -0.0000   -0.0000    0.0000   -0.0000    0.0000    0.0000    0.0000   -0.0000   -0.0000   -0.0002
 
 
      Orbital                11        12        13        14        15        16        17        18        19        20
      Energy            -1.3577   -1.2585   -1.2099   -1.0321   -0.9715   -0.9148   -0.8211   -0.7754   -0.7200   -0.6976
      Occ. No.           2.0000    2.0000    2.0000    2.0000    2.0000    2.0000    2.0000    2.0000    2.0000    2.0000
 
     1 C1     1s         0.0054   -0.0064    0.0051   -0.0168   -0.0033    0.0083    0.0138    0.0000    0.0068    0.0027
     2 C1     2s         0.0295    0.1490   -0.0018    0.2726   -0.0333   -0.0672   -0.3886   -0.0936   -0.2474   -0.0552
     3 C1     3s         0.0276    0.0121    0.0204   -0.0189   -0.0127    0.0210    0.0036   -0.0111    0.0083    0.0167
     4 C1     4s         0.0075    0.0035    0.0058   -0.0049   -0.0041    0.0064    0.0028   -0.0019    0.0041    0.0027
     5 C1     2px        0.0337    0.1488    0.0005   -0.0139    0.1115   -0.0856   -0.1285   -0.0086    0.1713    0.2568
     6 C1     3px        0.0226   -0.0406    0.0326   -0.0373   -0.0283    0.0313    0.0326   -0.0128   -0.0745   -0.0547
     7 C1     4px        0.0065    0.0261    0.0016   -0.0083    0.0133   -0.0068   -0.0072   -0.0017    0.0058    0.0171
     8 C1     2py        0.0109   -0.0371    0.0286   -0.1567    0.0507    0.0064   -0.0522    0.0344    0.0529   -0.1614
     9 C1     3py        0.0252    0.0458    0.0239    0.0201   -0.0505    0.0315    0.0120    0.0078   -0.0105    0.0666
    10 C1     4py        0.0013   -0.0072    0.0061   -0.0238    0.0053    0.0010   -0.0059    0.0040   -0.0038   -0.0090
    11 C1     2pz        0.0030    0.0095   -0.0062    0.0209   -0.0022   -0.0006    0.0049   -0.0063    0.0047    0.0170
    12 C1     3pz        0.0013   -0.0124   -0.0063   -0.0001    0.0043   -0.0014   -0.0052   -0.0098    0.0040   -0.0086
    13 C1     4pz        0.0003   -0.0000   -0.0029    0.0033   -0.0001    0.0002    0.0001   -0.0022    0.0025    0.0002
    14 C1     3d2-       0.0019    0.0127   -0.0012    0.0083   -0.0102    0.0067   -0.0124    0.0065    0.0172    0.0055
    15 C1     3d1-       0.0002    0.0021   -0.0002   -0.0020    0.0018   -0.0005    0.0016    0.0006    0.0036    0.0029
    16 C1     3d0        0.0001   -0.0068    0.0010   -0.0113   -0.0013    0.0044    0.0134    0.0023    0.0053    0.0018
    17 C1     3d1+      -0.0000   -0.0002    0.0001   -0.0006    0.0022   -0.0004    0.0019    0.0001   -0.0014   -0.0027
    18 C1     3d2+       0.0025    0.0277   -0.0037    0.0017    0.0150   -0.0112   -0.0106    0.0003    0.0169    0.0168
    19 C3     1s        -0.0165   -0.0279   -0.0023    0.0312    0.0276   -0.0191    0.0066   -0.0045    0.0019   -0.0005
    20 C3     2s         0.0145    0.1791   -0.0015   -0.2853   -0.2768    0.3222   -0.1106    0.0599   -0.0420    0.0378
    21 C3     3s        -0.0472   -0.0460   -0.0110    0.0524    0.0437   -0.0097    0.0102   -0.0065    0.0091   -0.0029
    22 C3     4s        -0.0076   -0.0107   -0.0010    0.0154    0.0111   -0.0046    0.0037   -0.0026    0.0035   -0.0023
    23 C3     2px        0.0347   -0.0507    0.0267   -0.0140   -0.0452    0.0297    0.0560   -0.1201   -0.2693    0.1275
    24 C3     3px        0.0127    0.0127    0.0259   -0.0216    0.0284    0.0444   -0.0056    0.0236    0.0265   -0.0175
    25 C3     4px        0.0057   -0.0046    0.0084   -0.0046    0.0014    0.0046    0.0031   -0.0075   -0.0056    0.0039
    26 C3     2py       -0.0096   -0.0838    0.0238    0.0047   -0.0277   -0.0102   -0.1335   -0.0213   -0.0307    0.2053
    27 C3     3py        0.0092    0.0178    0.0077   -0.0385    0.0123    0.0002    0.0066   -0.0052    0.0108   -0.0345
    28 C3     4py        0.0025   -0.0021    0.0027   -0.0118   -0.0073    0.0089   -0.0090    0.0040   -0.0015    0.0082
    29 C3     2pz        0.0104    0.0160   -0.0208    0.0169    0.0367    0.0725    0.0084    0.0902    0.0033   -0.0704
    30 C3     3pz        0.0246    0.0347    0.0085   -0.0127   -0.0245    0.0428   -0.0081   -0.0149   -0.0106    0.0085
    31 C3     4pz       -0.0057    0.0112    0.0004   -0.0091   -0.0077    0.0178   -0.0022    0.0035   -0.0040    0.0001
    32 C3     3d2-       0.0015    0.0184   -0.0001   -0.0032    0.0067   -0.0004    0.0054    0.0051    0.0141   -0.0212
    33 C3     3d1-       0.0036   -0.0003   -0.0009   -0.0005   -0.0011    0.0007    0.0010   -0.0026   -0.0043    0.0001
    34 C3     3d0       -0.0041   -0.0088    0.0055    0.0031   -0.0061   -0.0023   -0.0014   -0.0077   -0.0160    0.0117
    35 C3     3d1+      -0.0029   -0.0025   -0.0025    0.0042    0.0089    0.0037   -0.0044    0.0132    0.0099   -0.0051
    36 C3     3d2+       0.0022   -0.0082   -0.0013    0.0006   -0.0064   -0.0004   -0.0174   -0.0047   -0.0063    0.0190
    37 C4     1s        -0.0412    0.0032   -0.0061    0.0096    0.0132    0.0080    0.0008    0.0166    0.0021   -0.0023
    38 C4     2s         0.3549    0.0194    0.1113   -0.0818   -0.2295   -0.0733   -0.0066   -0.4048   -0.0589    0.0870
    39 C4     3s        -0.0150    0.0086    0.0033    0.0266    0.0081    0.0138    0.0048    0.0117    0.0031   -0.0004
    40 C4     4s        -0.0001    0.0025    0.0008    0.0080    0.0033    0.0043    0.0018    0.0059    0.0023   -0.0021
    41 C4     2px        0.1011   -0.0409   -0.0626    0.0562    0.1281    0.0306   -0.0004    0.0308    0.0750   -0.0634
    42 C4     3px       -0.0450    0.0328    0.0667   -0.0451   -0.0084    0.0536   -0.0101   -0.0199   -0.0255    0.0194
    43 C4     4px        0.0275   -0.0060   -0.0070    0.0037    0.0162    0.0103   -0.0004   -0.0031    0.0001    0.0004
    44 C4     2py       -0.0320   -0.0020    0.0642   -0.0033   -0.0427   -0.0296   -0.0191   -0.0394    0.0111    0.0209
    45 C4     3py        0.0350   -0.0145   -0.0143    0.0140    0.0021    0.0088   -0.0088    0.0007   -0.0062   -0.0001
    46 C4     4py       -0.0075   -0.0003    0.0125    0.0010   -0.0064   -0.0026   -0.0065   -0.0030    0.0016    0.0016
    47 C4     2pz       -0.0094   -0.0097   -0.1629   -0.0264   -0.0356    0.0596   -0.0022    0.1001   -0.1764    0.1043
    48 C4     3pz       -0.0317   -0.0178   -0.0244    0.0219   -0.0302   -0.1300    0.0160   -0.0145    0.0692   -0.0466
    49 C4     4pz       -0.0013   -0.0034   -0.0352   -0.0037   -0.0088   -0.0064    0.0021    0.0082   -0.0074    0.0022
    50 C4     3d2-      -0.0266    0.0048    0.0068   -0.0002    0.0029    0.0036    0.0034    0.0003    0.0018   -0.0072
    51 C4     3d1-      -0.0119   -0.0009   -0.0089   -0.0002    0.0033    0.0102   -0.0026    0.0058   -0.0045    0.0052
    52 C4     3d0       -0.0091    0.0052    0.0267   -0.0025   -0.0081   -0.0093    0.0026   -0.0187    0.0066   -0.0068
    53 C4     3d1+       0.0171   -0.0056    0.0017    0.0083    0.0049   -0.0180    0.0012    0.0093    0.0058   -0.0015
    54 C4     3d2+       0.0249   -0.0012   -0.0093   -0.0036   -0.0047    0.0030   -0.0024   -0.0029   -0.0028    0.0041
    55 C6     1s        -0.0089    0.0046   -0.0345   -0.0152   -0.0352   -0.0429    0.0025    0.0087    0.0033   -0.0056
    56 C6     2s         0.0314    0.0428    0.1611    0.0606    0.2318    0.3943   -0.0302   -0.1099   -0.0299    0.0347
    57 C6     3s        -0.0127    0.0274   -0.0601   -0.0318   -0.0673   -0.0666    0.0051    0.0188    0.0077   -0.0165
    58 C6     4s        -0.0005    0.0074   -0.0101   -0.0060   -0.0146   -0.0138    0.0018    0.0054    0.0019   -0.0042
    59 C6     2px       -0.0110   -0.0129   -0.0676   -0.0150   -0.0136    0.0144   -0.0146   -0.1497    0.0358    0.0216
    60 C6     3px        0.0024   -0.0095    0.0116    0.0028    0.0099   -0.0039   -0.0005    0.0061    0.0006   -0.0057
    61 C6     4px       -0.0023   -0.0008   -0.0026    0.0026    0.0075    0.0122   -0.0016   -0.0112    0.0023    0.0006
    62 C6     2py       -0.0041    0.0091    0.0052    0.0038    0.0040    0.0084   -0.0005    0.0555   -0.0352    0.0263
    63 C6     3py       -0.0043    0.0077   -0.0017    0.0013    0.0024    0.0092   -0.0002    0.0009    0.0028   -0.0012
    64 C6     4py       -0.0006   -0.0003    0.0009   -0.0007    0.0005   -0.0006   -0.0000    0.0039   -0.0021    0.0013
    65 C6     2pz        0.0238    0.0129    0.0822    0.0128    0.0073   -0.0338    0.0132    0.0081    0.0966   -0.1174
    66 C6     3pz       -0.0022    0.0103   -0.0177   -0.0069   -0.0216   -0.0097    0.0007   -0.0010   -0.0123    0.0154
    67 C6     4pz        0.0025    0.0012   -0.0014   -0.0018   -0.0119   -0.0171    0.0020    0.0038    0.0051   -0.0055
    68 C6     3d2-      -0.0006    0.0001   -0.0018   -0.0007   -0.0019   -0.0013   -0.0002   -0.0016   -0.0018    0.0024
    69 C6     3d1-       0.0001    0.0000    0.0026    0.0002    0.0002   -0.0006    0.0006    0.0065   -0.0028    0.0004
    70 C6     3d0        0.0025   -0.0000    0.0079    0.0015    0.0017   -0.0020    0.0009   -0.0064    0.0083   -0.0081
    71 C6     3d1+      -0.0042   -0.0015   -0.0206   -0.0041   -0.0049    0.0025   -0.0021   -0.0151   -0.0026    0.0086
    72 C6     3d2+       0.0020    0.0001    0.0088    0.0020    0.0038    0.0002    0.0009    0.0066    0.0029   -0.0057
    73 C19    1s         0.0012   -0.0101    0.0029   -0.0582    0.0417   -0.0182   -0.0131   -0.0046   -0.0091    0.0024
    74 C19    2s         0.0099    0.0017    0.0053    0.3099   -0.2747    0.1403    0.0736    0.0436    0.0964   -0.0023
    75 C19    3s         0.0110   -0.0279    0.0150   -0.1148    0.0766   -0.0306   -0.0349   -0.0099   -0.0169    0.0125
    76 C19    4s         0.0041   -0.0033    0.0047   -0.0242    0.0173   -0.0070   -0.0094   -0.0029   -0.0052    0.0034
    77 C19    2px        0.0047    0.0248   -0.0013    0.0551    0.0042   -0.0256   -0.0448   -0.0309   -0.0619    0.1373
    78 C19    3px        0.0021   -0.0012    0.0022    0.0025    0.0048   -0.0015    0.0025    0.0051    0.0138   -0.0134
    79 C19    4px       -0.0010    0.0006   -0.0006   -0.0086    0.0126   -0.0079   -0.0021   -0.0033   -0.0061    0.0031
    80 C19    2py        0.0072    0.0085    0.0058    0.0468   -0.0077   -0.0143   -0.0629   -0.0481   -0.2145   -0.0503
    81 C19    3py        0.0083   -0.0024    0.0090   -0.0298    0.0172   -0.0009    0.0127    0.0003    0.0223    0.0119
    82 C19    4py        0.0003    0.0011    0.0003   -0.0127    0.0141   -0.0080   -0.0124   -0.0034   -0.0085   -0.0014
    83 C19    2pz        0.0022   -0.0014    0.0005   -0.0078    0.0038    0.0004    0.0099    0.0069    0.0259    0.0025
    84 C19    3pz        0.0018   -0.0001    0.0006   -0.0001    0.0004   -0.0019    0.0014    0.0006   -0.0057   -0.0009
    85 C19    4pz       -0.0001    0.0003    0.0002    0.0013   -0.0018    0.0004    0.0018    0.0011    0.0006    0.0001
    86 C19    3d2-       0.0005    0.0060   -0.0009    0.0112   -0.0019   -0.0022   -0.0078   -0.0042   -0.0148   -0.0001
    87 C19    3d1-      -0.0001    0.0004   -0.0001   -0.0023    0.0011   -0.0001    0.0010    0.0011    0.0038   -0.0000
    88 C19    3d0       -0.0003   -0.0010    0.0001   -0.0088    0.0033    0.0006    0.0033    0.0030    0.0081   -0.0087
    89 C19    3d1+      -0.0004   -0.0005   -0.0000   -0.0014   -0.0000    0.0004    0.0012    0.0006    0.0010   -0.0020
    90 C19    3d2+       0.0002    0.0024   -0.0003   -0.0068    0.0044   -0.0010    0.0030    0.0028    0.0135    0.0042
    91 N2     1s        -0.0042   -0.0403    0.0054   -0.0046   -0.0048    0.0023   -0.0047    0.0008    0.0030   -0.0016
    92 N2     2s         0.0522    0.5901   -0.0705   -0.0391    0.2073   -0.0917    0.1463    0.0210    0.1233   -0.0666
    93 N2     3s        -0.0061   -0.0739    0.0130   -0.0149   -0.0000    0.0021   -0.0099    0.0015    0.0142   -0.0050
    94 N2     4s        -0.0017   -0.0241    0.0039   -0.0019   -0.0025    0.0018   -0.0035   -0.0006    0.0009   -0.0005
    95 N2     2px        0.0284   -0.0306    0.0244   -0.1523   -0.0679    0.1174    0.3544    0.0132   -0.1073   -0.2878
    96 N2     3px        0.0309   -0.0070    0.0212    0.0149    0.0359   -0.0474   -0.1113   -0.0356    0.0088    0.0623
    97 N2     4px        0.0056    0.0021    0.0025   -0.0070    0.0061   -0.0030    0.0007   -0.0045   -0.0010    0.0068
    98 N2     2py        0.0069   -0.0054    0.0061   -0.1117   -0.0567    0.1079   -0.2251    0.1215    0.2630   -0.2087
    99 N2     3py       -0.0032   -0.0486   -0.0016    0.0442    0.0606   -0.0516    0.0432   -0.0403   -0.0573    0.0251
   100 N2     4py       -0.0012   -0.0154    0.0000    0.0003    0.0051   -0.0057   -0.0093   -0.0034   -0.0007    0.0050
   101 N2     2pz       -0.0076    0.0175   -0.0061    0.0073    0.0202   -0.0063    0.0564    0.0181   -0.0165   -0.0259
   102 N2     3pz       -0.0106    0.0030    0.0010   -0.0040   -0.0020   -0.0072   -0.0059    0.0077    0.0060    0.0050
   103 N2     4pz       -0.0014    0.0037    0.0005   -0.0002    0.0010    0.0000    0.0026    0.0021   -0.0007    0.0008
   104 N2     3d2-       0.0015    0.0071   -0.0003   -0.0023   -0.0091    0.0088   -0.0054    0.0040    0.0065   -0.0033
   105 N2     3d1-      -0.0010   -0.0018   -0.0003   -0.0002   -0.0008    0.0020   -0.0047    0.0029    0.0031   -0.0021
   106 N2     3d0       -0.0017   -0.0159    0.0021    0.0016   -0.0036    0.0014    0.0007   -0.0004   -0.0021   -0.0007
   107 N2     3d1+      -0.0005    0.0007   -0.0006   -0.0010    0.0009    0.0000    0.0029    0.0008   -0.0014   -0.0019
   108 N2     3d2+       0.0008    0.0057   -0.0007    0.0096    0.0063   -0.0093   -0.0201   -0.0053   -0.0007    0.0150
   109 N5     1s        -0.0200   -0.0041   -0.0423   -0.0026    0.0016    0.0024   -0.0004   -0.0037    0.0028   -0.0024
   110 N5     2s         0.1369    0.0214    0.5746    0.0387   -0.0099   -0.2246    0.0364    0.1718    0.0550   -0.0911
   111 N5     3s        -0.0493   -0.0083   -0.0792   -0.0091   -0.0010   -0.0159    0.0015    0.0004    0.0123   -0.0126
   112 N5     4s        -0.0118   -0.0015   -0.0262   -0.0036   -0.0016   -0.0018    0.0001   -0.0017    0.0015   -0.0013
   113 N5     2px        0.0326   -0.0357   -0.0059    0.0405    0.0695    0.0683   -0.0003   -0.2510    0.1798   -0.1430
   114 N5     3px        0.0002   -0.0417   -0.0414    0.0080   -0.0276   -0.0801    0.0073    0.0574   -0.0294    0.0299
   115 N5     4px       -0.0049   -0.0060   -0.0110    0.0003    0.0004   -0.0053    0.0015   -0.0084    0.0019   -0.0006
   116 N5     2py       -0.0200   -0.0039   -0.0052    0.0004    0.0142    0.0078    0.0074    0.1561   -0.0885    0.0495
   117 N5     3py        0.0030   -0.0014    0.0141   -0.0048    0.0081    0.0024    0.0038   -0.0369    0.0136   -0.0117
   118 N5     4py        0.0001   -0.0005    0.0045   -0.0001    0.0023   -0.0009    0.0007    0.0029   -0.0010    0.0006
   119 N5     2pz        0.0174    0.0332    0.0143   -0.0555   -0.1561   -0.1506   -0.0033   -0.2689    0.1049   -0.0107
   120 N5     3pz       -0.0212    0.0476    0.0015    0.0065    0.0304    0.0796    0.0028    0.0744   -0.0182   -0.0074
   121 N5     4pz        0.0063    0.0080   -0.0029   -0.0027   -0.0058    0.0045    0.0012    0.0003   -0.0010   -0.0010
   122 N5     3d2-      -0.0019    0.0001   -0.0053   -0.0011   -0.0006    0.0032   -0.0005   -0.0055    0.0005    0.0001
   123 N5     3d1-      -0.0037   -0.0007   -0.0068    0.0008    0.0037    0.0062   -0.0004    0.0062   -0.0029    0.0011
   124 N5     3d0        0.0035    0.0014    0.0147   -0.0008   -0.0038   -0.0020   -0.0007   -0.0155    0.0053   -0.0021
   125 N5     3d1+       0.0040   -0.0017   -0.0049   -0.0013   -0.0066   -0.0123    0.0003   -0.0044    0.0022    0.0010
   126 N5     3d2+       0.0004    0.0003    0.0072    0.0017    0.0031    0.0003    0.0002    0.0101   -0.0024    0.0006
   127 O7     1s         0.0005    0.0023   -0.0008   -0.0045    0.0021    0.0004    0.0139    0.0014    0.0146    0.0214
   128 O7     2s        -0.0490   -0.3010    0.0299   -0.2075    0.0494    0.0267    0.3574    0.0237    0.2388    0.3454
   129 O7     3s        -0.0008   -0.0093   -0.0016   -0.0209    0.0092    0.0014    0.0434    0.0021    0.0411    0.0607
   130 O7     4s         0.0004    0.0000   -0.0008   -0.0038    0.0023    0.0002    0.0083   -0.0003    0.0083    0.0129
   131 O7     2px       -0.0045    0.0004   -0.0031   -0.0063    0.0282   -0.0274   -0.1765   -0.0068   -0.0922   -0.2154
   132 O7     3px       -0.0008    0.0008   -0.0022   -0.0098    0.0006    0.0032    0.0205    0.0013    0.0070    0.0198
   133 O7     4px        0.0002    0.0006   -0.0002   -0.0015   -0.0010    0.0012    0.0013    0.0004    0.0001    0.0013
   134 O7     2py        0.0071    0.0413   -0.0042   -0.0349    0.0223    0.0068    0.1652    0.0294    0.2794    0.4089
   135 O7     3py       -0.0029    0.0014   -0.0015    0.0123    0.0001    0.0006   -0.0266   -0.0071   -0.0331   -0.0429
   136 O7     4py       -0.0007   -0.0013    0.0001   -0.0009    0.0004    0.0011   -0.0033   -0.0006   -0.0042   -0.0063
   137 O7     2pz       -0.0023   -0.0009   -0.0000    0.0053    0.0020   -0.0028   -0.0223   -0.0027   -0.0337   -0.0547
   138 O7     3pz       -0.0016   -0.0005    0.0008   -0.0002    0.0022   -0.0002    0.0049    0.0011    0.0030    0.0054
   139 O7     4pz       -0.0006   -0.0000    0.0003    0.0007    0.0008    0.0000    0.0008   -0.0001    0.0003    0.0008
   140 O7     3d2-       0.0009    0.0033   -0.0003    0.0010   -0.0024    0.0025    0.0122    0.0011    0.0094    0.0173
   141 O7     3d1-       0.0002    0.0013   -0.0001    0.0000    0.0004   -0.0003    0.0011    0.0001    0.0028    0.0045
   142 O7     3d0        0.0005    0.0041   -0.0007    0.0014    0.0002   -0.0001    0.0051    0.0003    0.0063    0.0114
   143 O7     3d1+      -0.0002   -0.0003    0.0000   -0.0002    0.0006   -0.0003   -0.0016   -0.0001   -0.0009   -0.0024
   144 O7     3d2+       0.0005    0.0050   -0.0007   -0.0026    0.0044   -0.0023   -0.0006    0.0014    0.0122    0.0125
   145 O8     1s        -0.0235    0.0024    0.0044    0.0006    0.0025    0.0006    0.0001    0.0121    0.0021   -0.0019
   146 O8     2s         0.6686   -0.1439   -0.3178    0.0973    0.1614    0.0132   -0.0075    0.3488    0.0462   -0.0308
   147 O8     3s        -0.0280   -0.0020   -0.0075    0.0054    0.0128    0.0010   -0.0010    0.0441    0.0080   -0.0064
   148 O8     4s        -0.0121    0.0005    0.0003    0.0003    0.0014   -0.0002   -0.0008    0.0090    0.0021   -0.0014
   149 O8     2px       -0.1247    0.0139    0.0418    0.0141    0.0212   -0.0071   -0.0050    0.1523    0.0580   -0.0386
   150 O8     3px        0.0367   -0.0065   -0.0053    0.0027   -0.0114   -0.0088   -0.0008   -0.0246   -0.0068    0.0048
   151 O8     4px        0.0003   -0.0011   -0.0021    0.0017   -0.0001   -0.0010    0.0003   -0.0029   -0.0016    0.0008
   152 O8     2py        0.0527   -0.0179   -0.0149    0.0041   -0.0046   -0.0084   -0.0017   -0.0751   -0.0018    0.0063
   153 O8     3py       -0.0188    0.0013   -0.0006    0.0023    0.0067   -0.0006    0.0010    0.0122    0.0029   -0.0028
   154 O8     4py       -0.0006    0.0002   -0.0001    0.0007    0.0008   -0.0005   -0.0000    0.0015    0.0008   -0.0004
   155 O8     2pz       -0.0449    0.0129   -0.0060   -0.0166   -0.0108    0.0430   -0.0038    0.0857   -0.0875    0.0530
   156 O8     3pz        0.0147    0.0056    0.0057   -0.0037   -0.0005    0.0101   -0.0015   -0.0093    0.0066   -0.0026
[...]
AIVX     1  Mu1.0001  In1.029 Se1.044               0.06957095      0.00086091     -0.00241055     -0.00000208
AIVX     1  Mu1.0001  In1.021 Se1.045               0.25357873      0.00066855     -0.00115664     -0.00000077
AIVX     1  Mu1.0001  In1.022 Se1.045               0.22851121     -0.00191374      0.00327574     -0.00000627
AIVX     1  Mu1.0001  In1.023 Se1.045               0.29935573      0.00071443     -0.00069107     -0.00000049
AIVX     1  Mu1.0001  In1.024 Se1.045               0.16790310      0.00038602     -0.00095946     -0.00000037
AIVX     1  Mu1.0001  In1.025 Se1.045               0.26051816      0.00044733     -0.00090861     -0.00000041
AIVX     1  Mu1.0001  In1.026 Se1.045               0.24528763     -0.00158845      0.00287599     -0.00000457
AIVX     1  Mu1.0001  In1.027 Se1.045               0.15384626     -0.00027904      0.00062662     -0.00000017
AIVX     1  Mu1.0001  In1.028 Se1.045               0.12121024     -0.00034921      0.00097377     -0.00000034
AIVX     1  Mu1.0001  In1.029 Se1.045               0.09110317      0.00015422     -0.00025999     -0.00000004
AIVX     1  Mu1.0001  In1.021 Se1.046               0.24788021     -0.00079477      0.00142555     -0.00000113
AIVX     1  Mu1.0001  In1.022 Se1.046               0.22281270      0.00234019     -0.00453665     -0.00001062
AIVX     1  Mu1.0001  In1.023 Se1.046               0.29365722     -0.00172740      0.00306499     -0.00000529
AIVX     1  Mu1.0001  In1.024 Se1.046               0.16220459      0.00016199     -0.00032612     -0.00000005
AIVX     1  Mu1.0001  In1.025 Se1.046               0.25481965      0.00018342     -0.00023148     -0.00000004
AIVX     1  Mu1.0001  In1.026 Se1.046               0.23958911     -0.00015495      0.00018039     -0.00000003
AIVX     1  Mu1.0001  In1.027 Se1.046               0.14814775      0.00080047     -0.00178860     -0.00000143
AIVX     1  Mu1.0001  In1.028 Se1.046               0.11551173     -0.00075587      0.00162212     -0.00000123
AIVX     1  Mu1.0001  In1.029 Se1.046               0.08540466      0.00082060     -0.00197107     -0.00000162
AIVX     1  Mu1.0001  In1.021 Se1.047               0.26588024      0.00026553     -0.00017293     -0.00000005
AIVX     1  Mu1.0001  In1.022 Se1.047               0.24081273     -0.00133326      0.00214718     -0.00000286
AIVX     1  Mu1.0001  In1.024 Se1.047               0.18020462     -0.00030936      0.00090883     -0.00000028
AIVX     1  Mu1.0001  In1.025 Se1.047               0.27281967      0.00064732     -0.00104492     -0.00000068
AIVX     1  Mu1.0001  In1.026 Se1.047               0.25758914     -0.00007059      0.00006986     -0.00000000
AIVX     1  Mu1.0001  In1.027 Se1.047               0.16614778     -0.00041450      0.00029088     -0.00000012
AIVX     1  Mu1.0001  In1.028 Se1.047               0.13351175     -0.00075223      0.00141624     -0.00000107
AIVX     1  Mu1.0001  In1.029 Se1.047               0.10340469      0.00030530     -0.00048743     -0.00000015
AIVX     1  Mu1.0001  In1.021 Se1.048               0.27893398     -0.00147032      0.00204575     -0.00000301
AIVX     1  Mu1.0001  In1.022 Se1.048               0.25386647      0.00041236     -0.00066217     -0.00000027
AIVX     1  Mu1.0001  In1.024 Se1.048               0.19325836     -0.00036275      0.00059068     -0.00000021
AIVX     1  Mu1.0001  In1.025 Se1.048               0.28587341      0.00104571     -0.00196794     -0.00000206
AIVX     1  Mu1.0001  In1.026 Se1.048               0.27064288      0.00096586     -0.00163278     -0.00000158
AIVX     1  Mu1.0001  In1.027 Se1.048               0.17920152      0.00095923     -0.00178500     -0.00000171
AIVX     1  Mu1.0001  In1.028 Se1.048               0.14656549      0.00071661     -0.00096678     -0.00000069
AIVX     1  Mu1.0001  In1.029 Se1.048               0.11645843     -0.00038333      0.00063234     -0.00000024
AIVX     1  Mu1.0001  In1.021 Se1.049               0.29142461     -0.00014369      0.00059812     -0.00000009
AIVX     1  Mu1.0001  In1.022 Se1.049               0.26635709      0.00024936     -0.00046760     -0.00000012
AIVX     1  Mu1.0001  In1.024 Se1.049               0.20574898      0.00019549     -0.00036717     -0.00000007
AIVX     1  Mu1.0001  In1.025 Se1.049               0.29836404      0.00090866     -0.00149507     -0.00000136
AIVX     1  Mu1.0001  In1.026 Se1.049               0.28313351      0.00028909     -0.00022879     -0.00000007
AIVX     1  Mu1.0001  In1.027 Se1.049               0.19169214     -0.00015849     -0.00031226      0.00000005
AIVX     1  Mu1.0001  In1.028 Se1.049               0.15905612     -0.00065737      0.00095167     -0.00000063
AIVX     1  Mu1.0001  In1.029 Se1.049               0.12894905     -0.00010478      0.00058906     -0.00000006
AIVX     1  Mu1.0001  In1.022 Se1.050               0.27967775      0.00053116     -0.00051108     -0.00000027
AIVX     1  Mu1.0001  In1.024 Se1.050               0.21906964      0.00034124     -0.00063242     -0.00000022
AIVX     1  Mu1.0001  In1.026 Se1.050               0.29645416      0.00353103     -0.00552055     -0.00001949
AIVX     1  Mu1.0001  In1.027 Se1.050               0.20501279      0.00024260     -0.00033431     -0.00000008
AIVX     1  Mu1.0001  In1.028 Se1.050               0.17237677     -0.00041099      0.00097822     -0.00000040
AIVX     1  Mu1.0001  In1.029 Se1.050               0.14226971      0.00027577     -0.00056192     -0.00000015
AIVX     1  Mu1.0001  In1.024 Se1.051               0.24953078      0.00003484     -0.00009586     -0.00000000
AIVX     1  Mu1.0001  In1.027 Se1.051               0.23547393     -0.00018226      0.00087676     -0.00000016
AIVX     1  Mu1.0001  In1.028 Se1.051               0.20283791      0.00094233     -0.00089758     -0.00000085
AIVX     1  Mu1.0001  In1.029 Se1.051               0.17273084     -0.00103371      0.00183520     -0.00000190
AIVX     1  Mu1.0001  In1.024 Se1.052               0.25262566      0.00013358     -0.00008634     -0.00000001
AIVX     1  Mu1.0001  In1.027 Se1.052               0.23856882     -0.00049374      0.00041652     -0.00000021
AIVX     1  Mu1.0001  In1.028 Se1.052               0.20593279      0.00082363     -0.00176902     -0.00000146
AIVX     1  Mu1.0001  In1.029 Se1.052               0.17582573     -0.00143673      0.00296825     -0.00000426
AIVX     1  Mu1.0001  In1.024 Se1.053               0.28506009     -0.00014608      0.00001340     -0.00000000
AIVX     1  Mu1.0001  In1.027 Se1.053               0.27100324     -0.00002062     -0.00016539      0.00000000
AIVX     1  Mu1.0001  In1.028 Se1.053               0.23836722      0.00030590     -0.00028145     -0.00000009
AIVX     1  Mu1.0001  In1.029 Se1.053               0.20826015     -0.00111105      0.00237365     -0.00000264
AIVX     1  Mu1.0001  In1.027 Se1.054               0.29116039      0.00000368      0.00001942      0.00000000
AIVX     1  Mu1.0001  In1.028 Se1.054               0.25852437      0.00004429     -0.00005563     -0.00000000
AIVX     1  Mu1.0001  In1.029 Se1.054               0.22841730      0.00013889     -0.00014334     -0.00000002
AIVX     1  Mu1.0001  In1.028 Se1.055               0.29453703     -0.00120787      0.00168275     -0.00000203
AIVX     1  Mu1.0001  In1.029 Se1.055               0.26442997     -0.00040361      0.00116781     -0.00000047
AIVX     1  Mu1.0001  In1.028 Se1.056               0.27834886     -0.00007735      0.00015172     -0.00000001
AIVX     1  Mu1.0001  In1.029 Se1.056               0.24824180      0.00051037     -0.00105519     -0.00000054
AIVX     1  Mu1.0001  In1.029 Se1.057               0.27199851      0.00000329     -0.00020455     -0.00000000
AIVX     1  Mu1.0001  In1.028 Se1.058               0.26934765     -0.00034025      0.00019759     -0.00000007
AIVX     1  Mu1.0001  In1.029 Se1.058               0.23924058      0.00012478     -0.00004738     -0.00000001
AIVX     1  Mu1.0001  In1.029 Se1.059               0.28800380     -0.00044085      0.00064810     -0.00000029
--
 
   (Skipping property calculation,
    use PROP keyword to activate)
--
 
  Total CASPT2 energies:
::    CASPT2 Root  1     Total energy:   -455.21201140
::    CASPT2 Root  2     Total energy:   -455.01632211
::    CASPT2 Root  3     Total energy:   -455.01088599
::    CASPT2 Root  4     Total energy:   -454.95368531
::    CASPT2 Root  5     Total energy:   -454.94343559
::    CASPT2 Root  6     Total energy:   -454.92595962
::    CASPT2 Root  7     Total energy:   -454.90858965
 
++ Multi-State CASPT2 section:
********************************************************************************
  MULTI-STATE CASPT2 SECTION
--------------------------------------------------------------------------------
 
  Output diagonal energies have been shifted. Add   -455.000000000000     
 
  Effective Hamiltonian matrix (Symmetric):
 
                1               2               3               4               5
   1        -0.21201140
   2         0.00113655     -0.01632211
   3        -0.00070828     -0.00002916     -0.01088599
   4        -0.00842741     -0.00021694     -0.00017640      0.04631469
   5        -0.01000210     -0.00015748     -0.00050336      0.00148268      0.05656441
   6         0.01015702     -0.00281119     -0.00228346      0.00486856      0.01029768
   7        -0.01205328     -0.00045443      0.00106652     -0.00583004     -0.00874477
 
                6               7
   6         0.07404038
   7         0.00733696      0.09141035
 
       Total MS-CASPT2 energies:
::    MS-CASPT2 Root  1     Total energy:   -455.21360155
::    MS-CASPT2 Root  2     Total energy:   -455.01640195
::    MS-CASPT2 Root  3     Total energy:   -455.01096084
::    MS-CASPT2 Root  4     Total energy:   -454.95523983
::    MS-CASPT2 Root  5     Total energy:   -454.94958455
::    MS-CASPT2 Root  6     Total energy:   -454.92048976
::    MS-CASPT2 Root  7     Total energy:   -454.90461119
 
       Eigenvectors:
            0.99700156      0.00708440     -0.00152601     -0.05514863     -0.04631975
           -0.00612357      0.99933703     -0.01904780      0.00494738      0.01176081
            0.00295734      0.01826271      0.99936253      0.00932003      0.01085722
            0.03375896      0.00237554     -0.00086017      0.93768737     -0.28971142
            0.03954970     -0.00075498      0.00139768      0.17344609      0.86598296
           -0.03830247      0.03045706      0.02736380     -0.23993667     -0.35545326
            0.04207998      0.00281809     -0.01256650      0.17302174      0.19337029
 
            0.01532211     -0.02266537
           -0.02597783     -0.00935656
           -0.02633180      0.00584440
            0.16473425     -0.09233773
            0.44120912     -0.15413559
            0.87348107      0.22354128
           -0.11672611      0.95765852
 
--
 
  THE ORIGINAL CI ARRAYS ARE NOW MIXED AS LINEAR
  COMBINATIONS, GIVEN BY THE EIGENVECTORS.
  A NEW JOBIPH FILE NAMED 'JOBMIX' IS PREPARED.
********************************************************************************
 
++ Mixed CI coefficients:
  The CI coefficients for the MIXED state nr.   1
--------------------------------------------------------------------------------
 CI COEFFICIENTS LARGER THAN  0.50D-01
  Occupation of active orbitals, and spin coupling
  of open shells. (u,d: Spin up or down).
  SGUGA info is (Midvert:IsyUp:UpperWalk/LowerWalk)
        Conf  SGUGA info        Occupation    Coefficient         Weight
           1  ( 1:1:   1/   1)   22222200        0.970155       0.941200
           4  ( 1:1:   4/   1)   22222020       -0.089994       0.008099
          24  ( 2:1:   4/   1)   222u220d        0.070066       0.004909
          64  ( 2:1:   4/   3)   2u22220d       -0.076277       0.005818
          81  ( 2:1:   1/   4)   u22222d0        0.095038       0.009032
         105  ( 3:1:   5/   1)   22202202       -0.088985       0.007918
         175  ( 3:1:   5/   8)   20222202       -0.089643       0.008036
         191  ( 3:1:   1/  10)   02222220       -0.077032       0.005934
 
  The CI coefficients for the MIXED state nr.   2
--------------------------------------------------------------------------------
 CI COEFFICIENTS LARGER THAN  0.50D-01
  Occupation of active orbitals, and spin coupling
  of open shells. (u,d: Spin up or down).
  SGUGA info is (Midvert:IsyUp:UpperWalk/LowerWalk)
        Conf  SGUGA info        Occupation    Coefficient         Weight
           3  ( 1:1:   3/   1)   2222u2d0        0.118858       0.014127
           8  ( 1:1:   8/   1)   2222u20d       -0.954547       0.911160
          13  ( 1:1:  13/   1)   2222u02d        0.083471       0.006967
          34  ( 2:1:  14/   1)   222ud202        0.084839       0.007198
          54  ( 2:1:  14/   2)   22u2d202       -0.060692       0.003683
          74  ( 2:1:  14/   3)   2u22d202       -0.182428       0.033280
          88  ( 2:1:   8/   4)   u222u2dd        0.071468       0.005108
         194  ( 3:1:   4/  10)   0222u22d       -0.077637       0.006027
 
  The CI coefficients for the MIXED state nr.   3
--------------------------------------------------------------------------------
 CI COEFFICIENTS LARGER THAN  0.50D-01
  Occupation of active orbitals, and spin coupling
  of open shells. (u,d: Spin up or down).
  SGUGA info is (Midvert:IsyUp:UpperWalk/LowerWalk)
        Conf  SGUGA info        Occupation    Coefficient         Weight
          21  ( 2:1:   1/   1)   222u22d0        0.281289       0.079123
          41  ( 2:1:   1/   2)   22u222d0        0.905216       0.819415
          42  ( 2:1:   2/   2)   22u22d20       -0.174306       0.030383
         112  ( 3:1:   2/   2)   22ud22ud        0.060888       0.003707
         161  ( 3:1:   1/   7)   u2d22220       -0.129217       0.016697
         201  ( 4:1:   1/   1)   22uu22dd       -0.104619       0.010945
         219  ( 4:1:   1/   4)   2uu222dd       -0.063118       0.003984
         238  ( 5:1:   2/   1)   22u022d2        0.077862       0.006063
         294  ( 5:1:   2/  15)   20u222d2       -0.090485       0.008187
 
  The CI coefficients for the MIXED state nr.   4
--------------------------------------------------------------------------------
 CI COEFFICIENTS LARGER THAN  0.50D-01
  Occupation of active orbitals, and spin coupling
  of open shells. (u,d: Spin up or down).
  SGUGA info is (Midvert:IsyUp:UpperWalk/LowerWalk)
        Conf  SGUGA info        Occupation    Coefficient         Weight
           2  ( 1:1:   2/   1)   22222ud0       -0.641231       0.411177
           3  ( 1:1:   3/   1)   2222u2d0        0.050255       0.002526
           4  ( 1:1:   4/   1)   22222020       -0.067932       0.004615
          21  ( 2:1:   1/   1)   222u22d0        0.295593       0.087375
          24  ( 2:1:   4/   1)   222u220d       -0.591591       0.349979
          27  ( 2:1:   7/   1)   222u2udd       -0.062015       0.003846
          29  ( 2:1:   9/   1)   222u202d        0.051255       0.002627
          41  ( 2:1:   1/   2)   22u222d0       -0.122431       0.014989
          81  ( 2:1:   1/   4)   u22222d0        0.111977       0.012539
          82  ( 2:1:   2/   4)   u2222d20        0.147502       0.021757
         105  ( 3:1:   5/   1)   22202202       -0.119269       0.014225
         106  ( 3:1:   6/   1)   22202ud2        0.054025       0.002919
         125  ( 3:1:   5/   3)   2u2d2202       -0.153022       0.023416
         175  ( 3:1:   5/   8)   20222202        0.068949       0.004754
         176  ( 3:1:   6/   8)   20222ud2        0.063010       0.003970
         213  ( 4:1:   1/   3)   u22u22dd        0.055863       0.003121
         269  ( 5:1:   1/   9)   022u222d       -0.052416       0.002747
 
  The CI coefficients for the MIXED state nr.   5
--------------------------------------------------------------------------------
 CI COEFFICIENTS LARGER THAN  0.50D-01
  Occupation of active orbitals, and spin coupling
  of open shells. (u,d: Spin up or down).
  SGUGA info is (Midvert:IsyUp:UpperWalk/LowerWalk)
        Conf  SGUGA info        Occupation    Coefficient         Weight
           2  ( 1:1:   2/   1)   22222ud0        0.658217       0.433250
           3  ( 1:1:   3/   1)   2222u2d0        0.114180       0.013037
          24  ( 2:1:   4/   1)   222u220d       -0.650955       0.423743
          27  ( 2:1:   7/   1)   222u2udd        0.071425       0.005102
          29  ( 2:1:   9/   1)   222u202d        0.062781       0.003941
          82  ( 2:1:   2/   4)   u2222d20       -0.170057       0.028919
         105  ( 3:1:   5/   1)   22202202       -0.124433       0.015484
         106  ( 3:1:   6/   1)   22202ud2       -0.056699       0.003215
         125  ( 3:1:   5/   3)   2u2d2202       -0.169519       0.028737
         175  ( 3:1:   5/   8)   20222202        0.074319       0.005523
         176  ( 3:1:   6/   8)   20222ud2       -0.063883       0.004081
         213  ( 4:1:   1/   3)   u22u22dd        0.059035       0.003485
 
  The CI coefficients for the MIXED state nr.   6
--------------------------------------------------------------------------------
 CI COEFFICIENTS LARGER THAN  0.50D-01
  Occupation of active orbitals, and spin coupling
  of open shells. (u,d: Spin up or down).
  SGUGA info is (Midvert:IsyUp:UpperWalk/LowerWalk)
        Conf  SGUGA info        Occupation    Coefficient         Weight
           2  ( 1:1:   2/   1)   22222ud0        0.207534       0.043070
           3  ( 1:1:   3/   1)   2222u2d0       -0.187949       0.035325
          21  ( 2:1:   1/   1)   222u22d0        0.844527       0.713226
          22  ( 2:1:   2/   1)   222u2d20        0.062518       0.003908
          24  ( 2:1:   4/   1)   222u220d        0.215373       0.046385
          28  ( 2:1:   8/   1)   222uu2dd        0.056709       0.003216
          41  ( 2:1:   1/   2)   22u222d0       -0.238491       0.056878
          82  ( 2:1:   2/   4)   u2222d20       -0.057516       0.003308
         122  ( 3:1:   2/   3)   2u2d22ud        0.139606       0.019490
         125  ( 3:1:   5/   3)   2u2d2202        0.055277       0.003056
         207  ( 4:1:   1/   2)   2u2u22dd       -0.197032       0.038822
         262  ( 5:1:   2/   7)   202u22d2       -0.122402       0.014982
 
  The CI coefficients for the MIXED state nr.   7
--------------------------------------------------------------------------------
 CI COEFFICIENTS LARGER THAN  0.50D-01
  Occupation of active orbitals, and spin coupling
  of open shells. (u,d: Spin up or down).
  SGUGA info is (Midvert:IsyUp:UpperWalk/LowerWalk)
        Conf  SGUGA info        Occupation    Coefficient         Weight
           3  ( 1:1:   3/   1)   2222u2d0       -0.855555       0.731975
           8  ( 1:1:   8/   1)   2222u20d       -0.113369       0.012853
          21  ( 2:1:   1/   1)   222u22d0       -0.149763       0.022429
          24  ( 2:1:   4/   1)   222u220d       -0.158205       0.025029
          26  ( 2:1:   6/   1)   222ud2ud        0.222389       0.049457
          28  ( 2:1:   8/   1)   222uu2dd        0.307715       0.094689
          41  ( 2:1:   1/   2)   22u222d0        0.073871       0.005457
          46  ( 2:1:   6/   2)   22u2d2ud        0.086725       0.007521
          48  ( 2:1:   8/   2)   22u2u2dd        0.086103       0.007414
          81  ( 2:1:   1/   4)   u22222d0        0.050580       0.002558
         127  ( 3:1:   7/   3)   2u2du2d2        0.088432       0.007820
         177  ( 3:1:   7/   8)   2022u2d2        0.076401       0.005837
 
--
 
--- Stop Module: caspt2 at Wed Nov 13 20:56:28 2024 /rc=_RC_ALL_IS_WELL_ ---
*** files: xmldump
    saved to directory /home/pcaah4
--- Module caspt2 spent 6 minutes 47 seconds ---

.##################.
.# Happy landing! #.
.##################.

    Timing: Wall=650.49 User=566.85 System=74.11
******************************************************
*** WorkDir at /srv/COMMUNAL_SCRATCH/10399 cleaned ***
******************************************************
