   This run of MOLCAS is using the pymolcas driver

                             OPE
                             OPE          NMOL  CASOP  ENMOLC A   SO
                 OPE        NMOLC        AS  OP EN  MO LC     AS  OP
                OPENM       OL CA        SO  PE NM  OL CA     SOP EN
                OP EN      MO   LC       AS  OP ENMOL  CASO   PENMOL
                OP  EN     MO   LC       AS  OP EN     MO     LC ASO
               OP   E  NMOL  C  AS       OP  EN MO     LC     AS  OP
               OP  E   NMO   LC AS        OPEN  MO     LCASOP EN   M
               O  PEN   MO  LCA  SO
            OPE   NMO   L   CAS    OP
        OPENMOL  CASOP     ENMOL   CASOPE
     OPENMOLCA   SOPENMOLCASOPEN   MOLCASOPE
    OPENMOLCAS   OP           EN   MOL    CAS
    OPENMOLCAS       OP  ENM        O     LCA
    OPENMOLCAS    OPEN  MOLCASO     P  E  NMO
    OPENMOLCAS     OP               E  N  MOL
    OPENMOLCA   SO           PENM   O  L  CAS    OPEN    MO    LCAS
    OPENMOLCA   SOP           ENM   O  L  CAS   OP  EN  MOLC  AS   O
    OPENMOLCA   SOPE           NM      O  LCA   S      OP  EN MO
    OPENMOLC                AS         O  PEN   M      OL  CA  SOPE
    OPENMO        LCASOPE  NMOL        C  ASO   P      ENMOLC     AS
    OPE     NMO      LCA  SO     P     E   NM   OL  CA SO  PE N   MO
          OPENMOLCA            SOPE   NMO        LCAS  O    P  ENMO
     OPENMOLCASOPENMOLCASOPENMOLCASOPENMOLCA
        OPENMOLCASOPENMOLCASOPENMOLCASOPE
            OPENMOLCASOPENMOLCASOPENM
               OPENMOLCASOPENMOLCA        version: v23.06
                   OPENMOLCASO
                       OPE                tag:

 OpenMolcas is free software; you can redistribute it and/or modify it
 under the terms of the GNU Lesser General Public License version 2.1.
 OpenMolcas is distributed in the hope that it will be useful, but it
 is provided "as is" and without any express or implied warranties.
 For more details see the full text of the license in the file
 LICENSE or in <http://www.gnu.org/licenses/>.

                 Copyright (C) The OpenMolcas Authors
           For the author list and the recommended citation,
                   consult the file CONTRIBUTORS.md

           *************************************************
           * pymolcas version py2.24                       *
           *   build 4567b286dd94b1984b333a4ddf893180      *
           *   (after the EMIL interpreter by V. Veryazov) *
           *************************************************

configuration info
------------------
Host name: loginchem01.nottingham.ac.uk (Linux)
C Compiler ID: Intel
C flags: -std=gnu99 -gcc-sys -qopenmp
Fortran Compiler ID: Intel
Fortran flags: -fpp -i8 -heap-arrays -qopenmp
Definitions: _MOLCAS_;_I8_;_LINUX_
Parallel: OFF (GA=OFF)


   -----------------------------------------------------------------------------------------------------------
  |
  |              Project: orca_geometry_optimisation_210_90_BP86_def2-SVP_def2J_scf_cas1_ras12i11_cas2_ras12i8
  |       Submitted from: /home/pcaah4
  |         Scratch area: /srv/COMMUNAL_SCRATCH/10390
  |      Save outputs to: /home/pcaah4
  |               Molcas: /software/chemistry/openmolcas/openmolcas-23.06-openmp
  |
  | Scratch area is empty
  |
  |       MOLCAS_DRIVER = /software/chemistry/openmolcas/openmolcas-23.06-openmp/sbin/pymolcas
  | MOLCAS_KEEP_WORKDIR = NO
  |       MOLCAS_NPROCS = 1
  |       MOLCAS_SOURCE = /software/chemistry/openmolcas/openmolcas-23.06-openmp
  |    MOLCAS_STRUCTURE = 0
  |
   -----------------------------------------------------------------------------------------------------------

++ ---------   Input file   ---------

&SEWARD
TITLE
orca_geometry_optimisation_210_90_BP86_def2-SVP_def2J_scf_cas1_ras12i11
MULTIPOLES
2
SDIPOLE
ANGMOM
0 0 0
BASIS SET
C.ANO-S...4S3P1D.
C1           -0.003650   -0.056582   -0.054934 /Angstrom
C3            2.168612    1.129651   -0.016280 /Angstrom
C4            3.507799    0.901277   -0.733638 /Angstrom
C6            4.640636    0.950064   -2.935695 /Angstrom
C19          -0.686504   -1.409644    0.115110 /Angstrom
END OF BASIS
BASIS SET
N.ANO-S...4S3P1D.
N2            1.375961   -0.091648   -0.045785 /Angstrom
N5            3.492922    1.176326   -2.078094 /Angstrom
END OF BASIS
BASIS SET
O.ANO-S...4S3P1D.
O7           -0.635780    0.987629   -0.204450 /Angstrom
O8            4.486253    0.447991   -0.139198 /Angstrom
END OF BASIS
BASIS SET
H.ANO-S...2S1P.
H9           -1.212915   -1.423801    1.091229 /Angstrom
H10          -1.459940   -1.516882   -0.669894 /Angstrom
H11           0.004421   -2.274332    0.068503 /Angstrom
H12           1.849679   -0.956111    0.225535 /Angstrom
H13           1.545046    1.923791   -0.474276 /Angstrom
H14           2.408948    1.439499    1.024648 /Angstrom
H15           2.629291    1.533755   -2.489033 /Angstrom
H16           4.422640    0.200122   -3.726355 /Angstrom
H17           4.980047    1.888057   -3.424545 /Angstrom
H18           5.455578    0.566032   -2.292985 /Angstrom
END OF BASIS
END OF INPUT

&RASSCF
TITLE
orca_geometry_optimisation_210_90_BP86_def2-SVP_def2J_scf_cas1_ras12i11
LUMORB
SPIN
1
SYMMETRY
1
NACTEL
12  0  0
INACTIVE
29
DELETED  ! delete Rydberg orbitals from an initial CAS(12,11) if done
3
FROZEN
0
RAS2
8
ITERATIONS
64 25
CIROOT
7 7
1 2 3 4 5 6 7
1 1 1 1 1 1 1
LEVSHFT
0.3
CIMX
20
FILEorb = /home/pcaah4/outputs/cas1_ras12i11_rasorb_files/orca_geometry_optimisation_210_90_BP86_def2-SVP_def2J_scf_cas1_ras12i11.RasOrb
ALTEr
3
 1 38 210
 1 39 211
 1 40 212
END OF INPUT

&RASSI
NROF JOBIPH
    1 7
    1 2 3 5 4 6 7
TOFILE
TRDI
TDMN
1.0D-6
END OF INPUT

&CASPT2
TITLE
orca_geometry_optimisation_210_90_BP86_def2-SVP_def2J_scf_cas1_ras12i11
MULTISTATE
7 1 2 3 4 5 6 7
SHIFT
0.35
MAXITER
50
END OF INPUT

-- ----------------------------------

--- Start Module: seward at Wed Nov 13 20:15:36 2024 ---
 
()()()()()()()()()()()()()()()()()()()()()()()()()()()()()()()()()()()()()()()()()()()()()()()()()()

                                              &SEWARD

                                   only a single process is used
                       available to each process: 2.0 GB of memory, 1 thread
                                            pid: 1792044
()()()()()()()()()()()()()()()()()()()()()()()()()()()()()()()()()()()()()()()()()()()()()()()()()()
 
               SEWARD will generate:
                  Multipole Moment integrals up to order  2
                  Kinetic Energy integrals
                  Nuclear Attraction integrals (point charge)
                  One-Electron Hamiltonian integrals
                  Velocity integrals
                  Orbital angular momentum around ( 0.0000  0.0000  0.0000 )
                  Velocity quadrupole around ( 3.8655  0.8386 -1.3002 )
                  Two-Electron Repulsion integrals
 
 Title:
            orca_geometry_optimisation_210_90_BP86_def2-SVP_def2J_scf_cas1_ras12i11     
 
 
                   Integrals are discarded if absolute value <: 0.10E-13
                   Integral cutoff threshold is set to       <: 0.10E-15
 
++    Symmetry information:
      ---------------------
 
                    Character Table for C1 
 
                             E  
                    a        1  x, y, xy, Rz, z, xz, Ry, yz, Rx, I
--
 
 
++    Basis set information:
      ----------------------
 
 
      Basis set label: C.ANO-S...4S3P1D......
 
      Electronic valence basis set:
      ------------------
      Associated Effective Charge   6.000000 au
      Associated Actual Charge      6.000000 au
      Nuclear Model: Point charge
 
      Shell  nPrim  nBasis  Cartesian Spherical Contaminant
         s      10       4        X                  
         p       6       3        X                  
         d       3       1                 X         
 
 
      Basis set label: N.ANO-S...4S3P1D......
 
      Electronic valence basis set:
      ------------------
      Associated Effective Charge   7.000000 au
      Associated Actual Charge      7.000000 au
      Nuclear Model: Point charge
 
      Shell  nPrim  nBasis  Cartesian Spherical Contaminant
         s      10       4        X                  
         p       6       3        X                  
         d       3       1                 X         
 
 
      Basis set label: O.ANO-S...4S3P1D......
 
      Electronic valence basis set:
      ------------------
      Associated Effective Charge   8.000000 au
      Associated Actual Charge      8.000000 au
      Nuclear Model: Point charge
 
      Shell  nPrim  nBasis  Cartesian Spherical Contaminant
         s      10       4        X                  
         p       6       3        X                  
         d       3       1                 X         
 
 
      Basis set label: H.ANO-S...2S1P......
 
      Electronic valence basis set:
      ------------------
      Associated Effective Charge   1.000000 au
      Associated Actual Charge      1.000000 au
      Nuclear Model: Point charge
 
      Shell  nPrim  nBasis  Cartesian Spherical Contaminant
         s       7       2        X                  
         p       3       1        X                  
--
 
 
++    Molecular structure info:
      -------------------------
 
                    ************************************************ 
                    **** Cartesian Coordinates / Bohr, Angstrom **** 
                    ************************************************ 
 
     Center  Label                x              y              z                     x              y              z
        1      C1              -0.006898      -0.106924      -0.103810             -0.003650      -0.056582      -0.054934
        2      C3               4.098083       2.134731      -0.030765              2.168612       1.129651      -0.016280
        3      C4               6.628779       1.703167      -1.386375              3.507799       0.901277      -0.733638
        4      C6               8.769531       1.795361      -5.547660              4.640636       0.950064      -2.935695
        5      C19             -1.297305      -2.663841       0.217526             -0.686504      -1.409644       0.115110
        6      N2               2.600189      -0.173190      -0.086521              1.375961      -0.091648      -0.045785
        7      N5               6.600666       2.222934      -3.927029              3.492922       1.176326      -2.078094
        8      O7              -1.201450       1.866348      -0.386355             -0.635780       0.987629      -0.204450
        9      O8               8.477789       0.846580      -0.263046              4.486253       0.447991      -0.139198
       10      H9              -2.292077      -2.690594       2.062124             -1.212915      -1.423801       1.091229
       11      H10             -2.758887      -2.866492      -1.265916             -1.459940      -1.516882      -0.669894
       12      H11              0.008354      -4.297865       0.129452              0.004421      -2.274332       0.068503
       13      H12              3.495387      -1.806788       0.426199              1.849679      -0.956111       0.225535
       14      H13              2.919714       3.635438      -0.896252              1.545046       1.923791      -0.474276
       15      H14              4.552252       2.720259       1.936304              2.408948       1.439499       1.024648
       16      H15              4.968640       2.898377      -4.703591              2.629291       1.533755      -2.489033
       17      H16              8.357578       0.378176      -7.041790              4.422640       0.200122      -3.726355
       18      H17              9.410925       3.567911      -6.471452              4.980047       1.888057      -3.424545
       19      H18             10.309548       1.069645      -4.333114              5.455578       0.566032      -2.292985
 
                    ************************************************* 
                    **** InterNuclear Distances / Bohr, Angstrom **** 
                    ************************************************* 
 
     Atom centers         Bohr        Angstrom
   16 H15       7 N5      1.929451        1.021021
   13 H12       6 N2      1.932072        1.022409
   19 H18       4 C6      2.091276        1.106656
   11 H10       5 C19     2.092341        1.107219
   12 H11       5 C19     2.093451        1.107806
   14 H13       2 C3      2.095171        1.108717
   10 H9        5 C19     2.095908        1.109107
   18 H17       4 C6      2.099217        1.110858
   17 H16       4 C6      2.100130        1.111341
   15 H14       2 C3      2.102016        1.112339
    8 O7        1 C1      2.323918        1.229764
    9 O8        3 C4      2.326896        1.231340
    7 N5        3 C4      2.593428        1.372383
    6 N2        1 C1      2.607986        1.380087
    7 N5        4 C6      2.741029        1.450490
    6 N2        2 C3      2.751961        1.456275
    5 C19       1 C1      2.882053        1.525117
    3 C4        2 C3      2.903162        1.536287
   11 H10      10 H9      3.365220        1.780797
   15 H14      14 H13     3.395012        1.796563
   18 H17      17 H16     3.407232        1.803030
   12 H11      10 H9      3.407422        1.803130
   19 H18      18 H17     3.409009        1.803970
   19 H18      17 H16     3.409582        1.804273
   12 H11      11 H10     3.413723        1.806464
   16 H15       3 C4      3.897244        2.062333
   19 H18       7 N5      3.905226        2.066556
   14 H13       6 N2      3.906841        2.067411
   13 H12       1 C1      3.928924        2.079097
   13 H12       2 C3      4.013431        2.123816
   18 H17       7 N5      4.022513        2.128622
   17 H16       7 N5      4.023881        2.129346
   15 H14       6 N2      4.034156        2.134783
   16 H15       4 C6      4.046711        2.141427
   15 H14       3 C4      4.048041        2.142131
   11 H10       1 C1      4.066835        2.152076
   10 H9        1 C1      4.072918        2.155296
   12 H11       1 C1      4.197454        2.221197
   14 H13       3 C4      4.210827        2.228274
   13 H12      12 H11     4.295686        2.273179
    8 O7        6 N2      4.324590        2.288474
    9 O8        7 N5      4.340819        2.297062
   16 H15      14 H13     4.386022        2.320983
   19 H18       9 O8      4.468842        2.364809
   14 H13       8 O7      4.513720        2.388558
    9 O8        2 C3      4.571118        2.418931
    8 O7        5 C19     4.571266        2.419010
    6 N2        3 C4      4.630321        2.450260
    7 N5        2 C3      4.631584        2.450929
    6 N2        5 C19     4.635326        2.452909
    2 C3        1 C1      4.677736        2.475352
    4 C6        3 C4      4.680556        2.476844
   19 H18       3 C4      4.757381        2.517498
   16 H15       2 C3      4.814180        2.547554
   14 H13       1 C1      4.816461        2.548761
   17 H16      16 H15     4.827369        2.554534
   18 H17      16 H15     4.827785        2.554754
   13 H12       5 C19     4.873189        2.578781
   15 H14       9 O8      4.874183        2.579306
   12 H11       6 N2      4.876187        2.580367
   15 H14      13 H12     4.887897        2.586563
   14 H13       7 N5      4.972945        2.631569
   13 H12       3 C4      5.042158        2.668195
   11 H10       8 O7      5.059547        2.677397
   10 H9        8 O7      5.286798        2.797653
    8 O7        2 C3      5.318225        2.814284
    9 O8        4 C6      5.377029        2.845401
   14 H13      13 H12     5.630107        2.979324
   19 H18      16 H15     5.657457        2.993797
--
 
 
            Nuclear Potential Energy            447.61055394 au
 
 
      Basis set specifications :
      Symmetry species         a  
      Basis functions          212
 
 
      Input file to MOLDEN was generated!
 
--- Stop Module: seward at Wed Nov 13 20:17:28 2024 /rc=_RC_ALL_IS_WELL_ ---
*** files: orca_geometry_optimisation_210_90_BP86_def2-SVP_def2J_scf_cas1_ras12i11_cas2_ras12i8.GssOrb
           orca_geometry_optimisation_210_90_BP86_def2-SVP_def2J_scf_cas1_ras12i11_cas2_ras12i8.guessorb.molden xmldump
    saved to directory /home/pcaah4
--- Module seward spent 1 minute 51 seconds ---

*** symbolic link created: INPORB -> orca_geometry_optimisation_210_90_BP86_def2-SVP_def2J_scf_cas1_ras12i11_cas2_ras12i8.GssOrb
--- Start Module: rasscf at Wed Nov 13 20:17:28 2024 ---
 
()()()()()()()()()()()()()()()()()()()()()()()()()()()()()()()()()()()()()()()()()()()()()()()()()()

                                              &RASSCF

                                   only a single process is used
                       available to each process: 2.0 GB of memory, 1 thread
                                            pid: 1792342
()()()()()()()()()()()()()()()()()()()()()()()()()()()()()()()()()()()()()()()()()()()()()()()()()()
 
 
      Header of the ONEINT file:
      --------------------------
      orca_geometry_optimisation_210_90_BP86_def2-SVP_def2J_scf_cas1_ras12i11
      Integrals generated by Gateway/Seward, Wed Nov 13 20:15:40 2024
 
 
      OrdInt status: non-squared
 
 
      Cartesian coordinates in Angstrom:
      -----------------------------------------------------
      No.  Label        X            Y            Z        
      -----------------------------------------------------
       1   C1        -0.00365000  -0.05658200  -0.05493400
       2   C3         2.16861200   1.12965100  -0.01628000
       3   C4         3.50779900   0.90127700  -0.73363800
       4   C6         4.64063600   0.95006400  -2.93569500
       5   C19       -0.68650400  -1.40964400   0.11511000
       6   N2         1.37596100  -0.09164800  -0.04578500
       7   N5         3.49292200   1.17632600  -2.07809400
       8   O7        -0.63578000   0.98762900  -0.20445000
       9   O8         4.48625300   0.44799100  -0.13919800
      10   H9        -1.21291500  -1.42380100   1.09122900
      11   H10       -1.45994000  -1.51688200  -0.66989400
      12   H11        0.00442100  -2.27433200   0.06850300
      13   H12        1.84967900  -0.95611100   0.22553500
      14   H13        1.54504600   1.92379100  -0.47427600
      15   H14        2.40894800   1.43949900   1.02464800
      16   H15        2.62929100   1.53375500  -2.48903300
      17   H16        4.42264000   0.20012200  -3.72635500
      18   H17        4.98004700   1.88805700  -3.42454500
      19   H18        5.45557800   0.56603200  -2.29298500
      -----------------------------------------------------
      Nuclear repulsion energy =  447.61055394
 
++    Wave function specifications:
      -----------------------------
 
      Number of closed shell electrons          58
      Number of electrons in active shells      12
      Max number of holes in RAS1 space          0
      Max nr of electrons in RAS3 space          0
      Number of inactive orbitals               29
      Number of active orbitals                  8
      Number of secondary orbitals             172
      Spin quantum number                      0.0
      State symmetry                             1
--
 
++    Orbital specifications:
      -----------------------
 
      Symmetry species                           1
                                                 a
      Frozen orbitals                            0
      Inactive orbitals                         29
      Active orbitals                            8
      RAS1 orbitals                              0
      RAS2 orbitals                              8
      RAS3 orbitals                              0
      Secondary orbitals                       172
      Deleted orbitals                           3
      Number of basis functions                212
--
 
++    CI expansion specifications:
      ----------------------------
 
      Number of CSFs                           336
      Number of determinants                   406
      Number of root(s) required                 7
      Root chosen for geometry opt.              7
      CI roots used                              1     2     3     4     5     6     7
      weights                                0.143 0.143 0.143 0.143 0.143 0.143 0.143
      highest root included in the CI            7
      max. size of the explicit Hamiltonian    200
--
 
++    Optimization specifications:
      ----------------------------
 
      RASSCF algorithm: Conventional
      Maximum number of macro iterations        64
      Maximum number of SX iterations           25
      Threshold for RASSCF energy            0.100E-07
      Threshold for max MO rotation          0.100E+00
      Threshold for max BLB element          0.100E-03
      Level shift parameter                  0.300E+00
      Make Quasi-Newton update
--
 
      The MO-coefficients are taken from the file:
      /home/pcaah4/outputs/cas1_ras12i11_rasorb_files/orca_geometry_optimisation_210_90_BP86_def2-SVP_def2J_scf_cas1_ras12i11.RasOrb                                                                                                                                  
      Title: RASSCF average (pseudo-natural) orbitals                                      
 
      Total molecular charge    0.00
 
      Molecular orbitals exchanged:
        In symmetry  1 :  38 210
        In symmetry  1 :  39 211
        In symmetry  1 :  40 212
 
 
      ************************************************************************************************************************
      *                                                                                                                      *
      *                                            Wave function control section                                             *
      *                                                                                                                      *
      ************************************************************************************************************************
 
 
                                         RASSCF iterations: Energy and convergence statistics
                                         ----------------------------------------------------
 
      Iter CI   SX   CI       RASSCF       Energy    max ROT     max BLB   max BLB  Level Ln srch  Step   QN   Walltime
          iter iter root      energy       change     param      element    value   shift minimum  type update hh:mm:ss
 Nr of preliminary CI iterations:   5
        1   1    9    0  -453.70261255    0.00E+00   0.22E-01   34 143 1  0.13E-01*  0.18   0.00    SX    NO    0:00:13
        2   4    8    0  -453.70559002   -0.30E-02*  0.13E-01   11  40 1 -0.29E-02*  0.18   0.00    SX    NO    0:00:06
        3   1    8    0  -453.70581667   -0.23E-03*  0.55E-02   20  68 1 -0.20E-02*  0.18   0.00    SX    NO    0:00:06
        4   7    8    0  -453.70594442   -0.13E-03*  0.45E-02   22  97 1  0.40E-03*  0.18   0.00    SX    NO    0:00:06
        5   3    7    0  -453.70597027   -0.26E-04*  0.58E-02   22  98 1 -0.46E-03*  0.18   1.39    QN   YES    0:00:06
        6   4    7    0  -453.70598454   -0.14E-04*  0.71E-03   30 114 1 -0.19E-03*  0.18   0.97    QN   YES    0:00:06
        7   3    6    0  -453.70598588   -0.13E-05*  0.11E-02   22  98 1 -0.13E-03*  0.18   1.40    QN   YES    0:00:06
        8   6    6    0  -453.70598657   -0.69E-06* -0.26E-03   20  36 1  0.45E-04   0.18   1.02    QN   YES    0:00:06
        9   3    6    0  -453.70598670   -0.12E-06* -0.16E-03   31 158 1 -0.21E-04   0.18   1.64    LS   YES    0:00:06
       10   3    5    0  -453.70598672   -0.23E-07*  0.16E-03   20  68 1 -0.21E-04   0.18   1.01    QN   YES    0:00:06
       11   1    5    0  -453.70598674   -0.20E-07*  0.77E-04   23  82 1  0.72E-05   0.18   1.44    QN   YES    0:00:06
       12   1    5    0  -453.70598674   -0.51E-08   0.27E-04   36  41 1  0.23E-05   0.18   1.26    QN   YES    0:00:06
      Convergence after 12 iterations
       13   1    5    0  -453.70598674   -0.78E-09   0.27E-04   20  85 1  0.12E-05   0.18   1.26    QN   YES    0:00:06
 
      ************************************************************************************************************************
                                                      Wave function printout:
                       occupation of active orbitals, and spin coupling of open shells (u,d: Spin up or down)
      ************************************************************************************************************************
 
      Note: transformation to natural orbitals
      has been made, which may change the order of the CSFs.
 
      printout of CI-coefficients larger than  0.05 for root  1
      energy=    -453.957993
      conf/sym  11111111     Coeff  Weight
             1  22222200   0.96301 0.92738
             6  22220220  -0.08607 0.00741
             7  22222u0d   0.13619 0.01855
            15  22222002  -0.07590 0.00576
            64  2u22220d  -0.07768 0.00603
            73  2u222d02   0.06511 0.00424
            81  u22222d0   0.08818 0.00778
           175  20222202  -0.10062 0.01012
           191  02222220  -0.07900 0.00624
 
      printout of CI-coefficients larger than  0.05 for root  2
      energy=    -453.747561
      conf/sym  11111111     Coeff  Weight
            21  222u22d0  -0.08763 0.00768
            24  222u220d   0.95689 0.91564
            32  222u022d  -0.08421 0.00709
            33  222u2d02  -0.09018 0.00813
           125  2u2d2202   0.18662 0.03483
           213  u22u22dd  -0.07251 0.00526
           269  022u222d   0.07927 0.00628
 
      printout of CI-coefficients larger than  0.05 for root  3
      energy=    -453.738634
      conf/sym  11111111     Coeff  Weight
             2  22222ud0  -0.20268 0.04108
             3  2222u2d0   0.07849 0.00616
            41  22u222d0  -0.92366 0.85315
            43  22u2d220   0.17571 0.03088
            45  22u22dud  -0.05935 0.00352
            47  22u22udd   0.10297 0.01060
            55  22u220d2  -0.07839 0.00614
           161  u2d22220   0.13361 0.01785
           219  2uu222dd   0.06639 0.00441
           222  2uu22dd2  -0.05239 0.00274
           294  20u222d2   0.09518 0.00906
 
      printout of CI-coefficients larger than  0.05 for root  4
      energy=    -453.647306
      conf/sym  11111111     Coeff  Weight
             2  22222ud0   0.43605 0.19014
             3  2222u2d0  -0.78765 0.62038
             5  2222ud20   0.05078 0.00258
             6  22220220  -0.06395 0.00409
             7  22222u0d  -0.21354 0.04560
            12  2222uudd   0.08488 0.00721
            18  2222u0d2  -0.06864 0.00471
            41  22u222d0  -0.16646 0.02771
            65  2u222dud   0.05512 0.00304
            67  2u222udd  -0.08108 0.00657
            68  2u22u2dd   0.05719 0.00327
            73  2u222d02  -0.05299 0.00281
            81  u22222d0   0.09216 0.00849
            83  u222d220   0.19239 0.03701
           176  20222ud2  -0.05791 0.00335
           177  2022u2d2   0.07921 0.00627
           191  02222220   0.05472 0.00299
 
      printout of CI-coefficients larger than  0.05 for root  5
      energy=    -453.631087
      conf/sym  11111111     Coeff  Weight
             1  22222200   0.07937 0.00630
             2  22222ud0   0.53641 0.28774
             3  2222u2d0   0.48516 0.23538
             7  22222u0d  -0.56402 0.31811
            14  22220u2d  -0.05342 0.00285
            15  22222002  -0.11866 0.01408
            21  222u22d0   0.14654 0.02147
            27  222u2udd   0.06620 0.00438
            41  22u222d0  -0.09355 0.00875
            65  2u222dud   0.08913 0.00794
            67  2u222udd  -0.11148 0.01243
            73  2u222d02  -0.14277 0.02038
            83  u222d220  -0.12516 0.01566
            87  u2222udd   0.05877 0.00345
           175  20222202   0.06725 0.00452
           176  20222ud2  -0.07340 0.00539
           177  2022u2d2  -0.05011 0.00251
 
      printout of CI-coefficients larger than  0.05 for root  6
      energy=    -453.624075
      conf/sym  11111111     Coeff  Weight
             1  22222200  -0.07306 0.00534
             2  22222ud0   0.58962 0.34765
             3  2222u2d0   0.15996 0.02559
             7  22222u0d   0.54994 0.30243
            15  22222002   0.09876 0.00975
            21  222u22d0  -0.42516 0.18076
            25  222u2dud   0.10333 0.01068
            27  222u2udd  -0.14781 0.02185
            41  22u222d0  -0.08137 0.00662
            65  2u222dud   0.09595 0.00921
            67  2u222udd  -0.14270 0.02036
            73  2u222d02   0.14008 0.01962
            87  u2222udd  -0.05098 0.00260
           175  20222202  -0.05815 0.00338
           176  20222ud2  -0.09036 0.00816
 
      printout of CI-coefficients larger than  0.05 for root  7
      energy=    -453.595251
      conf/sym  11111111     Coeff  Weight
             1  22222200  -0.05299 0.00281
             2  22222ud0   0.19660 0.03865
             6  22220220   0.05270 0.00278
             7  22222u0d   0.40689 0.16556
            15  22222002   0.10346 0.01070
            21  222u22d0   0.76811 0.58999
            24  222u220d   0.09124 0.00832
            25  222u2dud  -0.19667 0.03868
            27  222u2udd   0.27395 0.07505
            41  22u222d0  -0.05558 0.00309
            73  2u222d02   0.09711 0.00943
            81  u22222d0  -0.07952 0.00632
           112  22ud22ud  -0.06795 0.00462
           175  20222202  -0.05374 0.00289
           201  22uu22dd  -0.06910 0.00478
           210  2u2u2dd2  -0.06577 0.00433
           262  202u22d2  -0.06740 0.00454
 
      Natural orbitals and occupation numbers for root  1
      sym 1:   1.969020   1.995940   1.999850   1.999533   1.994748   1.954335   0.036686   0.049888
 
      Natural orbitals and occupation numbers for root  2
      sym 1:   1.969107   1.999906   1.999830   1.007484   1.995084   1.999467   0.036003   0.993119
 
      Natural orbitals and occupation numbers for root  3
      sym 1:   1.999909   1.994368   1.005551   1.999517   1.999129   1.954455   0.996636   0.050433
 
      Natural orbitals and occupation numbers for root  4
      sym 1:   1.971848   1.964533   1.999363   1.999155   1.138506   1.916348   0.905679   0.104567
 
      Natural orbitals and occupation numbers for root  5
      sym 1:   1.977652   1.934980   1.998554   1.992729   1.853359   1.141348   0.897458   0.203918
 
      Natural orbitals and occupation numbers for root  6
      sym 1:   1.995639   1.942667   1.997629   1.882768   1.983670   1.131032   0.878522   0.188073
 
      Natural orbitals and occupation numbers for root  7
      sym 1:   1.997362   1.971509   1.992346   1.319438   1.984534   1.775863   0.700099   0.258849
 
      ************************************************************************************************************************
      *                                                                                                                      *
      *                                                    Final results                                                     *
      *                                                                                                                      *
      ************************************************************************************************************************
 
 
++    Wave function specifications:
      -----------------------------
 
      Number of closed shell electrons          58
      Number of electrons in active shells      12
      Max number of holes in RAS1 space          0
      Max nr of electrons in RAS3 space          0
      Number of inactive orbitals               29
      Number of active orbitals                  8
      Number of secondary orbitals             172
      Spin quantum number                      0.0
      State symmetry                             1
--
 
++    Orbital specifications:
      -----------------------
 
      Symmetry species                           1
                                                 a
      Frozen orbitals                            0
      Inactive orbitals                         29
      Active orbitals                            8
      RAS1 orbitals                              0
      RAS2 orbitals                              8
      RAS3 orbitals                              0
      Secondary orbitals                       172
      Deleted orbitals                           3
      Number of basis functions                212
--
 
++    CI expansion specifications:
      ----------------------------
 
      Number of CSFs                           336
      Number of determinants                   406
      Number of root(s) required                 7
      CI roots used                              1     2     3     4     5     6     7
      weights                                0.143 0.143 0.143 0.143 0.143 0.143 0.143
      highest root included in the CI            7
      Root passed to geometry opt.               7
--
 
++    Final optimization conditions:
      ------------------------------
 
      Average CI energy                            -453.70598674
      RASSCF energy for state  7                   -453.59525122
      Super-CI energy                                -0.00000000
      RASSCF energy change                            0.00000000
      Max change in MO coefficients              -0.324E-04
      Max non-diagonal density matrix element     0.266E-04
      Maximum BLB matrix element                  0.117E-05
      (orbital pair  20,  85 in symmetry   1)
      Norm of electronic gradient            0.250E+00
--
 
 
      Final state energy(ies):
      ------------------------
 
::    RASSCF root number  1 Total energy:   -453.95799277
::    RASSCF root number  2 Total energy:   -453.74756104
::    RASSCF root number  3 Total energy:   -453.73863427
::    RASSCF root number  4 Total energy:   -453.64730555
::    RASSCF root number  5 Total energy:   -453.63108736
::    RASSCF root number  6 Total energy:   -453.62407500
::    RASSCF root number  7 Total energy:   -453.59525122
 
++    Molecular orbitals:
      -------------------
 
      Pseudonatural active orbitals and approximate occupation numbers
 
 
 
 
      Molecular orbitals for symmetry species 1: a  
 
 
      Orbital                 1         2         3         4         5         6         7         8         9        10
      Energy           -20.6073  -20.5163  -15.6405  -15.5817  -11.3439  -11.2877  -11.2863  -11.2622  -11.2609   -1.4290
      Occ. No.           2.0000    2.0000    2.0000    2.0000    2.0000    2.0000    2.0000    2.0000    2.0000    2.0000
 
     1 C1     1s         0.0003   -0.0001    0.0002   -0.0001    0.9999    0.0001    0.0000    0.0038   -0.0001   -0.0386
     2 C1     2s         0.0009   -0.0009    0.0010   -0.0006    0.0020   -0.0005   -0.0001    0.0005   -0.0006    0.3567
     3 C1     3s        -0.0005   -0.0007    0.0003   -0.0004   -0.0003   -0.0005   -0.0000    0.0008   -0.0005   -0.0026
     4 C1     4s        -0.0004   -0.0002    0.0000   -0.0001    0.0012   -0.0003   -0.0000    0.0003   -0.0001    0.0041
     5 C1     2px       -0.0012   -0.0005    0.0017   -0.0004    0.0012    0.0001    0.0001    0.0004   -0.0001   -0.0405
     6 C1     3px       -0.0008   -0.0003    0.0012   -0.0005    0.0013   -0.0003    0.0004   -0.0001   -0.0002    0.0249
     7 C1     4px        0.0001    0.0001   -0.0001   -0.0001    0.0005   -0.0003    0.0001   -0.0002   -0.0000   -0.0128
     8 C1     2py        0.0030   -0.0002    0.0001   -0.0000    0.0011   -0.0000    0.0004    0.0006   -0.0001    0.0968
     9 C1     3py        0.0020   -0.0003    0.0001   -0.0000    0.0010   -0.0005    0.0003   -0.0002   -0.0001   -0.0702
    10 C1     4py       -0.0004   -0.0001    0.0000   -0.0000    0.0007   -0.0004   -0.0000   -0.0003   -0.0000    0.0233
    11 C1     2pz       -0.0005   -0.0001    0.0002   -0.0001   -0.0002   -0.0000   -0.0000   -0.0000    0.0000   -0.0118
    12 C1     3pz       -0.0003   -0.0001    0.0001   -0.0002   -0.0001   -0.0000    0.0000    0.0001    0.0000    0.0098
    13 C1     4pz        0.0001   -0.0000   -0.0000   -0.0001   -0.0001    0.0000    0.0000    0.0000    0.0000   -0.0040
    14 C1     3d2-       0.0001   -0.0000    0.0001    0.0000   -0.0004    0.0000    0.0000   -0.0001   -0.0000   -0.0320
    15 C1     3d1-      -0.0000   -0.0000    0.0000   -0.0000   -0.0001    0.0000   -0.0000   -0.0000    0.0000   -0.0087
    16 C1     3d0       -0.0000    0.0000    0.0001    0.0000   -0.0004   -0.0001   -0.0000   -0.0001    0.0000   -0.0268
    17 C1     3d1+      -0.0000   -0.0000    0.0000   -0.0000    0.0001    0.0000   -0.0000    0.0000   -0.0000    0.0050
    18 C1     3d2+       0.0001   -0.0000   -0.0002   -0.0000   -0.0001    0.0000   -0.0000    0.0000    0.0000   -0.0127
    19 C3     1s         0.0001    0.0002    0.0003    0.0001   -0.0001    0.9760    0.2151   -0.0000    0.0000   -0.0086
    20 C3     2s         0.0009    0.0011    0.0017    0.0009    0.0002   -0.0019    0.0005   -0.0005    0.0006    0.0188
    21 C3     3s         0.0006    0.0008    0.0009    0.0007    0.0001   -0.0030    0.0003   -0.0003    0.0003   -0.0163
    22 C3     4s         0.0001    0.0001    0.0002    0.0001   -0.0001    0.0006    0.0003   -0.0000    0.0000   -0.0018
    23 C3     2px        0.0002   -0.0005   -0.0003    0.0004    0.0008   -0.0010   -0.0002   -0.0002   -0.0001   -0.0225
    24 C3     3px        0.0003   -0.0007    0.0003    0.0004    0.0014   -0.0011    0.0003   -0.0003   -0.0005   -0.0136
    25 C3     4px        0.0001   -0.0002    0.0002   -0.0000    0.0005   -0.0006    0.0000   -0.0001   -0.0002   -0.0073
    26 C3     2py       -0.0003   -0.0001   -0.0007   -0.0005    0.0003    0.0001   -0.0003   -0.0000   -0.0001   -0.0173
    27 C3     3py       -0.0002    0.0000   -0.0001   -0.0004    0.0004    0.0002   -0.0002   -0.0002   -0.0001   -0.0040
    28 C3     4py        0.0000    0.0001    0.0002    0.0001    0.0001   -0.0008   -0.0001   -0.0001   -0.0000   -0.0045
    29 C3     2pz       -0.0002   -0.0005   -0.0003    0.0004   -0.0002   -0.0002   -0.0001    0.0002   -0.0006    0.0096
    30 C3     3pz       -0.0001   -0.0003   -0.0005    0.0004   -0.0003   -0.0003   -0.0004    0.0002   -0.0006    0.0141
    31 C3     4pz        0.0001    0.0001   -0.0002    0.0001   -0.0001   -0.0002   -0.0001    0.0000   -0.0001    0.0016
    32 C3     3d2-       0.0000    0.0001    0.0000   -0.0000    0.0001   -0.0001    0.0000   -0.0000   -0.0000    0.0035
    33 C3     3d1-      -0.0000   -0.0000   -0.0000   -0.0000   -0.0000   -0.0000   -0.0000    0.0000    0.0000    0.0002
    34 C3     3d0       -0.0000    0.0001    0.0001    0.0000   -0.0000    0.0001    0.0001    0.0000   -0.0000   -0.0022
    35 C3     3d1+       0.0000   -0.0001   -0.0000    0.0000    0.0000    0.0001    0.0000   -0.0000   -0.0001   -0.0004
    36 C3     3d2+      -0.0000   -0.0000    0.0001    0.0000    0.0000    0.0000    0.0000    0.0000    0.0000   -0.0002
    37 C4     1s        -0.0001    0.0004   -0.0000    0.0002   -0.0001    0.2151   -0.9766    0.0000    0.0004    0.0001
    38 C4     2s        -0.0004    0.0018    0.0000    0.0009   -0.0007    0.0015   -0.0024    0.0003   -0.0002    0.0236
    39 C4     3s        -0.0003    0.0003    0.0001    0.0004   -0.0006    0.0004   -0.0001    0.0002   -0.0002    0.0066
    40 C4     4s        -0.0001   -0.0001    0.0000    0.0001   -0.0002    0.0004   -0.0013    0.0001   -0.0001    0.0024
    41 C4     2px        0.0001    0.0025   -0.0003    0.0001   -0.0000   -0.0010   -0.0003   -0.0001    0.0001   -0.0004
    42 C4     3px        0.0001    0.0015   -0.0003   -0.0000    0.0001   -0.0003   -0.0001   -0.0002   -0.0005    0.0003
    43 C4     4px        0.0000   -0.0004    0.0000   -0.0001    0.0001    0.0003   -0.0002   -0.0001   -0.0004   -0.0011
    44 C4     2py        0.0000   -0.0013    0.0002    0.0001   -0.0002    0.0004    0.0001    0.0002   -0.0001    0.0024
    45 C4     3py       -0.0000   -0.0010    0.0001    0.0000   -0.0004    0.0005    0.0001    0.0003   -0.0001    0.0090
    46 C4     4py       -0.0000    0.0001   -0.0001   -0.0000   -0.0001    0.0001    0.0001    0.0001    0.0000    0.0024
    47 C4     2pz       -0.0002    0.0015   -0.0002   -0.0016   -0.0002    0.0009    0.0009    0.0000    0.0005    0.0036
    48 C4     3pz       -0.0003    0.0011   -0.0000   -0.0012   -0.0003    0.0008    0.0005    0.0001    0.0010    0.0027
    49 C4     4pz       -0.0001   -0.0001    0.0001    0.0001   -0.0001   -0.0000    0.0003    0.0000    0.0004    0.0013
    50 C4     3d2-       0.0000    0.0000    0.0000    0.0000   -0.0000   -0.0000    0.0002   -0.0000   -0.0000   -0.0007
    51 C4     3d1-       0.0000   -0.0000    0.0000    0.0001    0.0000   -0.0000    0.0002    0.0000   -0.0000   -0.0007
    52 C4     3d0       -0.0000    0.0001    0.0000   -0.0002   -0.0000   -0.0000   -0.0002    0.0000    0.0001    0.0003
    53 C4     3d1+      -0.0000   -0.0001   -0.0001   -0.0001   -0.0000    0.0000   -0.0003    0.0000   -0.0000    0.0009
    54 C4     3d2+       0.0000    0.0000   -0.0000    0.0000    0.0000    0.0000   -0.0002   -0.0000    0.0000    0.0009
    55 C6     1s        -0.0000    0.0001   -0.0001    0.0003   -0.0001   -0.0000    0.0004    0.0000    0.9997    0.0014
    56 C6     2s        -0.0001    0.0007   -0.0010    0.0014   -0.0008   -0.0001    0.0001    0.0001   -0.0001    0.0127
    57 C6     3s        -0.0001    0.0005   -0.0007    0.0003   -0.0007   -0.0001    0.0003    0.0001   -0.0017    0.0099
    58 C6     4s        -0.0000    0.0001   -0.0002   -0.0001   -0.0002   -0.0001    0.0002    0.0000    0.0009    0.0031
    59 C6     2px        0.0001   -0.0001    0.0002   -0.0004    0.0002   -0.0002   -0.0002   -0.0001   -0.0001   -0.0061
    60 C6     3px        0.0000   -0.0002    0.0002    0.0001    0.0002   -0.0001   -0.0001   -0.0001    0.0002   -0.0053
    61 C6     4px       -0.0000   -0.0000   -0.0000    0.0002    0.0000    0.0000    0.0000    0.0000   -0.0005   -0.0001
    62 C6     2py        0.0001    0.0001   -0.0002    0.0002   -0.0001   -0.0002   -0.0001   -0.0001    0.0000    0.0004
    63 C6     3py        0.0001    0.0001   -0.0002    0.0002   -0.0000   -0.0002   -0.0002   -0.0001   -0.0001   -0.0002
    64 C6     4py       -0.0000    0.0000    0.0000   -0.0000    0.0000   -0.0000   -0.0000   -0.0000    0.0001   -0.0003
    65 C6     2pz        0.0000    0.0004   -0.0001    0.0002   -0.0002   -0.0000    0.0004   -0.0000   -0.0002    0.0028
    66 C6     3pz       -0.0000    0.0003   -0.0001   -0.0003   -0.0002   -0.0001    0.0006    0.0000   -0.0001    0.0030
    67 C6     4pz       -0.0000   -0.0000   -0.0000   -0.0002   -0.0000   -0.0001    0.0002    0.0000    0.0004    0.0008
    68 C6     3d2-      -0.0000   -0.0000    0.0000    0.0001   -0.0000   -0.0000   -0.0000    0.0000    0.0001    0.0000
    69 C6     3d1-      -0.0000   -0.0000   -0.0000    0.0000    0.0000    0.0000    0.0000    0.0000   -0.0000    0.0001
    70 C6     3d0        0.0000    0.0000    0.0000    0.0000    0.0000    0.0000   -0.0001    0.0000    0.0000   -0.0001
    71 C6     3d1+      -0.0000   -0.0000    0.0000    0.0000    0.0000   -0.0000    0.0000   -0.0000    0.0001   -0.0004
    72 C6     3d2+      -0.0000    0.0000   -0.0000   -0.0001   -0.0000    0.0000    0.0000   -0.0000   -0.0001    0.0001
    73 C19    1s         0.0002   -0.0001   -0.0000    0.0000    0.0037    0.0002    0.0000   -1.0000   -0.0000   -0.0145
    74 C19    2s         0.0011   -0.0006   -0.0001   -0.0000    0.0006    0.0008    0.0001   -0.0019   -0.0001   -0.0123
    75 C19    3s         0.0007   -0.0006    0.0000   -0.0001    0.0003    0.0004    0.0000    0.0005   -0.0001   -0.0389
    76 C19    4s         0.0001   -0.0002   -0.0000   -0.0001    0.0001   -0.0000   -0.0000   -0.0012   -0.0001   -0.0036
    77 C19    2px        0.0008   -0.0002   -0.0003   -0.0000   -0.0001    0.0002   -0.0001    0.0002   -0.0000   -0.0091
    78 C19    3px        0.0005   -0.0002   -0.0002   -0.0000   -0.0003    0.0002   -0.0001    0.0001   -0.0000   -0.0077
    79 C19    4px       -0.0002    0.0000   -0.0000    0.0000   -0.0000   -0.0000   -0.0000   -0.0002    0.0000    0.0079
    80 C19    2py       -0.0001   -0.0001    0.0003   -0.0001    0.0004    0.0002    0.0000    0.0002   -0.0001    0.0213
    81 C19    3py       -0.0003   -0.0001    0.0003   -0.0001   -0.0001    0.0001    0.0000    0.0000   -0.0001   -0.0056
    82 C19    4py       -0.0001    0.0000   -0.0001   -0.0000   -0.0001   -0.0001   -0.0000   -0.0004   -0.0000    0.0053
    83 C19    2pz       -0.0001   -0.0000   -0.0000   -0.0000   -0.0001   -0.0000   -0.0000   -0.0001   -0.0000   -0.0029
    84 C19    3pz       -0.0000   -0.0000   -0.0000   -0.0000   -0.0000    0.0000   -0.0000   -0.0000   -0.0000    0.0008
    85 C19    4pz        0.0000    0.0000    0.0000    0.0000    0.0000    0.0000   -0.0000    0.0000    0.0000   -0.0006
    86 C19    3d2-       0.0001    0.0000   -0.0000   -0.0000    0.0000    0.0001    0.0000    0.0001   -0.0000    0.0011
    87 C19    3d1-       0.0000    0.0000   -0.0000   -0.0000    0.0000   -0.0000   -0.0000   -0.0000    0.0000   -0.0010
    88 C19    3d0       -0.0001    0.0000   -0.0001    0.0000    0.0001   -0.0000    0.0000   -0.0001    0.0000    0.0015
    89 C19    3d1+       0.0000    0.0000    0.0000    0.0000   -0.0000   -0.0000   -0.0000   -0.0000    0.0000    0.0001
    90 C19    3d2+       0.0001    0.0000   -0.0000    0.0000   -0.0001   -0.0000   -0.0000   -0.0001    0.0000   -0.0068
    91 N2     1s         0.0001    0.0001    0.9998   -0.0000   -0.0002    0.0001   -0.0001   -0.0001    0.0000   -0.0177
    92 N2     2s         0.0004    0.0004   -0.0001   -0.0003   -0.0001    0.0016   -0.0002   -0.0007    0.0000    0.1112
    93 N2     3s         0.0003    0.0002   -0.0015   -0.0002   -0.0002    0.0009   -0.0003   -0.0005    0.0000   -0.0477
    94 N2     4s         0.0001    0.0001    0.0004   -0.0000    0.0001    0.0003   -0.0001   -0.0001   -0.0000   -0.0113
    95 N2     2px        0.0000   -0.0008    0.0003   -0.0007   -0.0004    0.0011   -0.0003    0.0005   -0.0003   -0.0252
    96 N2     3px       -0.0000   -0.0012    0.0003   -0.0009   -0.0003    0.0011   -0.0003    0.0005   -0.0004    0.0233
    97 N2     4px        0.0000   -0.0001   -0.0002   -0.0000   -0.0003    0.0000    0.0001   -0.0001   -0.0001   -0.0047
    98 N2     2py       -0.0015   -0.0004   -0.0008   -0.0001    0.0002    0.0008   -0.0002    0.0003   -0.0001    0.0393
    99 N2     3py       -0.0018   -0.0006   -0.0002   -0.0002    0.0002    0.0009   -0.0003    0.0002   -0.0001    0.0152
   100 N2     4py       -0.0000   -0.0001    0.0004   -0.0000   -0.0000    0.0002    0.0000   -0.0001    0.0000   -0.0058
   101 N2     2pz        0.0003    0.0001    0.0003    0.0001    0.0000    0.0000   -0.0001   -0.0001    0.0001   -0.0049
   102 N2     3pz        0.0004    0.0002   -0.0001    0.0001    0.0001   -0.0000   -0.0001   -0.0002    0.0001   -0.0095
   103 N2     4pz        0.0000    0.0000    0.0001    0.0001    0.0001   -0.0001   -0.0001   -0.0000    0.0000    0.0001
   104 N2     3d2-       0.0001   -0.0000   -0.0002   -0.0000   -0.0001   -0.0000   -0.0000    0.0000   -0.0000   -0.0031
   105 N2     3d1-      -0.0000    0.0000   -0.0001    0.0000    0.0000   -0.0000    0.0000    0.0000    0.0000    0.0007
   106 N2     3d0       -0.0000    0.0000   -0.0000    0.0000    0.0001    0.0001    0.0001    0.0001   -0.0000   -0.0027
   107 N2     3d1+      -0.0000    0.0000    0.0000    0.0000   -0.0000   -0.0000    0.0000   -0.0000    0.0000    0.0005
   108 N2     3d2+      -0.0000   -0.0000   -0.0000   -0.0000    0.0001   -0.0000   -0.0000   -0.0000   -0.0000    0.0043
   109 N5     1s         0.0000    0.0001   -0.0000    0.9999    0.0001    0.0000    0.0002   -0.0000    0.0001   -0.0016
   110 N5     2s         0.0002    0.0006   -0.0001    0.0006    0.0006    0.0003    0.0002   -0.0002    0.0017   -0.0014
   111 N5     3s         0.0001    0.0004   -0.0001   -0.0010    0.0004    0.0002    0.0003   -0.0001    0.0010   -0.0053
   112 N5     4s         0.0000    0.0001   -0.0000    0.0006    0.0001    0.0001   -0.0000   -0.0000    0.0004   -0.0011
   113 N5     2px       -0.0002   -0.0016    0.0006   -0.0010    0.0003    0.0002   -0.0002    0.0000    0.0008   -0.0070
   114 N5     3px       -0.0002   -0.0019    0.0009   -0.0005    0.0006    0.0004   -0.0001    0.0000    0.0009   -0.0110
   115 N5     4px        0.0000   -0.0000    0.0001    0.0003    0.0002    0.0001    0.0001   -0.0000    0.0003   -0.0023
   116 N5     2py       -0.0000    0.0005    0.0000    0.0003    0.0001   -0.0001    0.0002   -0.0000   -0.0001   -0.0021
   117 N5     3py       -0.0000    0.0006    0.0000    0.0001    0.0002   -0.0001    0.0001   -0.0001   -0.0002   -0.0001
   118 N5     4py       -0.0000    0.0000   -0.0000   -0.0002    0.0000    0.0000    0.0000   -0.0000   -0.0001   -0.0000
   119 N5     2pz       -0.0000    0.0000   -0.0006   -0.0003   -0.0004    0.0002   -0.0001    0.0000   -0.0007    0.0078
   120 N5     3pz       -0.0000    0.0001   -0.0008   -0.0001   -0.0006    0.0000   -0.0001    0.0001   -0.0004    0.0108
   121 N5     4pz       -0.0000    0.0000   -0.0000    0.0002   -0.0001   -0.0001   -0.0003    0.0000    0.0000    0.0022
   122 N5     3d2-      -0.0000   -0.0000   -0.0000   -0.0000   -0.0000    0.0000   -0.0001    0.0000    0.0000    0.0001
   123 N5     3d1-      -0.0000    0.0000    0.0000   -0.0000   -0.0000   -0.0000   -0.0000    0.0000    0.0000   -0.0001
   124 N5     3d0        0.0000   -0.0000   -0.0000   -0.0001   -0.0000    0.0000    0.0001   -0.0000   -0.0001    0.0002
   125 N5     3d1+       0.0000   -0.0001    0.0000    0.0002    0.0000    0.0000   -0.0001   -0.0000    0.0000   -0.0003
   126 N5     3d2+       0.0000    0.0001   -0.0000   -0.0000    0.0000    0.0000    0.0001   -0.0000   -0.0000    0.0000
   127 O7     1s         0.9997   -0.0000    0.0000    0.0000   -0.0003   -0.0000   -0.0000   -0.0001    0.0000   -0.0240
   128 O7     2s        -0.0015   -0.0001    0.0002    0.0000    0.0004   -0.0001   -0.0002   -0.0003    0.0000    0.6933
   129 O7     3s        -0.0014   -0.0001    0.0001    0.0000   -0.0001    0.0000   -0.0001   -0.0003   -0.0000   -0.0345
   130 O7     4s         0.0000   -0.0000    0.0000    0.0000    0.0000    0.0000   -0.0000   -0.0001   -0.0000   -0.0138
   131 O7     2px        0.0001   -0.0001   -0.0003    0.0001    0.0003   -0.0001   -0.0001   -0.0001   -0.0000    0.0820
   132 O7     3px       -0.0003   -0.0001   -0.0004    0.0002   -0.0001   -0.0001   -0.0001   -0.0001   -0.0000   -0.0241
   133 O7     4px        0.0008   -0.0000   -0.0001    0.0000    0.0001   -0.0000   -0.0000    0.0000   -0.0000   -0.0013
   134 O7     2py       -0.0002    0.0000   -0.0002    0.0000   -0.0006   -0.0000   -0.0000    0.0001   -0.0000   -0.1228
   135 O7     3py        0.0006    0.0000   -0.0002    0.0001   -0.0004   -0.0001   -0.0001    0.0001   -0.0001    0.0380
   136 O7     4py       -0.0011   -0.0000    0.0001    0.0000   -0.0003   -0.0000   -0.0000   -0.0000   -0.0000    0.0001
   137 O7     2pz        0.0000    0.0000    0.0001    0.0000    0.0001    0.0000    0.0000   -0.0000    0.0000    0.0178
   138 O7     3pz       -0.0001    0.0000    0.0000    0.0000    0.0001    0.0001    0.0000   -0.0000    0.0000   -0.0063
   139 O7     4pz        0.0002    0.0000   -0.0000    0.0000    0.0001    0.0000    0.0000   -0.0000   -0.0000   -0.0002
   140 O7     3d2-       0.0001    0.0000    0.0000   -0.0000   -0.0002    0.0000    0.0000    0.0000   -0.0000   -0.0174
   141 O7     3d1-       0.0000    0.0000   -0.0000   -0.0000   -0.0000    0.0000    0.0000    0.0000    0.0000   -0.0038
   142 O7     3d0       -0.0000    0.0000   -0.0001   -0.0000   -0.0001   -0.0000   -0.0000    0.0000    0.0000   -0.0102
   143 O7     3d1+      -0.0000   -0.0000   -0.0000   -0.0000    0.0000    0.0000    0.0000   -0.0000    0.0000    0.0024
   144 O7     3d2+       0.0000    0.0000   -0.0001    0.0000   -0.0001   -0.0000   -0.0000    0.0000   -0.0000   -0.0079
   145 O8     1s         0.0000    0.9997    0.0000    0.0000    0.0000   -0.0000    0.0002    0.0000   -0.0001   -0.0010
   146 O8     2s         0.0001   -0.0016    0.0002    0.0002    0.0002    0.0004   -0.0005    0.0000   -0.0003    0.0111
   147 O8     3s         0.0001   -0.0015    0.0001    0.0001    0.0001    0.0002   -0.0000    0.0000   -0.0002   -0.0024
   148 O8     4s         0.0000   -0.0000   -0.0000    0.0000    0.0000    0.0000   -0.0000    0.0000   -0.0000   -0.0007
   149 O8     2px       -0.0000   -0.0001    0.0000   -0.0002   -0.0001   -0.0002    0.0006    0.0000    0.0000   -0.0028
   150 O8     3px        0.0000    0.0005    0.0001   -0.0001   -0.0001   -0.0001    0.0002    0.0001   -0.0000    0.0019
   151 O8     4px        0.0000   -0.0011    0.0001    0.0001   -0.0000    0.0000    0.0002    0.0000   -0.0000    0.0001
   152 O8     2py       -0.0000    0.0001    0.0000    0.0000    0.0001    0.0001   -0.0002   -0.0000   -0.0000   -0.0027
   153 O8     3py        0.0000   -0.0002    0.0000    0.0000    0.0001   -0.0000   -0.0001   -0.0000   -0.0000   -0.0021
   154 O8     4py        0.0000    0.0005   -0.0000   -0.0000    0.0000   -0.0000   -0.0001   -0.0000    0.0000   -0.0002
   155 O8     2pz        0.0000   -0.0001   -0.0001    0.0003   -0.0000   -0.0002    0.0005    0.0000    0.0001   -0.0009
   156 O8     3pz        0.0000    0.0003   -0.0001    0.0003   -0.0001   -0.0002    0.0000    0.0000    0.0000    0.0014
   157 O8     4pz        0.0000   -0.0007    0.0000    0.0001   -0.0000   -0.0000    0.0000    0.0000   -0.0000    0.0000
   158 O8     3d2-       0.0000    0.0000   -0.0000   -0.0000   -0.0000   -0.0001    0.0001    0.0000   -0.0000   -0.0001
   159 O8     3d1-       0.0000    0.0000    0.0000   -0.0000   -0.0000   -0.0000    0.0001    0.0000    0.0000    0.0000
   160 O8     3d0        0.0000    0.0000    0.0000   -0.0000   -0.0000   -0.0000    0.0000    0.0000   -0.0000   -0.0001
   161 O8     3d1+       0.0000   -0.0001    0.0000   -0.0000    0.0000    0.0000   -0.0002   -0.0000   -0.0000    0.0002
   162 O8     3d2+       0.0000   -0.0000   -0.0000    0.0001    0.0000    0.0001   -0.0001   -0.0000    0.0000    0.0003
   163 H9     1s         0.0002    0.0001    0.0001   -0.0000    0.0001   -0.0002    0.0001   -0.0003    0.0000    0.0144
   164 H9     2s         0.0001    0.0001    0.0000    0.0000    0.0001   -0.0002    0.0000    0.0003    0.0000    0.0040
   165 H9     2px       -0.0000    0.0000    0.0000    0.0000    0.0000   -0.0000    0.0000    0.0000    0.0000    0.0010
   166 H9     2py       -0.0001    0.0000   -0.0000    0.0000    0.0000   -0.0000    0.0000   -0.0000    0.0000    0.0011
   167 H9     2pz       -0.0000    0.0000   -0.0000    0.0000   -0.0000    0.0000    0.0000   -0.0001    0.0000   -0.0007
   168 H10    1s         0.0001   -0.0001    0.0001   -0.0002    0.0000   -0.0002    0.0001   -0.0003   -0.0001    0.0139
   169 H10    2s         0.0000   -0.0001    0.0001   -0.0001    0.0000   -0.0001    0.0000    0.0003   -0.0001    0.0026
   170 H10    2px       -0.0000   -0.0000    0.0000   -0.0000    0.0000   -0.0000    0.0000    0.0000   -0.0000    0.0009
   171 H10    2py       -0.0001   -0.0000   -0.0000   -0.0000    0.0001   -0.0000    0.0000   -0.0000   -0.0000    0.0010
   172 H10    2pz        0.0000   -0.0000   -0.0000   -0.0000    0.0000   -0.0000   -0.0000    0.0001   -0.0000    0.0005
   173 H11    1s        -0.0004    0.0000    0.0004   -0.0001    0.0003   -0.0000    0.0000   -0.0003   -0.0000    0.0205
   174 H11    2s        -0.0002    0.0000    0.0003   -0.0001    0.0001   -0.0000   -0.0000    0.0002   -0.0000    0.0061
   175 H11    2px       -0.0000   -0.0000   -0.0001    0.0000   -0.0000    0.0000   -0.0000   -0.0001    0.0000   -0.0000
   176 H11    2py       -0.0000    0.0000    0.0000   -0.0000    0.0001    0.0000   -0.0000    0.0000   -0.0000    0.0020
   177 H11    2pz       -0.0000    0.0000    0.0000   -0.0000    0.0000    0.0000    0.0000    0.0000    0.0000    0.0003
   178 H12    1s        -0.0010   -0.0003   -0.0009    0.0005    0.0002   -0.0003    0.0002    0.0005   -0.0001    0.0392
   179 H12    2s        -0.0006   -0.0002   -0.0006    0.0003    0.0000   -0.0001    0.0001    0.0002   -0.0000   -0.0009
   180 H12    2px        0.0000    0.0000    0.0002    0.0000   -0.0001    0.0000    0.0000   -0.0000    0.0000   -0.0041
   181 H12    2py       -0.0000   -0.0000   -0.0004    0.0001    0.0000   -0.0000    0.0001    0.0000   -0.0000    0.0048
   182 H12    2pz        0.0000    0.0000    0.0002   -0.0000   -0.0000    0.0000   -0.0000   -0.0000   -0.0000   -0.0014
   183 H13    1s         0.0002    0.0000   -0.0003    0.0004   -0.0001    0.0006    0.0003    0.0000   -0.0002    0.0155
   184 H13    2s         0.0002    0.0001   -0.0001    0.0003   -0.0000   -0.0001    0.0001    0.0000   -0.0001   -0.0008
   185 H13    2px        0.0000    0.0000    0.0000    0.0000   -0.0000    0.0000   -0.0000    0.0000    0.0000   -0.0004
   186 H13    2py       -0.0000   -0.0000   -0.0000   -0.0000    0.0000   -0.0001    0.0000   -0.0000   -0.0000   -0.0014
   187 H13    2pz        0.0000    0.0001    0.0000    0.0001   -0.0000   -0.0000    0.0000    0.0000   -0.0000    0.0004
   188 H14    1s         0.0003    0.0000   -0.0004   -0.0001   -0.0004    0.0012    0.0003   -0.0000    0.0001    0.0021
   189 H14    2s         0.0002    0.0000   -0.0001   -0.0001   -0.0003    0.0003    0.0001   -0.0000    0.0001   -0.0034
   190 H14    2px       -0.0000   -0.0001    0.0000    0.0000    0.0000   -0.0000   -0.0000    0.0000   -0.0000   -0.0003
   191 H14    2py       -0.0000    0.0000    0.0001    0.0001    0.0000   -0.0001    0.0000    0.0000   -0.0000   -0.0003
   192 H14    2pz       -0.0000    0.0000   -0.0000   -0.0000    0.0000   -0.0000    0.0000    0.0000    0.0000   -0.0005
   193 H15    1s        -0.0003   -0.0014    0.0001   -0.0010   -0.0003    0.0000   -0.0003    0.0001   -0.0002    0.0022
   194 H15    2s        -0.0002   -0.0008    0.0001   -0.0007   -0.0002    0.0001   -0.0001    0.0001   -0.0000    0.0003
   195 H15    2px       -0.0000   -0.0001    0.0000   -0.0004   -0.0001   -0.0000   -0.0000    0.0000    0.0000    0.0008
   196 H15    2py        0.0000    0.0000    0.0000    0.0002    0.0000   -0.0000    0.0000    0.0000    0.0000   -0.0003
   197 H15    2pz       -0.0000   -0.0001   -0.0000   -0.0002   -0.0000    0.0000   -0.0001    0.0000   -0.0000    0.0002
   198 H16    1s         0.0001    0.0005   -0.0001   -0.0004   -0.0001   -0.0002    0.0003   -0.0001    0.0005    0.0005
   199 H16    2s         0.0000    0.0003   -0.0001   -0.0002   -0.0000   -0.0001    0.0002   -0.0001   -0.0001    0.0007
   200 H16    2px        0.0000   -0.0000   -0.0000    0.0000   -0.0000    0.0000    0.0000    0.0000   -0.0000    0.0002
   201 H16    2py        0.0000    0.0000    0.0000   -0.0000   -0.0000   -0.0000    0.0000   -0.0000   -0.0000    0.0000
   202 H16    2pz        0.0000    0.0000   -0.0000   -0.0000   -0.0000   -0.0000    0.0000   -0.0000    0.0000    0.0000
   203 H17    1s        -0.0000    0.0003    0.0001   -0.0006   -0.0001    0.0001    0.0004    0.0001    0.0005    0.0040
   204 H17    2s        -0.0000    0.0002    0.0000   -0.0003   -0.0001    0.0001    0.0003    0.0001   -0.0001    0.0028
   205 H17    2px       -0.0000   -0.0000    0.0000    0.0000    0.0000    0.0000   -0.0000   -0.0000   -0.0000   -0.0001
   206 H17    2py        0.0000   -0.0000   -0.0000    0.0000   -0.0000   -0.0000   -0.0001   -0.0000    0.0000   -0.0002
   207 H17    2pz       -0.0000    0.0000    0.0000   -0.0000   -0.0000    0.0000    0.0000    0.0000    0.0000    0.0002
   208 H18    1s        -0.0000    0.0001   -0.0001   -0.0001   -0.0001    0.0001    0.0000    0.0001    0.0010    0.0043
   209 H18    2s        -0.0000    0.0001   -0.0001    0.0000   -0.0001    0.0001   -0.0001    0.0000    0.0001    0.0027
   210 H18    2px        0.0000   -0.0000    0.0000   -0.0000    0.0000   -0.0000   -0.0000   -0.0000   -0.0001   -0.0004
   211 H18    2py       -0.0000    0.0000    0.0000   -0.0000    0.0000    0.0000    0.0000    0.0000    0.0001    0.0002
   212 H18    2pz        0.0000   -0.0000    0.0000   -0.0000    0.0000    0.0000   -0.0000   -0.0000   -0.0001   -0.0003
 
 
      Orbital                11        12        13        14        15        16        17        18        19        20
      Energy            -1.3579   -1.2581   -1.2104   -1.0317   -0.9718   -0.9148   -0.8199   -0.7758   -0.7196   -0.6956
      Occ. No.           2.0000    2.0000    2.0000    2.0000    2.0000    2.0000    2.0000    2.0000    2.0000    2.0000
 
     1 C1     1s         0.0059   -0.0067    0.0052   -0.0160   -0.0026    0.0079    0.0140    0.0002    0.0069    0.0028
     2 C1     2s         0.0322    0.1449   -0.0000    0.2764   -0.0286   -0.0665   -0.3860   -0.1126   -0.2450   -0.0563
     3 C1     3s         0.0295    0.0101    0.0212   -0.0153   -0.0091    0.0197    0.0051   -0.0130    0.0086    0.0168
     4 C1     4s         0.0079    0.0032    0.0059   -0.0041   -0.0033    0.0062    0.0032   -0.0022    0.0041    0.0026
     5 C1     2px        0.0344    0.1505    0.0014   -0.0185    0.1107   -0.0842   -0.1322   -0.0072    0.1637    0.2612
     6 C1     3px        0.0233   -0.0367    0.0334   -0.0405   -0.0342    0.0306    0.0297   -0.0083   -0.0739   -0.0523
     7 C1     4px        0.0065    0.0266    0.0015   -0.0097    0.0120   -0.0069   -0.0080   -0.0007    0.0047    0.0175
     8 C1     2py        0.0070   -0.0422    0.0271   -0.1563    0.0508    0.0086   -0.0484    0.0310    0.0548   -0.1706
     9 C1     3py        0.0217    0.0449    0.0209    0.0208   -0.0483    0.0318    0.0099    0.0063   -0.0082    0.0688
    10 C1     4py        0.0012   -0.0077    0.0056   -0.0236    0.0049    0.0020   -0.0064    0.0031   -0.0032   -0.0097
    11 C1     2pz        0.0022    0.0109   -0.0073    0.0227   -0.0032   -0.0006    0.0097   -0.0066    0.0013    0.0207
    12 C1     3pz       -0.0003   -0.0128   -0.0075    0.0005    0.0054   -0.0025   -0.0036   -0.0095    0.0038   -0.0090
    13 C1     4pz        0.0000   -0.0004   -0.0030    0.0033    0.0001   -0.0002    0.0009   -0.0022    0.0019    0.0007
    14 C1     3d2-       0.0018    0.0116   -0.0012    0.0083   -0.0105    0.0072   -0.0119    0.0061    0.0160    0.0049
    15 C1     3d1-       0.0003    0.0023   -0.0002   -0.0022    0.0019   -0.0006    0.0018    0.0008    0.0038    0.0034
    16 C1     3d0        0.0002   -0.0069    0.0010   -0.0112   -0.0014    0.0043    0.0132    0.0026    0.0051    0.0018
    17 C1     3d1+      -0.0000   -0.0001    0.0001   -0.0009    0.0021   -0.0004    0.0031   -0.0000   -0.0024   -0.0027
    18 C1     3d2+       0.0026    0.0282   -0.0038    0.0021    0.0148   -0.0106   -0.0109    0.0005    0.0169    0.0170
    19 C3     1s        -0.0170   -0.0279   -0.0026    0.0316    0.0284   -0.0197    0.0081   -0.0049    0.0018   -0.0011
    20 C3     2s         0.0120    0.1792   -0.0041   -0.2830   -0.2673    0.3231   -0.1056    0.0554   -0.0391    0.0391
    21 C3     3s        -0.0489   -0.0450   -0.0123    0.0540    0.0476   -0.0111    0.0162   -0.0085    0.0086   -0.0049
    22 C3     4s        -0.0078   -0.0102   -0.0013    0.0157    0.0117   -0.0049    0.0048   -0.0029    0.0032   -0.0026
    23 C3     2px        0.0316   -0.0513    0.0314   -0.0180   -0.0534    0.0181    0.0554   -0.1326   -0.2687    0.1341
    24 C3     3px        0.0062    0.0075    0.0239   -0.0185    0.0351    0.0372   -0.0042    0.0246    0.0305   -0.0193
    25 C3     4px        0.0060   -0.0079    0.0080   -0.0029    0.0038    0.0013    0.0044   -0.0082   -0.0042    0.0037
    26 C3     2py       -0.0098   -0.0864    0.0197    0.0062   -0.0204   -0.0036   -0.1333   -0.0158   -0.0294    0.2066
    27 C3     3py        0.0106    0.0165    0.0066   -0.0403    0.0130    0.0010    0.0105   -0.0078    0.0100   -0.0363
    28 C3     4py        0.0015   -0.0011    0.0023   -0.0131   -0.0075    0.0105   -0.0089    0.0043   -0.0020    0.0084
    29 C3     2pz        0.0149    0.0076   -0.0197    0.0195    0.0356    0.0692    0.0151    0.0637   -0.0288   -0.0370
    30 C3     3pz        0.0217    0.0270    0.0098   -0.0061   -0.0131    0.0451   -0.0031   -0.0123   -0.0050    0.0048
    31 C3     4pz       -0.0050    0.0095    0.0015   -0.0069   -0.0055    0.0166   -0.0012    0.0010   -0.0039    0.0004
    32 C3     3d2-       0.0004    0.0182   -0.0003   -0.0023    0.0084   -0.0005    0.0044    0.0075    0.0174   -0.0219
    33 C3     3d1-       0.0031    0.0006    0.0001   -0.0011   -0.0017    0.0008    0.0023   -0.0028   -0.0052   -0.0018
    34 C3     3d0       -0.0055   -0.0099    0.0042    0.0048   -0.0024   -0.0013   -0.0044   -0.0025   -0.0104    0.0117
    35 C3     3d1+      -0.0008   -0.0027   -0.0046    0.0036    0.0086    0.0039   -0.0068    0.0126    0.0116   -0.0022
    36 C3     3d2+       0.0022   -0.0074   -0.0003   -0.0003   -0.0078   -0.0010   -0.0160   -0.0074   -0.0083    0.0189
    37 C4     1s        -0.0417    0.0020   -0.0064    0.0095    0.0132    0.0074    0.0005    0.0167    0.0023   -0.0023
    38 C4     2s         0.3514    0.0099    0.1080   -0.0856   -0.2302   -0.0735    0.0085   -0.4020   -0.0636    0.0810
    39 C4     3s        -0.0182    0.0016    0.0013    0.0249    0.0079    0.0113    0.0067    0.0127    0.0031   -0.0017
    40 C4     4s        -0.0009    0.0010    0.0003    0.0075    0.0034    0.0036    0.0022    0.0062    0.0024   -0.0023
    41 C4     2px        0.1012   -0.0353   -0.0243    0.0612    0.1333    0.0144   -0.0048    0.0059    0.1169   -0.0702
    42 C4     3px       -0.0344    0.0372    0.0697   -0.0485    0.0011    0.0792   -0.0083   -0.0175   -0.0423    0.0250
    43 C4     4px        0.0265   -0.0062    0.0006    0.0047    0.0183    0.0102   -0.0003   -0.0051    0.0020    0.0006
    44 C4     2py       -0.0332    0.0003    0.0480   -0.0052   -0.0485   -0.0213   -0.0199   -0.0271   -0.0091    0.0327
    45 C4     3py        0.0342   -0.0136   -0.0154    0.0190   -0.0041   -0.0041   -0.0088   -0.0008    0.0013   -0.0038
    46 C4     4py       -0.0074   -0.0002    0.0090    0.0009   -0.0083   -0.0027   -0.0071   -0.0022    0.0007    0.0023
    47 C4     2pz        0.0174   -0.0163   -0.1778   -0.0153   -0.0065    0.0693   -0.0023    0.1120   -0.1618    0.0743
    48 C4     3pz       -0.0411   -0.0058   -0.0070    0.0079   -0.0376   -0.1143    0.0075   -0.0168    0.0639   -0.0349
    49 C4     4pz        0.0059   -0.0034   -0.0369   -0.0031   -0.0059   -0.0031    0.0013    0.0082   -0.0074    0.0022
    50 C4     3d2-      -0.0223    0.0040    0.0080    0.0011    0.0032   -0.0005    0.0041    0.0010    0.0035   -0.0081
    51 C4     3d1-      -0.0159    0.0011   -0.0029   -0.0009    0.0018    0.0088   -0.0014    0.0018   -0.0029    0.0027
    52 C4     3d0        0.0016    0.0028    0.0261    0.0006   -0.0065   -0.0169    0.0024   -0.0150    0.0098   -0.0058
    53 C4     3d1+       0.0258   -0.0075   -0.0110    0.0077    0.0061   -0.0122   -0.0016    0.0147    0.0016    0.0024
    54 C4     3d2+       0.0204    0.0002   -0.0073   -0.0053   -0.0059    0.0053   -0.0012   -0.0059   -0.0035    0.0023
    55 C6     1s        -0.0090    0.0044   -0.0345   -0.0153   -0.0352   -0.0427    0.0012    0.0086    0.0039   -0.0049
    56 C6     2s         0.0315    0.0416    0.1613    0.0622    0.2331    0.3952   -0.0198   -0.1097   -0.0318    0.0298
    57 C6     3s        -0.0128    0.0268   -0.0599   -0.0321   -0.0674   -0.0660    0.0020    0.0188    0.0099   -0.0147
    58 C6     4s        -0.0005    0.0073   -0.0101   -0.0061   -0.0146   -0.0137    0.0010    0.0055    0.0024   -0.0037
    59 C6     2px       -0.0158   -0.0150   -0.0832   -0.0177   -0.0151    0.0226   -0.0107   -0.1462    0.0095    0.0439
    60 C6     3px        0.0030   -0.0111    0.0153    0.0042    0.0136   -0.0008   -0.0009    0.0064    0.0041   -0.0081
    61 C6     4px       -0.0028   -0.0010   -0.0022    0.0031    0.0096    0.0157   -0.0015   -0.0116    0.0010    0.0016
    62 C6     2py       -0.0024    0.0090    0.0143    0.0038    0.0054    0.0035   -0.0003    0.0586   -0.0247    0.0133
    63 C6     3py       -0.0057    0.0072   -0.0043   -0.0009    0.0006    0.0075    0.0007    0.0016    0.0018    0.0003
    64 C6     4py       -0.0004   -0.0003    0.0006   -0.0009   -0.0009   -0.0026   -0.0001    0.0044   -0.0015    0.0006
    65 C6     2pz        0.0216    0.0090    0.0649    0.0082    0.0036   -0.0307    0.0074   -0.0304    0.1131   -0.0983
    66 C6     3pz       -0.0010    0.0074   -0.0143   -0.0071   -0.0192   -0.0109    0.0011    0.0007   -0.0132    0.0125
    67 C6     4pz        0.0019    0.0010   -0.0020   -0.0013   -0.0100   -0.0140    0.0012    0.0010    0.0060   -0.0046
    68 C6     3d2-      -0.0012   -0.0001   -0.0052   -0.0014   -0.0026   -0.0007   -0.0004   -0.0045   -0.0022    0.0035
    69 C6     3d1-       0.0006    0.0001    0.0041    0.0006    0.0004   -0.0011    0.0006    0.0053   -0.0014   -0.0012
    70 C6     3d0        0.0009   -0.0006   -0.0004    0.0000   -0.0001   -0.0007    0.0002   -0.0121    0.0076   -0.0040
    71 C6     3d1+      -0.0042   -0.0013   -0.0192   -0.0037   -0.0040    0.0033   -0.0013   -0.0093   -0.0054    0.0082
    72 C6     3d2+       0.0029    0.0005    0.0126    0.0028    0.0046   -0.0004    0.0008    0.0086    0.0043   -0.0067
    73 C19    1s         0.0012   -0.0101    0.0029   -0.0580    0.0420   -0.0180   -0.0131   -0.0052   -0.0090    0.0026
    74 C19    2s         0.0101    0.0014    0.0058    0.3108   -0.2744    0.1398    0.0719    0.0451    0.0966   -0.0014
    75 C19    3s         0.0115   -0.0278    0.0151   -0.1136    0.0776   -0.0297   -0.0352   -0.0120   -0.0167    0.0133
    76 C19    4s         0.0042   -0.0032    0.0047   -0.0240    0.0175   -0.0067   -0.0094   -0.0034   -0.0052    0.0036
    77 C19    2px        0.0056    0.0251   -0.0016    0.0561    0.0047   -0.0260   -0.0456   -0.0347   -0.0680    0.1418
    78 C19    3px        0.0030   -0.0013    0.0019    0.0024    0.0064   -0.0018    0.0037    0.0038    0.0148   -0.0137
    79 C19    4px       -0.0011    0.0006   -0.0006   -0.0088    0.0131   -0.0080   -0.0021   -0.0036   -0.0062    0.0030
    80 C19    2py        0.0066    0.0085    0.0063    0.0449   -0.0084   -0.0139   -0.0624   -0.0505   -0.2112   -0.0542
    81 C19    3py        0.0082   -0.0013    0.0093   -0.0300    0.0163   -0.0010    0.0122    0.0019    0.0211    0.0128
    82 C19    4py        0.0006    0.0014    0.0003   -0.0126    0.0135   -0.0077   -0.0124   -0.0036   -0.0083   -0.0014
    83 C19    2pz        0.0020   -0.0000   -0.0000   -0.0087    0.0040    0.0010    0.0125    0.0080    0.0262    0.0036
    84 C19    3pz        0.0017    0.0018    0.0002   -0.0003    0.0005   -0.0013    0.0020    0.0006   -0.0062   -0.0009
    85 C19    4pz       -0.0000    0.0006    0.0003    0.0013   -0.0020    0.0007    0.0019    0.0011    0.0006    0.0001
    86 C19    3d2-       0.0004    0.0058   -0.0008    0.0114   -0.0020   -0.0022   -0.0079   -0.0047   -0.0153   -0.0003
    87 C19    3d1-      -0.0001    0.0004   -0.0001   -0.0024    0.0012   -0.0001    0.0011    0.0012    0.0042    0.0004
    88 C19    3d0       -0.0003   -0.0010    0.0001   -0.0086    0.0033    0.0006    0.0032    0.0032    0.0083   -0.0088
    89 C19    3d1+      -0.0004   -0.0007    0.0001   -0.0016    0.0000    0.0005    0.0013    0.0007    0.0011   -0.0029
    90 C19    3d2+       0.0002    0.0027   -0.0004   -0.0063    0.0044   -0.0009    0.0026    0.0028    0.0127    0.0041
    91 N2     1s        -0.0046   -0.0407    0.0052   -0.0047   -0.0043    0.0023   -0.0042    0.0005    0.0030   -0.0020
    92 N2     2s         0.0509    0.5861   -0.0715   -0.0386    0.2088   -0.0951    0.1498    0.0246    0.1241   -0.0710
    93 N2     3s        -0.0075   -0.0757    0.0118   -0.0153    0.0017    0.0015   -0.0077    0.0003    0.0141   -0.0064
    94 N2     4s        -0.0020   -0.0243    0.0036   -0.0020   -0.0020    0.0017   -0.0029   -0.0010    0.0009   -0.0008
    95 N2     2px        0.0329   -0.0317    0.0274   -0.1514   -0.0684    0.1143    0.3497    0.0220   -0.0926   -0.2975
    96 N2     3px        0.0373   -0.0085    0.0241    0.0205    0.0395   -0.0476   -0.1093   -0.0436    0.0044    0.0646
    97 N2     4px        0.0068    0.0017    0.0028   -0.0061    0.0059   -0.0034   -0.0001   -0.0054   -0.0015    0.0075
    98 N2     2py        0.0097   -0.0003    0.0056   -0.1085   -0.0558    0.1083   -0.2328    0.1141    0.2651   -0.2045
    99 N2     3py        0.0010   -0.0440   -0.0009    0.0428    0.0537   -0.0505    0.0419   -0.0361   -0.0579    0.0255
   100 N2     4py       -0.0008   -0.0146    0.0001    0.0004    0.0048   -0.0058   -0.0090   -0.0032   -0.0013    0.0053
   101 N2     2pz       -0.0051    0.0241   -0.0055    0.0023    0.0200   -0.0083    0.0701    0.0109   -0.0346   -0.0183
   102 N2     3pz       -0.0092   -0.0011    0.0036   -0.0085   -0.0030   -0.0065   -0.0140    0.0073    0.0099    0.0035
   103 N2     4pz       -0.0009    0.0041    0.0007   -0.0007    0.0011    0.0001    0.0028    0.0020   -0.0003    0.0003
   104 N2     3d2-       0.0016    0.0069   -0.0002   -0.0026   -0.0093    0.0090   -0.0041    0.0037    0.0061   -0.0038
   105 N2     3d1-      -0.0008   -0.0019   -0.0001   -0.0008   -0.0017    0.0029   -0.0070    0.0030    0.0044   -0.0025
   106 N2     3d0       -0.0017   -0.0155    0.0019    0.0016   -0.0033    0.0013    0.0021   -0.0004   -0.0027   -0.0009
   107 N2     3d1+      -0.0002    0.0009   -0.0006   -0.0017    0.0008    0.0004    0.0047    0.0006   -0.0022   -0.0030
   108 N2     3d2+       0.0009    0.0059   -0.0006    0.0097    0.0059   -0.0092   -0.0201   -0.0063   -0.0012    0.0157
   109 N5     1s        -0.0199   -0.0040   -0.0424   -0.0025    0.0016    0.0024   -0.0002   -0.0039    0.0030   -0.0022
   110 N5     2s         0.1386    0.0215    0.5738    0.0390   -0.0109   -0.2265    0.0219    0.1699    0.0634   -0.0807
   111 N5     3s        -0.0490   -0.0081   -0.0796   -0.0085   -0.0012   -0.0161    0.0010   -0.0002    0.0135   -0.0113
   112 N5     4s        -0.0117   -0.0016   -0.0263   -0.0034   -0.0017   -0.0018    0.0001   -0.0017    0.0017   -0.0012
   113 N5     2px        0.0281   -0.0405   -0.0082    0.0525    0.0992    0.0987    0.0033   -0.1820    0.1590   -0.1190
   114 N5     3px        0.0058   -0.0485   -0.0402    0.0075   -0.0373   -0.0946    0.0024    0.0400   -0.0278    0.0267
   115 N5     4px       -0.0059   -0.0072   -0.0102    0.0014    0.0012   -0.0062    0.0011   -0.0084    0.0020   -0.0003
   116 N5     2py       -0.0186    0.0003   -0.0031   -0.0053   -0.0025   -0.0110    0.0051    0.1294   -0.0805    0.0393
   117 N5     3py        0.0006    0.0041    0.0134   -0.0029    0.0126    0.0112    0.0043   -0.0309    0.0129   -0.0118
   118 N5     4py        0.0010    0.0006    0.0042    0.0000    0.0017   -0.0005    0.0004    0.0028   -0.0012    0.0005
   119 N5     2pz        0.0253    0.0240    0.0130   -0.0460   -0.1372   -0.1324    0.0013   -0.3323    0.1533   -0.0365
   120 N5     3pz       -0.0226    0.0355   -0.0093    0.0087    0.0248    0.0585    0.0020    0.0890   -0.0245   -0.0013
   121 N5     4pz        0.0047    0.0061   -0.0058   -0.0026   -0.0054    0.0032    0.0015   -0.0018   -0.0002   -0.0011
   122 N5     3d2-      -0.0007    0.0000   -0.0052   -0.0014   -0.0021    0.0007   -0.0001   -0.0071    0.0013    0.0000
   123 N5     3d1-      -0.0032   -0.0003   -0.0042    0.0005    0.0028    0.0061   -0.0006    0.0027   -0.0018    0.0006
   124 N5     3d0        0.0054    0.0007    0.0133   -0.0014   -0.0063   -0.0075   -0.0002   -0.0165    0.0063   -0.0013
   125 N5     3d1+       0.0024   -0.0021   -0.0081   -0.0004   -0.0037   -0.0104    0.0003    0.0044   -0.0006    0.0017
   126 N5     3d2+      -0.0001    0.0007    0.0089    0.0018    0.0040    0.0022   -0.0000    0.0091   -0.0021    0.0000
   127 O7     1s         0.0007    0.0024   -0.0007   -0.0044    0.0020    0.0003    0.0138    0.0022    0.0139    0.0220
   128 O7     2s        -0.0486   -0.3012    0.0318   -0.2076    0.0476    0.0240    0.3567    0.0406    0.2294    0.3547
   129 O7     3s        -0.0003   -0.0089   -0.0007   -0.0206    0.0091    0.0009    0.0434    0.0048    0.0390    0.0624
   130 O7     4s         0.0005    0.0000   -0.0005   -0.0037    0.0024   -0.0000    0.0084    0.0003    0.0078    0.0133
   131 O7     2px       -0.0046    0.0008   -0.0027   -0.0058    0.0303   -0.0252   -0.1712   -0.0155   -0.0806   -0.2118
   132 O7     3px       -0.0013    0.0005   -0.0015   -0.0077    0.0032    0.0042    0.0203    0.0007    0.0069    0.0185
   133 O7     4px       -0.0000    0.0003   -0.0000   -0.0010   -0.0002    0.0015    0.0014    0.0001    0.0004    0.0010
   134 O7     2py        0.0071    0.0410   -0.0044   -0.0331    0.0225    0.0063    0.1685    0.0391    0.2685    0.4219
   135 O7     3py       -0.0033    0.0004   -0.0016    0.0137    0.0019    0.0001   -0.0258   -0.0089   -0.0313   -0.0445
   136 O7     4py       -0.0008   -0.0016   -0.0000   -0.0003    0.0011    0.0011   -0.0030   -0.0010   -0.0037   -0.0066
   137 O7     2pz       -0.0017   -0.0014    0.0004    0.0048    0.0009   -0.0036   -0.0236   -0.0036   -0.0333   -0.0585
   138 O7     3pz       -0.0009   -0.0008    0.0012   -0.0007    0.0010   -0.0019    0.0048    0.0026    0.0028    0.0059
   139 O7     4pz       -0.0004   -0.0002    0.0004    0.0007    0.0004   -0.0008    0.0008    0.0005    0.0001    0.0008
   140 O7     3d2-       0.0008    0.0031   -0.0003    0.0011   -0.0026    0.0024    0.0122    0.0017    0.0083    0.0171
   141 O7     3d1-       0.0002    0.0014   -0.0001    0.0001    0.0005   -0.0003    0.0011    0.0003    0.0029    0.0049
   142 O7     3d0        0.0006    0.0041   -0.0007    0.0014    0.0001   -0.0002    0.0051    0.0007    0.0059    0.0116
   143 O7     3d1+      -0.0002   -0.0003    0.0000   -0.0002    0.0006   -0.0004   -0.0016   -0.0002   -0.0009   -0.0025
   144 O7     3d2+       0.0006    0.0052   -0.0007   -0.0026    0.0044   -0.0021   -0.0000    0.0016    0.0122    0.0135
   145 O8     1s        -0.0235    0.0024    0.0044    0.0009    0.0025    0.0005   -0.0001    0.0120    0.0022   -0.0019
   146 O8     2s         0.6674   -0.1453   -0.3184    0.1006    0.1619    0.0111   -0.0173    0.3466    0.0465   -0.0327
   147 O8     3s        -0.0279   -0.0017   -0.0073    0.0066    0.0130    0.0009   -0.0021    0.0437    0.0084   -0.0064
   148 O8     4s        -0.0121    0.0006    0.0004    0.0006    0.0015   -0.0002   -0.0011    0.0088    0.0022   -0.0014
   149 O8     2px       -0.1106    0.0104    0.0419    0.0176    0.0225   -0.0163   -0.0085    0.1266    0.0769   -0.0467
   150 O8     3px        0.0321   -0.0077   -0.0060    0.0038   -0.0115   -0.0100   -0.0005   -0.0215   -0.0082    0.0050
   151 O8     4px       -0.0001   -0.0015   -0.0024    0.0022   -0.0001   -0.0010    0.0003   -0.0027   -0.0019    0.0010
   152 O8     2py        0.0480   -0.0172   -0.0165    0.0022   -0.0044   -0.0037    0.0005   -0.0656   -0.0106    0.0105
   153 O8     3py       -0.0180    0.0010   -0.0002    0.0014    0.0073    0.0001    0.0009    0.0113    0.0036   -0.0036
   154 O8     4py       -0.0005    0.0001    0.0001    0.0004    0.0009   -0.0004   -0.0000    0.0014    0.0010   -0.0005
   155 O8     2pz       -0.0761    0.0170    0.0046   -0.0138   -0.0043    0.0411   -0.0040    0.1242   -0.0749    0.0334
[...]
AIVX     1  Mu1.0001  In1.027 Se1.045               0.15100074      0.00008238      0.00009561      0.00000001
AIVX     1  Mu1.0001  In1.028 Se1.045               0.11588386      0.00057491     -0.00159408     -0.00000092
AIVX     1  Mu1.0001  In1.029 Se1.045               0.08673509     -0.00036520      0.00086337     -0.00000032
AIVX     1  Mu1.0001  In1.021 Se1.046               0.26066213     -0.00041551      0.00047401     -0.00000020
AIVX     1  Mu1.0001  In1.022 Se1.046               0.24042776      0.00129019     -0.00200061     -0.00000258
AIVX     1  Mu1.0001  In1.024 Se1.046               0.17606440     -0.00038770      0.00107513     -0.00000042
AIVX     1  Mu1.0001  In1.025 Se1.046               0.26888530     -0.00066316      0.00109325     -0.00000073
AIVX     1  Mu1.0001  In1.026 Se1.046               0.25349150     -0.00027734      0.00031357     -0.00000009
AIVX     1  Mu1.0001  In1.027 Se1.046               0.16187479     -0.00032213      0.00018147     -0.00000006
AIVX     1  Mu1.0001  In1.028 Se1.046               0.12675791      0.00093366     -0.00195484     -0.00000183
AIVX     1  Mu1.0001  In1.029 Se1.046               0.09760914     -0.00039582      0.00078563     -0.00000031
AIVX     1  Mu1.0001  In1.021 Se1.047               0.24618057     -0.00130217      0.00236014     -0.00000307
AIVX     1  Mu1.0001  In1.022 Se1.047               0.22594619      0.00279477     -0.00539322     -0.00001507
AIVX     1  Mu1.0001  In1.023 Se1.047               0.29289007     -0.00217093      0.00376597     -0.00000818
AIVX     1  Mu1.0001  In1.024 Se1.047               0.16158284     -0.00018043      0.00032409     -0.00000006
AIVX     1  Mu1.0001  In1.025 Se1.047               0.25440374     -0.00064626      0.00153264     -0.00000099
AIVX     1  Mu1.0001  In1.026 Se1.047               0.23900994     -0.00020071      0.00045610     -0.00000009
AIVX     1  Mu1.0001  In1.027 Se1.047               0.14739323     -0.00079693      0.00182497     -0.00000145
AIVX     1  Mu1.0001  In1.028 Se1.047               0.11227635     -0.00061231      0.00127238     -0.00000078
AIVX     1  Mu1.0001  In1.029 Se1.047               0.08312758      0.00084856     -0.00212332     -0.00000180
AIVX     1  Mu1.0001  In1.021 Se1.048               0.27682261     -0.00146895      0.00221548     -0.00000325
AIVX     1  Mu1.0001  In1.022 Se1.048               0.25658824      0.00090493     -0.00156260     -0.00000141
AIVX     1  Mu1.0001  In1.024 Se1.048               0.19222488      0.00035480     -0.00057615     -0.00000020
AIVX     1  Mu1.0001  In1.025 Se1.048               0.28504578      0.00117062     -0.00208089     -0.00000244
AIVX     1  Mu1.0001  In1.026 Se1.048               0.26965198     -0.00147539      0.00240984     -0.00000356
AIVX     1  Mu1.0001  In1.027 Se1.048               0.17803527     -0.00114353      0.00236098     -0.00000270
AIVX     1  Mu1.0001  In1.028 Se1.048               0.14291839      0.00038361     -0.00044459     -0.00000017
AIVX     1  Mu1.0001  In1.029 Se1.048               0.11376962     -0.00012973      0.00016449     -0.00000002
AIVX     1  Mu1.0001  In1.021 Se1.049               0.28521114      0.00079336     -0.00091168     -0.00000072
AIVX     1  Mu1.0001  In1.022 Se1.049               0.26497676     -0.00016366      0.00028263     -0.00000005
AIVX     1  Mu1.0001  In1.024 Se1.049               0.20061341     -0.00032948      0.00068681     -0.00000023
AIVX     1  Mu1.0001  In1.025 Se1.049               0.29343431      0.00022301     -0.00042542     -0.00000009
AIVX     1  Mu1.0001  In1.026 Se1.049               0.27804051     -0.00059058      0.00079180     -0.00000047
AIVX     1  Mu1.0001  In1.027 Se1.049               0.18642380      0.00038710     -0.00021060     -0.00000008
AIVX     1  Mu1.0001  In1.028 Se1.049               0.15130692     -0.00064235      0.00096110     -0.00000062
AIVX     1  Mu1.0001  In1.029 Se1.049               0.12215815     -0.00020120      0.00079691     -0.00000016
AIVX     1  Mu1.0001  In1.021 Se1.050               0.29903467      0.00129434     -0.00222546     -0.00000288
AIVX     1  Mu1.0001  In1.022 Se1.050               0.27880029      0.00049720     -0.00042979     -0.00000021
AIVX     1  Mu1.0001  In1.024 Se1.050               0.21443694     -0.00042351      0.00074608     -0.00000032
AIVX     1  Mu1.0001  In1.026 Se1.050               0.29186404     -0.00307636      0.00487950     -0.00001501
AIVX     1  Mu1.0001  In1.027 Se1.050               0.20024733     -0.00020705      0.00027666     -0.00000006
AIVX     1  Mu1.0001  In1.028 Se1.050               0.16513045     -0.00021850      0.00060765     -0.00000013
AIVX     1  Mu1.0001  In1.029 Se1.050               0.13598168      0.00014936     -0.00029853     -0.00000004
AIVX     1  Mu1.0001  In1.024 Se1.051               0.24468679      0.00000812     -0.00001425     -0.00000000
AIVX     1  Mu1.0001  In1.027 Se1.051               0.23049718     -0.00019582      0.00084570     -0.00000017
AIVX     1  Mu1.0001  In1.028 Se1.051               0.19538030     -0.00088889      0.00088017     -0.00000078
AIVX     1  Mu1.0001  In1.029 Se1.051               0.16623153      0.00138945     -0.00267692     -0.00000372
AIVX     1  Mu1.0001  In1.024 Se1.052               0.24900191      0.00005756      0.00002663      0.00000000
AIVX     1  Mu1.0001  In1.027 Se1.052               0.23481230     -0.00001336     -0.00059362      0.00000001
AIVX     1  Mu1.0001  In1.028 Se1.052               0.19969542     -0.00100383      0.00220474     -0.00000221
AIVX     1  Mu1.0001  In1.029 Se1.052               0.17054665      0.00137597     -0.00290038     -0.00000399
AIVX     1  Mu1.0001  In1.024 Se1.053               0.28141702     -0.00034384      0.00031811     -0.00000011
AIVX     1  Mu1.0001  In1.027 Se1.053               0.26722742      0.00015163     -0.00027544     -0.00000004
AIVX     1  Mu1.0001  In1.028 Se1.053               0.23211054     -0.00007761     -0.00017920      0.00000001
AIVX     1  Mu1.0001  In1.029 Se1.053               0.20296176      0.00061977     -0.00139024     -0.00000086
AIVX     1  Mu1.0001  In1.027 Se1.054               0.29149578      0.00018815     -0.00034803     -0.00000007
AIVX     1  Mu1.0001  In1.028 Se1.054               0.25637890     -0.00002988      0.00021817     -0.00000001
AIVX     1  Mu1.0001  In1.029 Se1.054               0.22723013      0.00019695     -0.00056176     -0.00000011
AIVX     1  Mu1.0001  In1.028 Se1.055               0.28396499      0.00117261     -0.00170689     -0.00000200
AIVX     1  Mu1.0001  In1.029 Se1.055               0.25481621      0.00016416     -0.00062276     -0.00000010
AIVX     1  Mu1.0001  In1.028 Se1.056               0.27583534     -0.00036834      0.00048280     -0.00000018
AIVX     1  Mu1.0001  In1.029 Se1.056               0.24668657     -0.00075579      0.00163779     -0.00000124
AIVX     1  Mu1.0001  In1.027 Se1.057               0.29988969      0.00009059     -0.00009787     -0.00000001
AIVX     1  Mu1.0001  In1.028 Se1.057               0.26477281     -0.00017926      0.00003058     -0.00000001
AIVX     1  Mu1.0001  In1.029 Se1.057               0.23562404      0.00018197     -0.00026083     -0.00000005
AIVX     1  Mu1.0001  In1.028 Se1.058               0.29798419     -0.00066059      0.00119554     -0.00000079
AIVX     1  Mu1.0001  In1.029 Se1.058               0.26883542     -0.00034368      0.00090159     -0.00000031
AIVX     1  Mu1.0001  In1.029 Se1.059               0.27897469      0.00043714     -0.00064419     -0.00000028
--
 
   (Skipping property calculation,
    use PROP keyword to activate)
--
 
  Total CASPT2 energies:
::    CASPT2 Root  1     Total energy:   -455.21113694
::    CASPT2 Root  2     Total energy:   -455.01812069
::    CASPT2 Root  3     Total energy:   -455.00994312
::    CASPT2 Root  4     Total energy:   -454.94949264
::    CASPT2 Root  5     Total energy:   -454.93889873
::    CASPT2 Root  6     Total energy:   -454.93124287
::    CASPT2 Root  7     Total energy:   -454.90829338
 
++ Multi-State CASPT2 section:
********************************************************************************
  MULTI-STATE CASPT2 SECTION
--------------------------------------------------------------------------------
 
  Output diagonal energies have been shifted. Add   -455.000000000000     
 
  Effective Hamiltonian matrix (Symmetric):
 
                1               2               3               4               5
   1        -0.21113694
   2        -0.00130769     -0.01812069
   3         0.00056181     -0.00010153     -0.00994312
   4        -0.00594649     -0.00017288     -0.00008333      0.05050736
   5        -0.01031842     -0.00033850      0.00023449      0.00183009      0.06110127
   6         0.01206323      0.00344076      0.00187881      0.00346776      0.01146081
   7         0.01254835     -0.00023497      0.00114978      0.00468498      0.01015152
 
                6               7
   6         0.06875713
   7        -0.00780940      0.09170662
 
       Total MS-CASPT2 energies:
::    MS-CASPT2 Root  1     Total energy:   -455.21282255
::    MS-CASPT2 Root  2     Total energy:   -455.01825107
::    MS-CASPT2 Root  3     Total energy:   -455.01000271
::    MS-CASPT2 Root  4     Total energy:   -454.95131350
::    MS-CASPT2 Root  5     Total energy:   -454.94857453
::    MS-CASPT2 Root  6     Total energy:   -454.92230287
::    MS-CASPT2 Root  7     Total energy:   -454.90386115
 
       Eigenvectors:
            0.99682391     -0.00983191      0.00035794     -0.06455478      0.03754184
            0.00754528      0.99887033     -0.02284906     -0.02330529      0.01882295
           -0.00211943      0.02180540      0.99932721     -0.01797805      0.01120559
            0.02361732      0.00352340      0.00375311      0.77478137      0.60973945
            0.04095504      0.00870653      0.00250470      0.40825542     -0.68112672
           -0.04596048     -0.03996411     -0.02478558     -0.41464867      0.36964270
           -0.04396823     -0.00076379     -0.01371983     -0.23679981      0.16049676
 
            0.01046173      0.02364603
            0.02684868     -0.00779556
            0.01871352      0.00813555
            0.13729396      0.09218308
            0.56355447      0.22369817
            0.81378937     -0.15765084
           -0.01109468      0.95703789
 
--
 
  THE ORIGINAL CI ARRAYS ARE NOW MIXED AS LINEAR
  COMBINATIONS, GIVEN BY THE EIGENVECTORS.
  A NEW JOBIPH FILE NAMED 'JOBMIX' IS PREPARED.
********************************************************************************
 
++ Mixed CI coefficients:
  The CI coefficients for the MIXED state nr.   1
--------------------------------------------------------------------------------
 CI COEFFICIENTS LARGER THAN  0.50D-01
  Occupation of active orbitals, and spin coupling
  of open shells. (u,d: Spin up or down).
  SGUGA info is (Midvert:IsyUp:UpperWalk/LowerWalk)
        Conf  SGUGA info        Occupation    Coefficient         Weight
           1  ( 1:1:   1/   1)   22222200        0.969902       0.940710
           6  ( 1:1:   6/   1)   22220220       -0.090215       0.008139
           7  ( 1:1:   7/   1)   22222u0d        0.064029       0.004100
          15  ( 1:1:  15/   1)   22222002       -0.090826       0.008249
          64  ( 2:1:   4/   3)   2u22220d       -0.078301       0.006131
          81  ( 2:1:   1/   4)   u22222d0        0.096465       0.009306
         175  ( 3:1:   5/   8)   20222202       -0.091818       0.008431
         191  ( 3:1:   1/  10)   02222220       -0.078738       0.006200
 
  The CI coefficients for the MIXED state nr.   2
--------------------------------------------------------------------------------
 CI COEFFICIENTS LARGER THAN  0.50D-01
  Occupation of active orbitals, and spin coupling
  of open shells. (u,d: Spin up or down).
  SGUGA info is (Midvert:IsyUp:UpperWalk/LowerWalk)
        Conf  SGUGA info        Occupation    Coefficient         Weight
           7  ( 1:1:   7/   1)   22222u0d       -0.078717       0.006196
          21  ( 2:1:   1/   1)   222u22d0       -0.070529       0.004974
          24  ( 2:1:   4/   1)   222u220d        0.956066       0.914063
          32  ( 2:1:  12/   1)   222u022d       -0.084144       0.007080
          33  ( 2:1:  13/   1)   222u2d02       -0.090043       0.008108
         125  ( 3:1:   5/   3)   2u2d2202        0.186072       0.034623
         213  ( 4:1:   1/   3)   u22u22dd       -0.072458       0.005250
         269  ( 5:1:   1/   9)   022u222d        0.079136       0.006262
 
  The CI coefficients for the MIXED state nr.   3
--------------------------------------------------------------------------------
 CI COEFFICIENTS LARGER THAN  0.50D-01
  Occupation of active orbitals, and spin coupling
  of open shells. (u,d: Spin up or down).
  SGUGA info is (Midvert:IsyUp:UpperWalk/LowerWalk)
        Conf  SGUGA info        Occupation    Coefficient         Weight
           2  ( 1:1:   2/   1)   22222ud0       -0.217081       0.047124
           3  ( 1:1:   3/   1)   2222u2d0        0.072412       0.005243
          41  ( 2:1:   1/   2)   22u222d0       -0.921134       0.848488
          43  ( 2:1:   3/   2)   22u2d220        0.175110       0.030663
          45  ( 2:1:   5/   2)   22u22dud       -0.058871       0.003466
          47  ( 2:1:   7/   2)   22u22udd        0.103336       0.010678
          55  ( 2:1:  15/   2)   22u220d2       -0.078311       0.006133
         161  ( 3:1:   1/   7)   u2d22220        0.133400       0.017796
         219  ( 4:1:   1/   4)   2uu222dd        0.066166       0.004378
         222  ( 4:1:   4/   4)   2uu22dd2       -0.052248       0.002730
         294  ( 5:1:   2/  15)   20u222d2        0.094840       0.008995
 
  The CI coefficients for the MIXED state nr.   4
--------------------------------------------------------------------------------
 CI COEFFICIENTS LARGER THAN  0.50D-01
  Occupation of active orbitals, and spin coupling
  of open shells. (u,d: Spin up or down).
  SGUGA info is (Midvert:IsyUp:UpperWalk/LowerWalk)
        Conf  SGUGA info        Occupation    Coefficient         Weight
           2  ( 1:1:   2/   1)   22222ud0        0.269980       0.072889
           3  ( 1:1:   3/   1)   2222u2d0       -0.485657       0.235862
           6  ( 1:1:   6/   1)   22220220       -0.061986       0.003842
           7  ( 1:1:   7/   1)   22222u0d       -0.728113       0.530148
          14  ( 1:1:  14/   1)   22220u2d       -0.064684       0.004184
          15  ( 1:1:  15/   1)   22222002       -0.147511       0.021759
          21  ( 2:1:   1/   1)   222u22d0        0.077883       0.006066
          24  ( 2:1:   4/   1)   222u220d       -0.056973       0.003246
          41  ( 2:1:   1/   2)   22u222d0       -0.103233       0.010657
          73  ( 2:1:  13/   3)   2u222d02       -0.184399       0.034003
          81  ( 2:1:   1/   4)   u22222d0        0.111477       0.012427
          83  ( 2:1:   3/   4)   u222d220        0.111233       0.012373
          87  ( 2:1:   7/   4)   u2222udd        0.066450       0.004416
          90  ( 2:1:  10/   4)   u222du2d       -0.055121       0.003038
         175  ( 3:1:   5/   8)   20222202        0.090285       0.008151
         193  ( 3:1:   3/  10)   02222u2d       -0.063137       0.003986
 
  The CI coefficients for the MIXED state nr.   5
--------------------------------------------------------------------------------
 CI COEFFICIENTS LARGER THAN  0.50D-01
  Occupation of active orbitals, and spin coupling
  of open shells. (u,d: Spin up or down).
  SGUGA info is (Midvert:IsyUp:UpperWalk/LowerWalk)
        Conf  SGUGA info        Occupation    Coefficient         Weight
           2  ( 1:1:   2/   1)   22222ud0        0.147479       0.021750
           3  ( 1:1:   3/   1)   2222u2d0       -0.746833       0.557759
           7  ( 1:1:   7/   1)   22222u0d        0.526967       0.277694
          12  ( 1:1:  12/   1)   2222uudd        0.082125       0.006745
          14  ( 1:1:  14/   1)   22220u2d        0.052040       0.002708
          15  ( 1:1:  15/   1)   22222002        0.100772       0.010155
          18  ( 1:1:  18/   1)   2222u0d2       -0.064695       0.004185
          21  ( 2:1:   1/   1)   222u22d0       -0.118826       0.014120
          41  ( 2:1:   1/   2)   22u222d0       -0.087366       0.007633
          68  ( 2:1:   8/   3)   2u22u2dd        0.053049       0.002814
          73  ( 2:1:  13/   3)   2u222d02        0.134537       0.018100
          83  ( 2:1:   3/   4)   u222d220        0.190680       0.036359
         175  ( 3:1:   5/   8)   20222202       -0.064001       0.004096
         177  ( 3:1:   7/   8)   2022u2d2        0.075232       0.005660
         191  ( 3:1:   1/  10)   02222220        0.053648       0.002878
 
  The CI coefficients for the MIXED state nr.   6
--------------------------------------------------------------------------------
 CI COEFFICIENTS LARGER THAN  0.50D-01
  Occupation of active orbitals, and spin coupling
  of open shells. (u,d: Spin up or down).
  SGUGA info is (Midvert:IsyUp:UpperWalk/LowerWalk)
        Conf  SGUGA info        Occupation    Coefficient         Weight
           2  ( 1:1:   2/   1)   22222ud0        0.836129       0.699112
           3  ( 1:1:   3/   1)   2222u2d0        0.296676       0.088017
           5  ( 1:1:   5/   1)   2222ud20        0.056924       0.003240
           7  ( 1:1:   7/   1)   22222u0d        0.096340       0.009281
          21  ( 2:1:   1/   1)   222u22d0       -0.271097       0.073494
          25  ( 2:1:   5/   1)   222u2dud        0.057969       0.003360
          27  ( 2:1:   7/   1)   222u2udd       -0.084738       0.007181
          41  ( 2:1:   1/   2)   22u222d0       -0.158515       0.025127
          65  ( 2:1:   5/   3)   2u222dud        0.135352       0.018320
          67  ( 2:1:   7/   3)   2u222udd       -0.189140       0.035774
          83  ( 2:1:   3/   4)   u222d220       -0.074428       0.005540
         176  ( 3:1:   6/   8)   20222ud2       -0.122100       0.014908
 
  The CI coefficients for the MIXED state nr.   7
--------------------------------------------------------------------------------
 CI COEFFICIENTS LARGER THAN  0.50D-01
  Occupation of active orbitals, and spin coupling
  of open shells. (u,d: Spin up or down).
  SGUGA info is (Midvert:IsyUp:UpperWalk/LowerWalk)
        Conf  SGUGA info        Occupation    Coefficient         Weight
           2  ( 1:1:   2/   1)   22222ud0        0.253405       0.064214
           7  ( 1:1:   7/   1)   22222u0d        0.160649       0.025808
          15  ( 1:1:  15/   1)   22222002        0.050609       0.002561
          21  ( 2:1:   1/   1)   222u22d0        0.837952       0.702163
          24  ( 2:1:   4/   1)   222u220d        0.076368       0.005832
          25  ( 2:1:   5/   1)   222u2dud       -0.216397       0.046828
          27  ( 2:1:   7/   1)   222u2udd        0.301710       0.091029
          41  ( 2:1:   1/   2)   22u222d0       -0.084309       0.007108
          67  ( 2:1:   7/   3)   2u222udd       -0.056714       0.003217
          81  ( 2:1:   1/   4)   u22222d0       -0.053856       0.002900
         112  ( 3:1:   2/   2)   22ud22ud       -0.071946       0.005176
         201  ( 4:1:   1/   1)   22uu22dd       -0.074402       0.005536
         210  ( 4:1:   4/   2)   2u2u2dd2       -0.073012       0.005331
         262  ( 5:1:   2/   7)   202u22d2       -0.075464       0.005695
 
--
 
--- Stop Module: caspt2 at Wed Nov 13 20:26:49 2024 /rc=_RC_ALL_IS_WELL_ ---
*** files: xmldump
    saved to directory /home/pcaah4
--- Module caspt2 spent 6 minutes 53 seconds ---

.##################.
.# Happy landing! #.
.##################.

    Timing: Wall=668.20 User=577.75 System=75.46
******************************************************
*** WorkDir at /srv/COMMUNAL_SCRATCH/10390 cleaned ***
******************************************************
