   This run of MOLCAS is using the pymolcas driver

                             OPE
                             OPE          NMOL  CASOP  ENMOLC A   SO
                 OPE        NMOLC        AS  OP EN  MO LC     AS  OP
                OPENM       OL CA        SO  PE NM  OL CA     SOP EN
                OP EN      MO   LC       AS  OP ENMOL  CASO   PENMOL
                OP  EN     MO   LC       AS  OP EN     MO     LC ASO
               OP   E  NMOL  C  AS       OP  EN MO     LC     AS  OP
               OP  E   NMO   LC AS        OPEN  MO     LCASOP EN   M
               O  PEN   MO  LCA  SO
            OPE   NMO   L   CAS    OP
        OPENMOL  CASOP     ENMOL   CASOPE
     OPENMOLCA   SOPENMOLCASOPEN   MOLCASOPE
    OPENMOLCAS   OP           EN   MOL    CAS
    OPENMOLCAS       OP  ENM        O     LCA
    OPENMOLCAS    OPEN  MOLCASO     P  E  NMO
    OPENMOLCAS     OP               E  N  MOL
    OPENMOLCA   SO           PENM   O  L  CAS    OPEN    MO    LCAS
    OPENMOLCA   SOP           ENM   O  L  CAS   OP  EN  MOLC  AS   O
    OPENMOLCA   SOPE           NM      O  LCA   S      OP  EN MO
    OPENMOLC                AS         O  PEN   M      OL  CA  SOPE
    OPENMO        LCASOPE  NMOL        C  ASO   P      ENMOLC     AS
    OPE     NMO      LCA  SO     P     E   NM   OL  CA SO  PE N   MO
          OPENMOLCA            SOPE   NMO        LCAS  O    P  ENMO
     OPENMOLCASOPENMOLCASOPENMOLCASOPENMOLCA
        OPENMOLCASOPENMOLCASOPENMOLCASOPE
            OPENMOLCASOPENMOLCASOPENM
               OPENMOLCASOPENMOLCA        version: v23.06
                   OPENMOLCASO
                       OPE                tag:

 OpenMolcas is free software; you can redistribute it and/or modify it
 under the terms of the GNU Lesser General Public License version 2.1.
 OpenMolcas is distributed in the hope that it will be useful, but it
 is provided "as is" and without any express or implied warranties.
 For more details see the full text of the license in the file
 LICENSE or in <http://www.gnu.org/licenses/>.

                 Copyright (C) The OpenMolcas Authors
           For the author list and the recommended citation,
                   consult the file CONTRIBUTORS.md

           *************************************************
           * pymolcas version py2.24                       *
           *   build 4567b286dd94b1984b333a4ddf893180      *
           *   (after the EMIL interpreter by V. Veryazov) *
           *************************************************

configuration info
------------------
Host name: loginchem01.nottingham.ac.uk (Linux)
C Compiler ID: Intel
C flags: -std=gnu99 -gcc-sys -qopenmp
Fortran Compiler ID: Intel
Fortran flags: -fpp -i8 -heap-arrays -qopenmp
Definitions: _MOLCAS_;_I8_;_LINUX_
Parallel: OFF (GA=OFF)


   ------------------------------------------------------------------------------------------------------------
  |
  |              Project: orca_geometry_optimisation_210_180_BP86_def2-SVP_def2J_scf_cas1_ras12i11_cas2_ras12i8
  |       Submitted from: /home/pcaah4
  |         Scratch area: /srv/COMMUNAL_SCRATCH/10400
  |      Save outputs to: /home/pcaah4
  |               Molcas: /software/chemistry/openmolcas/openmolcas-23.06-openmp
  |
  | Scratch area is empty
  |
  |       MOLCAS_DRIVER = /software/chemistry/openmolcas/openmolcas-23.06-openmp/sbin/pymolcas
  | MOLCAS_KEEP_WORKDIR = NO
  |       MOLCAS_NPROCS = 1
  |       MOLCAS_SOURCE = /software/chemistry/openmolcas/openmolcas-23.06-openmp
  |    MOLCAS_STRUCTURE = 0
  |
   ------------------------------------------------------------------------------------------------------------

++ ---------   Input file   ---------

&SEWARD
TITLE
orca_geometry_optimisation_210_180_BP86_def2-SVP_def2J_scf_cas1_ras12i11
MULTIPOLES
2
SDIPOLE
ANGMOM
0 0 0
BASIS SET
C.ANO-S...4S3P1D.
C1            0.038434   -0.016289    0.117888 /Angstrom
C3            2.140792    1.241696   -0.004533 /Angstrom
C4            3.496531    0.943356   -0.665064 /Angstrom
C6            5.611931    1.953924   -1.462140 /Angstrom
C19          -0.589139   -1.406273    0.124141 /Angstrom
END OF BASIS
BASIS SET
N.ANO-S...4S3P1D.
N2            1.412071    0.007436    0.147516 /Angstrom
N5            4.290385    2.038214   -0.867050 /Angstrom
END OF BASIS
BASIS SET
O.ANO-S...4S3P1D.
O7           -0.635406    1.014796    0.108881 /Angstrom
O8            3.832671   -0.207851   -0.953897 /Angstrom
END OF BASIS
BASIS SET
H.ANO-S...2S1P.
H9           -1.221037   -1.507972    1.029072 /Angstrom
H10          -1.263492   -1.495558   -0.750582 /Angstrom
H11           0.146999   -2.233489    0.104552 /Angstrom
H12           1.970495   -0.831981   -0.050202 /Angstrom
H13           1.537127    1.957157   -0.607716 /Angstrom
H14           2.320332    1.746910    0.975010 /Angstrom
H15           3.924060    2.955754   -0.607618 /Angstrom
H16           5.667443    2.512052   -2.421098 /Angstrom
H17           6.393647    2.348073   -0.778577 /Angstrom
H18           5.815658    0.885027   -1.660663 /Angstrom
END OF BASIS
END OF INPUT

&RASSCF
TITLE
orca_geometry_optimisation_210_180_BP86_def2-SVP_def2J_scf_cas1_ras12i11
LUMORB
SPIN
1
SYMMETRY
1
NACTEL
12  0  0
INACTIVE
29
DELETED  ! delete Rydberg orbitals from an initial CAS(12,11) if done
3
FROZEN
0
RAS2
8
ITERATIONS
64 25
CIROOT
7 7
1 2 3 4 5 6 7
1 1 1 1 1 1 1
LEVSHFT
0.3
CIMX
20
FILEorb = /home/pcaah4/outputs/cas1_ras12i11_rasorb_files/orca_geometry_optimisation_210_180_BP86_def2-SVP_def2J_scf_cas1_ras12i11.RasOrb
ALTEr
3
 1 38 210
 1 39 211
 1 40 212
END OF INPUT

&RASSI
NROF JOBIPH
    1 7
    1 2 3 5 4 6 7
TOFILE
TRDI
TDMN
1.0D-6
END OF INPUT

&CASPT2
TITLE
orca_geometry_optimisation_210_180_BP86_def2-SVP_def2J_scf_cas1_ras12i11
MULTISTATE
7 1 2 3 4 5 6 7
SHIFT
0.35
MAXITER
50
END OF INPUT

-- ----------------------------------

--- Start Module: seward at Wed Nov 13 20:45:34 2024 ---
 
()()()()()()()()()()()()()()()()()()()()()()()()()()()()()()()()()()()()()()()()()()()()()()()()()()

                                              &SEWARD

                                   only a single process is used
                       available to each process: 2.0 GB of memory, 1 thread
                                            pid: 1799495
()()()()()()()()()()()()()()()()()()()()()()()()()()()()()()()()()()()()()()()()()()()()()()()()()()
 
               SEWARD will generate:
                  Multipole Moment integrals up to order  2
                  Kinetic Energy integrals
                  Nuclear Attraction integrals (point charge)
                  One-Electron Hamiltonian integrals
                  Velocity integrals
                  Orbital angular momentum around ( 0.0000  0.0000  0.0000 )
                  Velocity quadrupole around ( 4.1385  1.1700 -0.7420 )
                  Two-Electron Repulsion integrals
 
 Title:
            orca_geometry_optimisation_210_180_BP86_def2-SVP_def2J_scf_cas1_ras12i11    
 
 
                   Integrals are discarded if absolute value <: 0.10E-13
                   Integral cutoff threshold is set to       <: 0.10E-15
 
++    Symmetry information:
      ---------------------
 
                    Character Table for C1 
 
                             E  
                    a        1  x, y, xy, Rz, z, xz, Ry, yz, Rx, I
--
 
 
++    Basis set information:
      ----------------------
 
 
      Basis set label: C.ANO-S...4S3P1D......
 
      Electronic valence basis set:
      ------------------
      Associated Effective Charge   6.000000 au
      Associated Actual Charge      6.000000 au
      Nuclear Model: Point charge
 
      Shell  nPrim  nBasis  Cartesian Spherical Contaminant
         s      10       4        X                  
         p       6       3        X                  
         d       3       1                 X         
 
 
      Basis set label: N.ANO-S...4S3P1D......
 
      Electronic valence basis set:
      ------------------
      Associated Effective Charge   7.000000 au
      Associated Actual Charge      7.000000 au
      Nuclear Model: Point charge
 
      Shell  nPrim  nBasis  Cartesian Spherical Contaminant
         s      10       4        X                  
         p       6       3        X                  
         d       3       1                 X         
 
 
      Basis set label: O.ANO-S...4S3P1D......
 
      Electronic valence basis set:
      ------------------
      Associated Effective Charge   8.000000 au
      Associated Actual Charge      8.000000 au
      Nuclear Model: Point charge
 
      Shell  nPrim  nBasis  Cartesian Spherical Contaminant
         s      10       4        X                  
         p       6       3        X                  
         d       3       1                 X         
 
 
      Basis set label: H.ANO-S...2S1P......
 
      Electronic valence basis set:
      ------------------
      Associated Effective Charge   1.000000 au
      Associated Actual Charge      1.000000 au
      Nuclear Model: Point charge
 
      Shell  nPrim  nBasis  Cartesian Spherical Contaminant
         s       7       2        X                  
         p       3       1        X                  
--
 
 
++    Molecular structure info:
      -------------------------
 
                    ************************************************ 
                    **** Cartesian Coordinates / Bohr, Angstrom **** 
                    ************************************************ 
 
     Center  Label                x              y              z                     x              y              z
        1      C1               0.072630      -0.030782       0.222776              0.038434      -0.016289       0.117888
        2      C3               4.045511       2.346465      -0.008566              2.140792       1.241696      -0.004533
        3      C4               6.607486       1.782684      -1.256789              3.496531       0.943356      -0.665064
        4      C6              10.605013       3.692381      -2.763044              5.611931       1.953924      -1.462140
        5      C19             -1.113311      -2.657471       0.234592             -0.589139      -1.406273       0.124141
        6      N2               2.668427       0.014052       0.278765              1.412071       0.007436       0.147516
        7      N5               8.107653       3.851666      -1.638487              4.290385       2.038214      -0.867050
        8      O7              -1.200743       1.917687       0.205755             -0.635406       1.014796       0.108881
        9      O8               7.242699      -0.392781      -1.802604              3.832671      -0.207851      -0.953897
       10      H9              -2.307426      -2.849654       1.944664             -1.221037      -1.507972       1.029072
       11      H10             -2.387654      -2.826195      -1.418394             -1.263492      -1.495558      -0.750582
       12      H11              0.277788      -4.220683       0.197575              0.146999      -2.233489       0.104552
       13      H12              3.723696      -1.572216      -0.094868              1.970495      -0.831981      -0.050202
       14      H13              2.904749       3.698491      -1.148417              1.537127       1.957157      -0.607716
       15      H14              4.384792       3.301181       1.842502              2.320332       1.746910       0.975010
       16      H15              7.415399       5.585566      -1.148232              3.924060       2.955754      -0.607618
       17      H16             10.709915       4.747090      -4.575212              5.667443       2.512052      -2.421098
       18      H17             12.082242       4.437215      -1.471297              6.393647       2.348073      -0.778577
       19      H18             10.990001       1.672459      -3.138198              5.815658       0.885027      -1.660663
 
                    ************************************************* 
                    **** InterNuclear Distances / Bohr, Angstrom **** 
                    ************************************************* 
 
     Atom centers         Bohr        Angstrom
   16 H15       7 N5      1.930278        1.021459
   13 H12       6 N2      1.941505        1.027400
   19 H18       4 C6      2.090226        1.106100
   12 H11       5 C19     2.092883        1.107506
   11 H10       5 C19     2.093987        1.108090
   10 H9        5 C19     2.094562        1.108394
   18 H17       4 C6      2.098950        1.110717
   17 H16       4 C6      2.099373        1.110941
   14 H13       2 C3      2.104417        1.113609
   15 H14       2 C3      2.110224        1.116683
    8 O7        1 C1      2.327724        1.231778
    9 O8        3 C4      2.331107        1.233569
    7 N5        3 C4      2.583966        1.367376
    6 N2        1 C1      2.596789        1.374161
    6 N2        2 C3      2.723797        1.441371
    7 N5        4 C6      2.743503        1.451799
    5 C19       1 C1      2.882029        1.525104
    3 C4        2 C3      2.905104        1.537315
   15 H14      14 H13     3.360651        1.778380
   11 H10      10 H9      3.364097        1.780204
   19 H18      17 H16     3.405410        1.802065
   18 H17      17 H16     3.407872        1.803368
   12 H11      10 H9      3.408133        1.803506
   19 H18      18 H17   
   12 H11      11 H10     3.414752        1.807009
   16 H15       3 C4      3.889269        2.058112
   19 H18       7 N5      3.912290        2.070295
   13 H12       2 C3      3.932821        2.081159
   14 H13       6 N2      3.958255        2.094618
   13 H12       1 C1      3.975827        2.103917
   18 H17       7 N5      4.020967        2.127804
   15 H14       6 N2      4.024475        2.129661
   17 H16       7 N5      4.024663        2.129760
   16 H15       4 C6      4.045418        2.140743
   11 H10       1 C1      4.069493        2.153483
   10 H9        1 C1      4.071315        2.154447
   13 H12       9 O8      4.085439        2.161921
   15 H14       3 C4      4.105095        2.172323
   14 H13       3 C4      4.170410        2.206886
   12 H11       1 C1      4.194996        2.219896
    8 O7        6 N2      4.312730        2.282198
    9 O8        7 N5      4.334791        2.293873
   13 H12      12 H11     4.355936        2.305062
   19 H18       9 O8      4.482332        2.371948
   13 H12       3 C4      4.574021        2.420467
    8 O7        5 C19     4.576084        2.421559
    9 O8        2 C3      4.576468        2.421762
    6 N2        3 C4      4.582812        2.425120
    7 N5        2 C3      4.628528        2.449311
    6 N2        5 C19     4.630392        2.450298
    2 C3        1 C1      4.635580        2.453043
   14 H13       8 O7      4.675480        2.474157
    4 C6        3 C4      4.679313        2.476186
   19 H18       3 C4      4.770565        2.524474
   16 H15       2 C3      4.811107        2.545928
   18 H17      16 H15     4.816898        2.548993
   17 H16      16 H15     4.827119        2.554401
   16 H15      15 H14     4.831922        2.556943
   12 H11       6 N2      4.863612        2.573713
   14 H13       1 C1      4.879400        2.582067
   16 H15      14 H13     4.889480        2.587401
   13 H12       5 C19     4.968195        2.629056
    9 O8        6 N2      5.041980        2.668101
   15 H14       7 N5      5.126403        2.712776
   11 H10       8 O7      5.152769        2.726728
   10 H9        8 O7      5.193851        2.748467
   14 H13       7 N5      5.228177        2.766632
    8 O7        2 C3      5.268108        2.787763
   15 H14      13 H12     5.285873        2.797164
    9 O8        4 C6      5.377374        2.845584
   14 H13      13 H12     5.437002        2.877138
   19 H18      16 H15     5.661286        2.995823
--
 
 
            Nuclear Potential Energy            446.98800282 au
 
 
      Basis set specifications :
      Symmetry species         a  
      Basis functions          212
 
 
      Input file to MOLDEN was generated!
 
--- Stop Module: seward at Wed Nov 13 20:47:21 2024 /rc=_RC_ALL_IS_WELL_ ---
*** files: orca_geometry_optimisation_210_180_BP86_def2-SVP_def2J_scf_cas1_ras12i11_cas2_ras12i8.GssOrb
           orca_geometry_optimisation_210_180_BP86_def2-SVP_def2J_scf_cas1_ras12i11_cas2_ras12i8.guessorb.molden xmldump
    saved to directory /home/pcaah4
--- Module seward spent 1 minute 47 seconds ---

*** symbolic link created: INPORB -> orca_geometry_optimisation_210_180_BP86_def2-SVP_def2J_scf_cas1_ras12i11_cas2_ras12i8.GssOrb
--- Start Module: rasscf at Wed Nov 13 20:47:22 2024 ---
 
()()()()()()()()()()()()()()()()()()()()()()()()()()()()()()()()()()()()()()()()()()()()()()()()()()

                                              &RASSCF

                                   only a single process is used
                       available to each process: 2.0 GB of memory, 1 thread
                                            pid: 1799787
()()()()()()()()()()()()()()()()()()()()()()()()()()()()()()()()()()()()()()()()()()()()()()()()()()
 
 
      Header of the ONEINT file:
      --------------------------
      orca_geometry_optimisation_210_180_BP86_def2-SVP_def2J_scf_cas1_ras12i11
      Integrals generated by Gateway/Seward, Wed Nov 13 20:45:35 2024
 
 
      OrdInt status: non-squared
 
 
      Cartesian coordinates in Angstrom:
      -----------------------------------------------------
      No.  Label        X            Y            Z        
      -----------------------------------------------------
       1   C1         0.03843400  -0.01628900   0.11788800
       2   C3         2.14079200   1.24169600  -0.00453300
       3   C4         3.49653100   0.94335600  -0.66506400
       4   C6         5.61193100   1.95392400  -1.46214000
       5   C19       -0.58913900  -1.40627300   0.12414100
       6   N2         1.41207100   0.00743600   0.14751600
       7   N5         4.29038500   2.03821400  -0.86705000
       8   O7        -0.63540600   1.01479600   0.10888100
       9   O8         3.83267100  -0.20785100  -0.95389700
      10   H9        -1.22103700  -1.50797200   1.02907200
      11   H10       -1.26349200  -1.49555800  -0.75058200
      12   H11        0.14699900  -2.23348900   0.10455200
      13   H12        1.97049500  -0.83198100  -0.05020200
      14   H13        1.53712700   1.95715700  -0.60771600
      15   H14        2.32033200   1.74691000   0.97501000
      16   H15        3.92406000   2.95575400  -0.60761800
      17   H16        5.66744300   2.51205200  -2.42109800
      18   H17        6.39364700   2.34807300  -0.77857700
      19   H18        5.81565800   0.88502700  -1.66066300
      -----------------------------------------------------
      Nuclear repulsion energy =  446.98800282
 
++    Wave function specifications:
      -----------------------------
 
      Number of closed shell electrons          58
      Number of electrons in active shells      12
      Max number of holes in RAS1 space          0
      Max nr of electrons in RAS3 space          0
      Number of inactive orbitals               29
      Number of active orbitals                  8
      Number of secondary orbitals             172
      Spin quantum number                      0.0
      State symmetry                             1
--
 
++    Orbital specifications:
      -----------------------
 
      Symmetry species                           1
                                                 a
      Frozen orbitals                            0
      Inactive orbitals                         29
      Active orbitals                            8
      RAS1 orbitals                              0
      RAS2 orbitals                              8
      RAS3 orbitals                              0
      Secondary orbitals                       172
      Deleted orbitals                           3
      Number of basis functions                212
--
 
++    CI expansion specifications:
      ----------------------------
 
      Number of CSFs                           336
      Number of determinants                   406
      Number of root(s) required                 7
      Root chosen for geometry opt.              7
      CI roots used                              1     2     3     4     5     6     7
      weights                                0.143 0.143 0.143 0.143 0.143 0.143 0.143
      highest root included in the CI            7
      max. size of the explicit Hamiltonian    200
--
 
++    Optimization specifications:
      ----------------------------
 
      RASSCF algorithm: Conventional
      Maximum number of macro iterations        64
      Maximum number of SX iterations           25
      Threshold for RASSCF energy            0.100E-07
      Threshold for max MO rotation          0.100E+00
      Threshold for max BLB element          0.100E-03
      Level shift parameter                  0.300E+00
      Make Quasi-Newton update
--
 
      The MO-coefficients are taken from the file:
      /home/pcaah4/outputs/cas1_ras12i11_rasorb_files/orca_geometry_optimisation_210_180_BP86_def2-SVP_def2J_scf_cas1_ras12i11.RasOrb                                                                                                                                 
      Title: RASSCF average (pseudo-natural) orbitals                                      
 
      Total molecular charge    0.00
 
      Molecular orbitals exchanged:
        In symmetry  1 :  38 210
        In symmetry  1 :  39 211
        In symmetry  1 :  40 212
 
 
      ************************************************************************************************************************
      *                                                                                                                      *
      *                                            Wave function control section                                             *
      *                                                                                                                      *
      ************************************************************************************************************************
 
 
                                         RASSCF iterations: Energy and convergence statistics
                                         ----------------------------------------------------
 
      Iter CI   SX   CI       RASSCF       Energy    max ROT     max BLB   max BLB  Level Ln srch  Step   QN   Walltime
          iter iter root      energy       change     param      element    value   shift minimum  type update hh:mm:ss
 Nr of preliminary CI iterations:   4
        1   1   11    0  -453.70532751    0.00E+00   0.53E-01   34 142 1  0.17E-01*  0.19   0.00    SX    NO    0:00:13
        2   1    9    0  -453.70794677   -0.26E-02* -0.26E-01   34 142 1  0.26E-02*  0.20   0.00    SX    NO    0:00:06
        3   3    9    0  -453.70846307   -0.52E-03* -0.23E-01   36 100 1 -0.99E-03*  0.20   0.00    SX    NO    0:00:06
        4   4    8    0  -453.70863863   -0.18E-03* -0.15E-01   23  36 1 -0.60E-03*  0.20   0.00    SX    NO    0:00:06
        5   3    8    0  -453.70870180   -0.63E-04* -0.20E-01   36  50 1 -0.40E-03*  0.20   2.44    LS   YES    0:00:06
        6   4    7    0  -453.70873842   -0.37E-04* -0.46E-02   34 106 1 -0.20E-03*  0.20   1.15    QN   YES    0:00:06
        7   3    7    0  -453.70874176   -0.33E-05* -0.15E-02   18  78 1 -0.12E-03*  0.20   1.27    QN   YES    0:00:06
        8   4    6    0  -453.70874278   -0.10E-05*  0.65E-03   36  41 1 -0.51E-04   0.20   1.15    QN   YES    0:00:06
        9   3    6    0  -453.70874295   -0.17E-06*  0.39E-03   36  41 1 -0.33E-04   0.20   1.33    QN   YES    0:00:06
       10   1    5    0  -453.70874300   -0.47E-07* -0.24E-03   36  41 1 -0.18E-04   0.20   1.30    QN   YES    0:00:06
       11   1    5    0  -453.70874302   -0.20E-07* -0.17E-03   36  41 1 -0.80E-05   0.20   1.64    QN   YES    0:00:06
       12   1    5    0  -453.70874302   -0.67E-08  -0.31E-04   32  79 1 -0.35E-05   0.20   1.14    QN   YES    0:00:06
      Convergence after 12 iterations
       13   1    5    0  -453.70874302   -0.72E-09  -0.31E-04   32  79 1 -0.17E-05   0.20   1.14    QN   YES    0:00:06
 
      ************************************************************************************************************************
                                                      Wave function printout:
                       occupation of active orbitals, and spin coupling of open shells (u,d: Spin up or down)
      ************************************************************************************************************************
 
      Note: transformation to natural orbitals
      has been made, which may change the order of the CSFs.
 
      printout of CI-coefficients larger than  0.05 for root  1
      energy=    -453.959378
      conf/sym  11111111     Coeff  Weight
             1  22222200   0.96526 0.93172
             6  22220220  -0.07629 0.00582
             7  22222u0d  -0.11986 0.01437
            15  22222002  -0.07993 0.00639
            64  2u22220d  -0.07958 0.00633
            73  2u222d02  -0.06465 0.00418
            81  u22222d0  -0.10149 0.01030
           175  20222202  -0.10184 0.01037
           191  02222220  -0.07975 0.00636
 
      printout of CI-coefficients larger than  0.05 for root  2
      energy=    -453.747263
      conf/sym  11111111     Coeff  Weight
            24  222u220d   0.96149 0.92447
            32  222u022d  -0.07557 0.00571
            33  222u2d02   0.10084 0.01017
           125  2u2d2202   0.18740 0.03512
           213  u22u22dd   0.08640 0.00746
           269  022u222d   0.08045 0.00647
 
      printout of CI-coefficients larger than  0.05 for root  3
      energy=    -453.727066
      conf/sym  11111111     Coeff  Weight
            21  222u22d0   0.10366 0.01075
            41  22u222d0  -0.94758 0.89791
            43  22u2d220   0.15745 0.02479
            45  22u22dud   0.06376 0.00406
            47  22u22udd  -0.11336 0.01285
            55  22u220d2  -0.07727 0.00597
           161  u2d22220  -0.13190 0.01740
           219  2uu222dd   0.07017 0.00492
           222  2uu22dd2   0.05773 0.00333
           294  20u222d2   0.10179 0.01036
 
      printout of CI-coefficients larger than  0.05 for root  4
      energy=    -453.651085
      conf/sym  11111111     Coeff  Weight
             2  22222ud0   0.68653 0.47132
             3  2222u2d0   0.65221 0.42538
             7  22222u0d  -0.08294 0.00688
            12  2222uudd   0.07351 0.00540
            18  2222u0d2   0.06048 0.00366
            65  2u222dud   0.09133 0.00834
            67  2u222udd  -0.13548 0.01835
            81  u22222d0   0.06120 0.00375
            83  u222d220   0.15438 0.02383
           176  20222ud2  -0.09693 0.00940
           177  2022u2d2  -0.06628 0.00439
 
      printout of CI-coefficients larger than  0.05 for root  5
      energy=    -453.637106
      conf/sym  11111111     Coeff  Weight
             1  22222200  -0.05811 0.00338
             2  22222ud0  -0.62837 0.39484
             3  2222u2d0   0.60111 0.36134
             7  22222u0d  -0.35755 0.12784
            15  22222002   0.07627 0.00582
            21  222u22d0  -0.09015 0.00813
            65  2u222dud  -0.10536 0.01110
            67  2u222udd   0.13968 0.01951
            73  2u222d02  -0.08798 0.00774
            83  u222d220   0.13128 0.01723
           176  20222ud2   0.09265 0.00858
           177  2022u2d2  -0.06504 0.00423
 
      printout of CI-coefficients larger than  0.05 for root  6
      energy=    -453.626161
      conf/sym  11111111     Coeff  Weight
             1  22222200   0.08981 0.00807
             2  22222ud0  -0.20111 0.04044
             3  2222u2d0   0.32679 0.10679
             7  22222u0d   0.74617 0.55677
            14  22220u2d   0.06156 0.00379
            15  22222002  -0.14698 0.02160
            21  222u22d0   0.38672 0.14956
            25  222u2dud   0.09597 0.00921
            27  222u2udd  -0.13937 0.01942
            41  22u222d0   0.05868 0.00344
            67  2u222udd   0.05356 0.00287
            73  2u222d02   0.18942 0.03588
            83  u222d220   0.07911 0.00626
            87  u2222udd   0.07544 0.00569
           175  20222202   0.08836 0.00781
           193  02222u2d   0.05711 0.00326
 
      printout of CI-coefficients larger than  0.05 for root  7
      energy=    -453.613142
      conf/sym  11111111     Coeff  Weight
             1  22222200   0.05081 0.00258
             3  2222u2d0   0.07365 0.00542
             7  22222u0d   0.39724 0.15780
            15  22222002  -0.09068 0.00822
            21  222u22d0  -0.81142 0.65841
            25  222u2dud  -0.19401 0.03764
            27  222u2udd   0.27958 0.07817
            41  22u222d0  -0.08142 0.00663
            73  2u222d02   0.09717 0.00944
           175  20222202   0.05113 0.00261
           210  2u2u2dd2  -0.06761 0.00457
           262  202u22d2   0.07346 0.00540
 
      Natural orbitals and occupation numbers for root  1
      sym 1:   1.973058   1.955281   1.999869   1.999777   1.994999   1.995749   0.032115   0.049153
 
      Natural orbitals and occupation numbers for root  2
      sym 1:   1.972170   1.999971   1.999754   1.002162   1.995364   1.999816   0.032753   0.998011
 
      Natural orbitals and occupation numbers for root  3
      sym 1:   1.999927   1.995626   1.001784   1.998776   1.999818   1.952954   0.999482   0.051633
 
      Natural orbitals and occupation numbers for root  4
      sym 1:   1.985997   1.931973   1.999716   1.999506   1.975191   1.078767   0.954684   0.074166
 
      Natural orbitals and occupation numbers for root  5
      sym 1:   1.979134   1.935832   1.999733   1.998814   1.900857   1.087396   0.950013   0.148221
 
      Natural orbitals and occupation numbers for root  6
      sym 1:   1.979050   1.951645   1.999572   1.764603   1.982622   1.243582   0.284830   0.794098
 
      Natural orbitals and occupation numbers for root  7
      sym 1:   1.999230   1.974559   1.994302   1.328463   1.990985   1.764212   0.685055   0.263194
 
      ************************************************************************************************************************
      *                                                                                                                      *
      *                                                    Final results                                                     *
      *                                                                                                                      *
      ************************************************************************************************************************
 
 
++    Wave function specifications:
      -----------------------------
 
      Number of closed shell electrons          58
      Number of electrons in active shells      12
      Max number of holes in RAS1 space          0
      Max nr of electrons in RAS3 space          0
      Number of inactive orbitals               29
      Number of active orbitals                  8
      Number of secondary orbitals             172
      Spin quantum number                      0.0
      State symmetry                             1
--
 
++    Orbital specifications:
      -----------------------
 
      Symmetry species                           1
                                                 a
      Frozen orbitals                            0
      Inactive orbitals                         29
      Active orbitals                            8
      RAS1 orbitals                              0
      RAS2 orbitals                              8
      RAS3 orbitals                              0
      Secondary orbitals                       172
      Deleted orbitals                           3
      Number of basis functions                212
--
 
++    CI expansion specifications:
      ----------------------------
 
      Number of CSFs                           336
      Number of determinants                   406
      Number of root(s) required                 7
      CI roots used                              1     2     3     4     5     6     7
      weights                                0.143 0.143 0.143 0.143 0.143 0.143 0.143
      highest root included in the CI            7
      Root passed to geometry opt.               7
--
 
++    Final optimization conditions:
      ------------------------------
 
      Average CI energy                            -453.70874302
      RASSCF energy for state  7                   -453.61314192
      Super-CI energy                                -0.00000000
      RASSCF energy change                            0.00000000
      Max change in MO coefficients              -0.270E-04
      Max non-diagonal density matrix element    -0.310E-04
      Maximum BLB matrix element                 -0.165E-05
      (orbital pair  32,  79 in symmetry   1)
      Norm of electronic gradient            0.280E+00
--
 
 
      Final state energy(ies):
      ------------------------
 
::    RASSCF root number  1 Total energy:   -453.95937751
::    RASSCF root number  2 Total energy:   -453.74726335
::    RASSCF root number  3 Total energy:   -453.72706618
::    RASSCF root number  4 Total energy:   -453.65108541
::    RASSCF root number  5 Total energy:   -453.63710604
::    RASSCF root number  6 Total energy:   -453.62616075
::    RASSCF root number  7 Total energy:   -453.61314192
 
++    Molecular orbitals:
      -------------------
 
      Pseudonatural active orbitals and approximate occupation numbers
 
 
 
 
      Molecular orbitals for symmetry species 1: a  
 
 
      Orbital                 1         2         3         4         5         6         7         8         9        10
      Energy           -20.6044  -20.5354  -15.6329  -15.5866  -11.3396  -11.2905  -11.2882  -11.2643  -11.2555   -1.4238
      Occ. No.           2.0000    2.0000    2.0000    2.0000    2.0000    2.0000    2.0000    2.0000    2.0000    2.0000
 
     1 C1     1s         0.0003   -0.0001    0.0004    0.0001    1.0000    0.0000    0.0002   -0.0000   -0.0037   -0.0393
     2 C1     2s         0.0010   -0.0007    0.0017    0.0005    0.0024    0.0000   -0.0004   -0.0002   -0.0006    0.3503
     3 C1     3s        -0.0004   -0.0006    0.0008    0.0003   -0.0000   -0.0001   -0.0005   -0.0002   -0.0008   -0.0076
     4 C1     4s        -0.0004   -0.0002    0.0002    0.0001    0.0013   -0.0001   -0.0003   -0.0001   -0.0002    0.0026
     5 C1     2px       -0.0013   -0.0002    0.0018    0.0002    0.0012   -0.0003   -0.0002   -0.0001   -0.0004   -0.0437
     6 C1     3px       -0.0008   -0.0003    0.0014    0.0001    0.0012   -0.0005   -0.0007   -0.0002    0.0002    0.0253
     7 C1     4px        0.0002   -0.0001   -0.0001   -0.0000    0.0004   -0.0001   -0.0004   -0.0001    0.0002   -0.0135
     8 C1     2py        0.0030   -0.0001    0.0003   -0.0002    0.0013   -0.0005   -0.0002   -0.0001   -0.0005    0.0926
     9 C1     3py        0.0020   -0.0002    0.0002   -0.0003    0.0011   -0.0007   -0.0007   -0.0002    0.0003   -0.0725
    10 C1     4py       -0.0004   -0.0001   -0.0000   -0.0000    0.0007   -0.0001   -0.0004   -0.0001    0.0003    0.0227
    11 C1     2pz        0.0001   -0.0001    0.0000    0.0000    0.0001    0.0001    0.0001   -0.0000   -0.0000   -0.0018
    12 C1     3pz        0.0001   -0.0002    0.0001   -0.0000   -0.0000    0.0001    0.0001    0.0000   -0.0000   -0.0024
    13 C1     4pz        0.0000   -0.0000    0.0000   -0.0001    0.0000    0.0000    0.0000    0.0000   -0.0000   -0.0005
    14 C1     3d2-       0.0001   -0.0000    0.0001   -0.0000   -0.0004    0.0000    0.0000   -0.0000    0.0001   -0.0327
    15 C1     3d1-       0.0000   -0.0000    0.0000    0.0000   -0.0000    0.0000   -0.0000   -0.0000   -0.0000   -0.0004
    16 C1     3d0       -0.0000   -0.0000    0.0001   -0.0000   -0.0004    0.0000   -0.0000   -0.0000    0.0001   -0.0278
    17 C1     3d1+       0.0000   -0.0000   -0.0000    0.0000   -0.0000    0.0000    0.0000   -0.0000   -0.0000    0.0001
    18 C1     3d2+       0.0001    0.0000   -0.0002    0.0000   -0.0000    0.0000    0.0000    0.0000   -0.0000   -0.0102
    19 C3     1s         0.0001   -0.0000    0.0005   -0.0001   -0.0001    0.1261    0.9915    0.0001    0.0001   -0.0098
    20 C3     2s         0.0007   -0.0003    0.0025   -0.0007    0.0008    0.0002   -0.0013    0.0009    0.0007    0.0196
    21 C3     3s         0.0004   -0.0003    0.0012   -0.0005    0.0004   -0.0004   -0.0026    0.0005    0.0004   -0.0181
    22 C3     4s         0.0001   -0.0001    0.0001   -0.0002   -0.0000    0.0001    0.0007    0.0000    0.0000   -0.0016
    23 C3     2px       -0.0001    0.0004   -0.0004   -0.0005    0.0008   -0.0006   -0.0013    0.0004    0.0004   -0.0286
    24 C3     3px        0.0001    0.0002   -0.0000   -0.0008    0.0016   -0.0013   -0.0014    0.0002    0.0007   -0.0211
    25 C3     4px        0.0002   -0.0002    0.0001   -0.0003    0.0006   -0.0003   -0.0005   -0.0001    0.0002   -0.0083
    26 C3     2py       -0.0002    0.0005   -0.0006   -0.0003    0.0006   -0.0002   -0.0004    0.0003    0.0001   -0.0260
    27 C3     3py       -0.0000    0.0003   -0.0000   -0.0003    0.0008   -0.0002   -0.0004    0.0005    0.0003   -0.0099
    28 C3     4py        0.0001   -0.0001    0.0002   -0.0000    0.0002   -0.0001   -0.0008    0.0001    0.0001   -0.0053
    29 C3     2pz        0.0003   -0.0002   -0.0001    0.0000    0.0000   -0.0000    0.0005   -0.0001    0.0002   -0.0045
    30 C3     3pz        0.0003   -0.0001   -0.0002    0.0001   -0.0001    0.0002    0.0003   -0.0001    0.0002   -0.0032
    31 C3     4pz       -0.0000    0.0001   -0.0000    0.0001   -0.0001    0.0001    0.0000    0.0000   -0.0000    0.0015
    32 C3     3d2-       0.0001    0.0001    0.0000    0.0000    0.0001   -0.0001    0.0000   -0.0000    0.0000    0.0033
    33 C3     3d1-      -0.0000   -0.0000    0.0000    0.0000   -0.0000    0.0000    0.0000    0.0000    0.0000   -0.0006
    34 C3     3d0       -0.0000   -0.0000    0.0001   -0.0001   -0.0000    0.0001    0.0000   -0.0000   -0.0000   -0.0030
    35 C3     3d1+       0.0000   -0.0001    0.0000   -0.0000    0.0000    0.0001    0.0001   -0.0001    0.0000   -0.0009
    36 C3     3d2+      -0.0000    0.0001    0.0001   -0.0000    0.0000    0.0000   -0.0000    0.0001   -0.0000   -0.0005
    37 C4     1s         0.0000    0.0004   -0.0003    0.0003   -0.0001    0.9921   -0.1261    0.0003   -0.0000   -0.0010
    38 C4     2s         0.0001    0.0013   -0.0017    0.0013   -0.0007    0.0030    0.0007   -0.0007   -0.0002    0.0327
    39 C4     3s         0.0001   -0.0002   -0.0013    0.0006   -0.0006    0.0004    0.0003   -0.0006   -0.0001    0.0070
    40 C4     4s        -0.0000   -0.0003   -0.0004    0.0001   -0.0002    0.0014   -0.0001   -0.0002   -0.0000    0.0028
    41 C4     2px       -0.0002    0.0010    0.0009    0.0011    0.0002    0.0008   -0.0008   -0.0001    0.0000   -0.0035
    42 C4     3px       -0.0002    0.0006    0.0012    0.0009    0.0004    0.0006    0.0000   -0.0008    0.0000   -0.0052
    43 C4     4px        0.0000   -0.0002    0.0003   -0.0000    0.0002    0.0005    0.0003   -0.0006    0.0000   -0.0024
    44 C4     2py       -0.0001   -0.0029   -0.0002    0.0012    0.0001    0.0008    0.0000   -0.0004   -0.0001   -0.0047
    45 C4     3py       -0.0002   -0.0018   -0.0000    0.0010   -0.0000    0.0007    0.0003   -0.0005   -0.0002    0.0036
    46 C4     4py       -0.0001    0.0004    0.0001   -0.0001   -0.0001    0.0001    0.0002   -0.0001   -0.0000   -0.0004
    47 C4     2pz       -0.0001   -0.0007   -0.0003   -0.0003   -0.0000    0.0001    0.0004    0.0000   -0.0001    0.0039
    48 C4     3pz       -0.0002   -0.0004   -0.0003   -0.0002   -0.0001   -0.0001    0.0002    0.0003   -0.0002    0.0054
    49 C4     4pz       -0.0001    0.0001   -0.0001    0.0000   -0.0000   -0.0001   -0.0001    0.0002   -0.0000    0.0012
    50 C4     3d2-       0.0000    0.0001    0.0000   -0.0001   -0.0000    0.0000   -0.0000    0.0001   -0.0000   -0.0004
    51 C4     3d1-       0.0000   -0.0000    0.0000    0.0000   -0.0000    0.0001   -0.0000   -0.0000   -0.0000    0.0007
    52 C4     3d0       -0.0000   -0.0000   -0.0000    0.0001    0.0000   -0.0003    0.0001   -0.0001   -0.0000   -0.0010
    53 C4     3d1+      -0.0000   -0.0001   -0.0000    0.0000   -0.0000   -0.0001    0.0000   -0.0000   -0.0000   -0.0004
    54 C4     3d2+       0.0000    0.0001   -0.0000    0.0001    0.0001   -0.0004    0.0001   -0.0000    0.0000   -0.0016
    55 C6     1s         0.0000    0.0001    0.0000    0.0003   -0.0001   -0.0003    0.0003    0.9997   -0.0000    0.0007
    56 C6     2s         0.0001    0.0006    0.0002    0.0015   -0.0006   -0.0001    0.0011    0.0000   -0.0004    0.0096
    57 C6     3s         0.0000    0.0004    0.0001    0.0004   -0.0006   -0.0003    0.0008   -0.0016   -0.0003    0.0077
    58 C6     4s         0.0000    0.0001   -0.0000   -0.0001   -0.0002   -0.0002    0.0002    0.0009   -0.0001    0.0028
    59 C6     2px        0.0000   -0.0002    0.0000   -0.0005    0.0003    0.0003   -0.0004   -0.0000    0.0001   -0.0066
    60 C6     3px        0.0000   -0.0002    0.0001    0.0002    0.0003    0.0004   -0.0003    0.0002    0.0001   -0.0061
    61 C6     4px        0.0000    0.0000    0.0000    0.0002    0.0000    0.0001    0.0000   -0.0006    0.0000   -0.0007
    62 C6     2py       -0.0000   -0.0002    0.0002    0.0002    0.0000    0.0003    0.0001    0.0002   -0.0000   -0.0006
    63 C6     3py       -0.0000   -0.0001    0.0002    0.0002    0.0001    0.0004    0.0000   -0.0001    0.0000   -0.0014
    64 C6     4py        0.0000    0.0001    0.0000    0.0000    0.0000    0.0001   -0.0000    0.0000    0.0000   -0.0007
    65 C6     2pz        0.0001    0.0001   -0.0001    0.0002   -0.0001   -0.0002    0.0001    0.0000   -0.0000    0.0012
    66 C6     3pz        0.0001    0.0001   -0.0001   -0.0001   -0.0001   -0.0002    0.0000   -0.0001   -0.0000    0.0010
    67 C6     4pz        0.0000   -0.0000   -0.0000   -0.0001   -0.0000   -0.0000   -0.0000    0.0003    0.0000    0.0003
    68 C6     3d2-       0.0000    0.0000   -0.0000    0.0000    0.0000    0.0001   -0.0000    0.0001    0.0000   -0.0001
    69 C6     3d1-       0.0000    0.0000    0.0000   -0.0000    0.0000   -0.0000    0.0000   -0.0000    0.0000   -0.0001
    70 C6     3d0       -0.0000   -0.0000    0.0000    0.0001   -0.0000   -0.0000    0.0000    0.0000   -0.0000   -0.0000
    71 C6     3d1+       0.0000   -0.0000    0.0000    0.0001    0.0000   -0.0000   -0.0000    0.0001    0.0000   -0.0003
    72 C6     3d2+       0.0000    0.0000   -0.0000   -0.0000   -0.0000    0.0000    0.0000   -0.0001   -0.0000    0.0003
    73 C19    1s         0.0002    0.0000   -0.0000   -0.0000    0.0036   -0.0000    0.0002   -0.0000    1.0000   -0.0145
    74 C19    2s         0.0012    0.0001   -0.0000   -0.0001    0.0005   -0.0003    0.0007   -0.0001    0.0019   -0.0137
    75 C19    3s         0.0007   -0.0000    0.0001   -0.0001    0.0002   -0.0003    0.0002   -0.0001   -0.0004   -0.0400
    76 C19    4s         0.0001   -0.0000    0.0000   -0.0000    0.0001   -0.0001   -0.0001   -0.0001    0.0013   -0.0041
    77 C19    2px        0.0008   -0.0000   -0.0003   -0.0000   -0.0002    0.0000    0.0002    0.0000   -0.0002   -0.0105
    78 C19    3px        0.0005   -0.0000   -0.0002   -0.0000   -0.0003    0.0001    0.0002    0.0000   -0.0001   -0.0080
    79 C19    4px       -0.0002   -0.0000    0.0000    0.0000   -0.0000    0.0000    0.0000    0.0000    0.0002    0.0076
    80 C19    2py       -0.0001   -0.0001    0.0004   -0.0000    0.0005   -0.0001    0.0001   -0.0001   -0.0002    0.0199
    81 C19    3py       -0.0002   -0.0001    0.0003    0.0000   -0.0000   -0.0001   -0.0001   -0.0001    0.0000   -0.0068
    82 C19    4py       -0.0001   -0.0000   -0.0001    0.0000   -0.0001    0.0000   -0.0001   -0.0000    0.0004    0.0056
    83 C19    2pz       -0.0001   -0.0000    0.0001    0.0001    0.0000    0.0000    0.0002   -0.0000   -0.0000   -0.0002
    84 C19    3pz       -0.0001   -0.0000    0.0001    0.0001    0.0000   -0.0000    0.0002   -0.0000   -0.0000    0.0001
    85 C19    4pz       -0.0000    0.0000   -0.0000    0.0000   -0.0000   -0.0000   -0.0000    0.0000    0.0000    0.0000
    86 C19    3d2-       0.0001   -0.0000   -0.0000   -0.0000    0.0000    0.0000    0.0001   -0.0000   -0.0001    0.0005
    87 C19    3d1-      -0.0000    0.0000   -0.0000   -0.0000   -0.0000   -0.0000   -0.0000    0.0000   -0.0000    0.0000
    88 C19    3d0       -0.0001   -0.0000   -0.0001   -0.0000    0.0001    0.0000   -0.0000   -0.0000    0.0001    0.0015
    89 C19    3d1+      -0.0000    0.0000   -0.0000   -0.0000   -0.0000   -0.0000   -0.0000    0.0000    0.0000    0.0001
    90 C19    3d2+       0.0001   -0.0000   -0.0000    0.0000   -0.0001    0.0000   -0.0000   -0.0000    0.0001   -0.0069
    91 N2     1s         0.0000    0.0000    0.9998   -0.0000   -0.0002    0.0000    0.0001    0.0000    0.0001   -0.0184
    92 N2     2s         0.0002    0.0003   -0.0003   -0.0001   -0.0001    0.0002    0.0013    0.0001    0.0007    0.1158
    93 N2     3s         0.0002    0.0003   -0.0016    0.0000   -0.0002    0.0001    0.0007    0.0001    0.0005   -0.0500
    94 N2     4s         0.0000    0.0001    0.0004    0.0000    0.0001    0.0000    0.0002    0.0000    0.0001   -0.0121
    95 N2     2px        0.0001   -0.0005    0.0008    0.0005   -0.0003    0.0003    0.0009   -0.0002   -0.0005   -0.0288
    96 N2     3px        0.0002   -0.0008    0.0011    0.0008   -0.0002    0.0004    0.0010   -0.0003   -0.0006    0.0187
    97 N2     4px        0.0001   -0.0001   -0.0001    0.0001   -0.0003    0.0000    0.0001   -0.0001    0.0001   -0.0052
    98 N2     2py       -0.0014    0.0003   -0.0008    0.0001   -0.0000    0.0002    0.0007    0.0000   -0.0004    0.0383
    99 N2     3py       -0.0017    0.0003   -0.0003    0.0002   -0.0001    0.0002    0.0006    0.0000   -0.0003    0.0155
   100 N2     4py        0.0000   -0.0001    0.0005    0.0000   -0.0000    0.0000    0.0002   -0.0000    0.0001   -0.0051
   101 N2     2pz       -0.0001    0.0002   -0.0003   -0.0001    0.0000   -0.0000   -0.0003    0.0000   -0.0001    0.0001
   102 N2     3pz       -0.0001    0.0003   -0.0001   -0.0002   -0.0001   -0.0001   -0.0004    0.0001   -0.0000    0.0070
   103 N2     4pz       -0.0000    0.0000   -0.0003   -0.0000   -0.0000   -0.0000   -0.0001    0.0000    0.0000   -0.0001
   104 N2     3d2-       0.0001    0.0000   -0.0002    0.0000   -0.0001    0.0000   -0.0000   -0.0000   -0.0000   -0.0029
   105 N2     3d1-       0.0000   -0.0000    0.0001    0.0000   -0.0000   -0.0000    0.0000    0.0000    0.0000   -0.0008
   106 N2     3d0       -0.0000    0.0000   -0.0000   -0.0000    0.0002   -0.0000    0.0001    0.0000   -0.0001   -0.0029
   107 N2     3d1+      -0.0000    0.0000   -0.0000   -0.0000   -0.0000   -0.0000    0.0000    0.0000   -0.0000   -0.0000
   108 N2     3d2+      -0.0000   -0.0000    0.0000   -0.0000    0.0001   -0.0000   -0.0000   -0.0000    0.0000    0.0045
   109 N5     1s         0.0000    0.0001    0.0001    0.9999    0.0000   -0.0003    0.0000    0.0001    0.0000   -0.0019
   110 N5     2s         0.0001    0.0008    0.0004    0.0005    0.0002   -0.0004   -0.0001    0.0018    0.0002    0.0000
   111 N5     3s         0.0001    0.0005    0.0003   -0.0011    0.0001   -0.0004   -0.0000    0.0010    0.0001   -0.0056
   112 N5     4s         0.0000    0.0001    0.0001    0.0006    0.0000   -0.0000   -0.0001    0.0004    0.0000   -0.0010
   113 N5     2px       -0.0000   -0.0011   -0.0004   -0.0006    0.0003    0.0002   -0.0008    0.0009    0.0002   -0.0054
   114 N5     3px       -0.0001   -0.0012   -0.0006   -0.0004    0.0005    0.0000   -0.0010    0.0008    0.0003   -0.0082
   115 N5     4px       -0.0000    0.0001   -0.0000    0.0001    0.0001   -0.0002   -0.0000    0.0002    0.0001   -0.0021
   116 N5     2py        0.0001    0.0011   -0.0001    0.0008    0.0000   -0.0003   -0.0003    0.0000    0.0001   -0.0038
   117 N5     3py        0.0001    0.0012   -0.0001    0.0003    0.0000   -0.0001   -0.0001   -0.0002    0.0000   -0.0012
   118 N5     4py       -0.0000    0.0000    0.0000   -0.0004   -0.0000   -0.0001    0.0001   -0.0002   -0.0000    0.0001
   119 N5     2pz        0.0000    0.0006    0.0001    0.0003   -0.0002    0.0001    0.0003   -0.0004   -0.0001    0.0032
   120 N5     3pz        0.0000    0.0006    0.0002    0.0003   -0.0004   -0.0000    0.0005   -0.0004   -0.0002    0.0055
   121 N5     4pz        0.0000   -0.0000    0.0000   -0.0001   -0.0001    0.0001    0.0001   -0.0001   -0.0000    0.0016
   122 N5     3d2-      -0.0000   -0.0000    0.0000   -0.0001   -0.0000    0.0000    0.0000   -0.0000   -0.0000    0.0004
   123 N5     3d1-       0.0000    0.0000   -0.0000    0.0000    0.0000   -0.0000   -0.0000   -0.0000    0.0000   -0.0002
   124 N5     3d0        0.0000   -0.0000   -0.0000    0.0000   -0.0000    0.0001   -0.0001    0.0001   -0.0000    0.0000
   125 N5     3d1+       0.0000   -0.0001   -0.0000    0.0001    0.0000    0.0001   -0.0000    0.0001   -0.0000    0.0000
   126 N5     3d2+      -0.0000    0.0001   -0.0000   -0.0001   -0.0000   -0.0001    0.0000   -0.0000   -0.0000    0.0002
   127 O7     1s         0.9997    0.0000    0.0000    0.0000   -0.0003    0.0000   -0.0000    0.0000    0.0000   -0.0235
   128 O7     2s        -0.0016    0.0000    0.0001    0.0001    0.0003    0.0001   -0.0001    0.0000    0.0003    0.6919
   129 O7     3s        -0.0014    0.0000    0.0001    0.0001   -0.0001    0.0001    0.0000    0.0000    0.0003   -0.0338
   130 O7     4s        -0.0000    0.0000   -0.0000    0.0000    0.0000    0.0000    0.0000    0.0000    0.0001   -0.0137
   131 O7     2px        0.0001    0.0000   -0.0003   -0.0000    0.0004    0.0001   -0.0000   -0.0000    0.0001    0.0860
   132 O7     3px       -0.0003    0.0000   -0.0004   -0.0000   -0.0000    0.0001    0.0000   -0.0000    0.0001   -0.0258
   133 O7     4px        0.0008    0.0000   -0.0001   -0.0000    0.0001    0.0000    0.0000   -0.0000   -0.0000   -0.0015
   134 O7     2py       -0.0001   -0.0000   -0.0002   -0.0000   -0.0006    0.0000    0.0000    0.0000   -0.0001   -0.1207
   135 O7     3py        0.0006   -0.0000   -0.0002   -0.0000   -0.0003    0.0000   -0.0000   -0.0000   -0.0001    0.0366
   136 O7     4py       -0.0011   -0.0000    0.0001   -0.0000   -0.0003    0.0000   -0.0000   -0.0000    0.0001    0.0001
   137 O7     2pz       -0.0000    0.0000   -0.0001    0.0000    0.0001   -0.0000    0.0000   -0.0000    0.0000    0.0029
   138 O7     3pz       -0.0000    0.0000   -0.0000    0.0000   -0.0000   -0.0001    0.0000   -0.0000    0.0000    0.0007
   139 O7     4pz       -0.0000   -0.0000   -0.0000    0.0000   -0.0000   -0.0000    0.0000   -0.0000    0.0000    0.0004
   140 O7     3d2-       0.0001    0.0000    0.0000   -0.0000   -0.0002   -0.0000    0.0000    0.0000   -0.0000   -0.0181
   141 O7     3d1-       0.0000   -0.0000    0.0000    0.0000   -0.0000    0.0000    0.0000   -0.0000   -0.0000   -0.0004
   142 O7     3d0       -0.0000    0.0000   -0.0001    0.0000   -0.0001    0.0000   -0.0000    0.0000   -0.0000   -0.0105
   143 O7     3d1+      -0.0000   -0.0000    0.0000   -0.0000   -0.0000   -0.0000    0.0000   -0.0000   -0.0000    0.0002
   144 O7     3d2+       0.0000    0.0000   -0.0001   -0.0000   -0.0001    0.0000   -0.0000    0.0000   -0.0000   -0.0067
   145 O8     1s        -0.0000    0.9997   -0.0000    0.0000    0.0000   -0.0002    0.0000   -0.0000    0.0000   -0.0016
   146 O8     2s        -0.0001   -0.0015   -0.0002    0.0002    0.0002    0.0007   -0.0001   -0.0002    0.0000    0.0307
   147 O8     3s        -0.0001   -0.0014   -0.0001    0.0001    0.0002    0.0002   -0.0000   -0.0001    0.0000   -0.0030
   148 O8     4s        -0.0001    0.0000   -0.0000    0.0000    0.0000    0.0001   -0.0000   -0.0000    0.0000   -0.0009
   149 O8     2px        0.0000   -0.0000    0.0000   -0.0003   -0.0001   -0.0000    0.0001   -0.0001   -0.0000   -0.0028
   150 O8     3px        0.0001    0.0002    0.0000   -0.0002   -0.0001   -0.0001    0.0001   -0.0000   -0.0001    0.0006
   151 O8     4px        0.0000   -0.0004   -0.0000    0.0000   -0.0000   -0.0001    0.0000   -0.0000   -0.0000   -0.0002
   152 O8     2py        0.0000    0.0002   -0.0000   -0.0001    0.0000    0.0007   -0.0001   -0.0001   -0.0000    0.0052
   153 O8     3py        0.0001   -0.0005    0.0000   -0.0002    0.0000    0.0002   -0.0000   -0.0000   -0.0000   -0.0033
   154 O8     4py        0.0000    0.0013    0.0000   -0.0001   -0.0000    0.0001   -0.0001    0.0000   -0.0000    0.0000
   155 O8     2pz       -0.0000    0.0000   -0.0000    0.0001    0.0001    0.0003   -0.0001    0.0000    0.0001    0.0020
   156 O8     3pz       -0.0000   -0.0002   -0.0000    0.0000    0.0001    0.0000   -0.0001    0.0000    0.0001   -0.0016
   157 O8     4pz       -0.0000    0.0003   -0.0000   -0.0000    0.0000    0.0000   -0.0000    0.0000    0.0000   -0.0001
   158 O8     3d2-      -0.0000    0.0001    0.0000   -0.0000   -0.0000   -0.0001    0.0000   -0.0000    0.0000   -0.0005
   159 O8     3d1-       0.0000   -0.0000   -0.0000    0.0000    0.0000    0.0001   -0.0000    0.0000    0.0000    0.0004
   160 O8     3d0       -0.0000    0.0000   -0.0000   -0.0000    0.0000   -0.0001   -0.0000    0.0000   -0.0000   -0.0004
   161 O8     3d1+       0.0000   -0.0000    0.0000   -0.0000   -0.0000    0.0000   -0.0000   -0.0000   -0.0000   -0.0001
   162 O8     3d2+      -0.0000    0.0001   -0.0000    0.0000   -0.0000   -0.0002    0.0000    0.0000    0.0000   -0.0005
   163 H9     1s         0.0002   -0.0001    0.0000   -0.0001    0.0000   -0.0002   -0.0005   -0.0000    0.0003    0.0139
   164 H9     2s         0.0001   -0.0000    0.0000   -0.0000    0.0000   -0.0001   -0.0003   -0.0000   -0.0002    0.0033
   165 H9     2px       -0.0000   -0.0000    0.0000   -0.0000    0.0000   -0.0000   -0.0001   -0.0000   -0.0000    0.0009
   166 H9     2py       -0.0001    0.0000   -0.0000    0.0000    0.0001   -0.0000   -0.0000    0.0000    0.0000    0.0012
   167 H9     2pz       -0.0000    0.0000    0.0000    0.0000   -0.0000    0.0000    0.0000    0.0000    0.0001   -0.0006
   168 H10    1s         0.0001   -0.0002    0.0002    0.0000    0.0001   -0.0001   -0.0001   -0.0000    0.0003    0.0128
   169 H10    2s         0.0001   -0.0002    0.0001    0.0000    0.0001   -0.0001   -0.0001   -0.0000   -0.0003    0.0023
   170 H10    2px       -0.0000   -0.0000    0.0001    0.0000    0.0000   -0.0000   -0.0000   -0.0000   -0.0000    0.0008
   171 H10    2py       -0.0001   -0.0000   -0.0000   -0.0000    0.0000   -0.0000   -0.0000   -0.0000    0.0000    0.0011
   172 H10    2pz        0.0000   -0.0000    0.0000    0.0000    0.0000   -0.0000   -0.0000   -0.0000   -0.0001    0.0005
   173 H11    1s        -0.0005   -0.0001    0.0004    0.0000    0.0004   -0.0001   -0.0002   -0.0001    0.0004    0.0200
   174 H11    2s        -0.0003   -0.0001    0.0003    0.0000    0.0002   -0.0001   -0.0001   -0.0001   -0.0002    0.0057
   175 H11    2px       -0.0000    0.0000   -0.0001    0.0000   -0.0000    0.0000    0.0000    0.0000    0.0001   -0.0000
   176 H11    2py       -0.0000   -0.0000    0.0000   -0.0000    0.0001    0.0000   -0.0000   -0.0000   -0.0000    0.0019
   177 H11    2pz       -0.0000    0.0000   -0.0000   -0.0000   -0.0000   -0.0000   -0.0000    0.0000   -0.0000    0.0001
   178 H12    1s        -0.0009    0.0007   -0.0008   -0.0001    0.0001    0.0000   -0.0003    0.0000   -0.0005    0.0350
   179 H12    2s        -0.0005    0.0005   -0.0006   -0.0000   -0.0000    0.0000   -0.0002    0.0000   -0.0003   -0.0036
   180 H12    2px        0.0000    0.0000    0.0002   -0.0000   -0.0001    0.0000    0.0000   -0.0000    0.0001   -0.0046
   181 H12    2py       -0.0000    0.0001   -0.0004    0.0000    0.0000    0.0000    0.0000   -0.0000   -0.0000    0.0039
   182 H12    2pz       -0.0001   -0.0000   -0.0001    0.0000    0.0000   -0.0000   -0.0000    0.0000   -0.0000    0.0011
   183 H13    1s         0.0001    0.0004   -0.0005    0.0001   -0.0005   -0.0002    0.0010   -0.0002    0.0002    0.0125
   184 H13    2s         0.0001    0.0002   -0.0002    0.0001   -0.0003   -0.0002    0.0002   -0.0002    0.0001   -0.0017
   185 H13    2px        0.0000    0.0000    0.0000   -0.0000   -0.0000    0.0001    0.0001   -0.0000   -0.0000   -0.0004
   186 H13    2py        0.0000   -0.0001    0.0000   -0.0000    0.0000    0.0000   -0.0001   -0.0000   -0.0000   -0.0009
   187 H13    2pz       -0.0000   -0.0000    0.0000    0.0000   -0.0000   -0.0000    0.0000   -0.0000   -0.0000    0.0013
   188 H14    1s        -0.0001    0.0004   -0.0004    0.0002   -0.0008   -0.0001    0.0009   -0.0003   -0.0003    0.0185
   189 H14    2s        -0.0000    0.0003   -0.0002    0.0001   -0.0005   -0.0001    0.0001   -0.0002   -0.0002    0.0062
   190 H14    2px        0.0000    0.0000    0.0000   -0.0000    0.0000    0.0001    0.0000   -0.0000   -0.0000   -0.0005
   191 H14    2py       -0.0000   -0.0001    0.0000   -0.0000    0.0000    0.0000   -0.0000    0.0000    0.0000   -0.0007
   192 H14    2pz        0.0000   -0.0000   -0.0000   -0.0000    0.0001   -0.0000    0.0000    0.0000    0.0000   -0.0014
   193 H15    1s        -0.0001   -0.0014   -0.0001   -0.0008   -0.0001    0.0003    0.0001   -0.0002   -0.0001    0.0078
   194 H15    2s        -0.0001   -0.0008   -0.0001   -0.0005   -0.0001    0.0001    0.0001   -0.0000   -0.0001    0.0039
   195 H15    2px       -0.0000   -0.0000    0.0000   -0.0002   -0.0000   -0.0001    0.0000    0.0000   -0.0000    0.0004
   196 H15    2py        0.0000    0.0001    0.0000    0.0004    0.0000   -0.0002   -0.0000    0.0000    0.0000   -0.0011
   197 H15    2pz       -0.0000    0.0000   -0.0000    0.0001    0.0000    0.0000   -0.0000   -0.0000    0.0000   -0.0003
   198 H16    1s         0.0001    0.0003   -0.0001   -0.0005   -0.0002   -0.0004   -0.0001    0.0005   -0.0000    0.0024
   199 H16    2s         0.0001    0.0002   -0.0001   -0.0002   -0.0001   -0.0003   -0.0000   -0.0001   -0.0000    0.0018
   200 H16    2px       -0.0000   -0.0000   -0.0000    0.0000    0.0000    0.0000   -0.0000   -0.0000    0.0000    0.0000
   201 H16    2py       -0.0000   -0.0000    0.0000    0.0000    0.0000    0.0000    0.0000    0.0000    0.0000   -0.0000
   202 H16    2pz        0.0000    0.0000   -0.0000   -0.0000   -0.0000   -0.0001   -0.0000   -0.0000   -0.0000    0.0002
   203 H17    1s        -0.0001    0.0002   -0.0000   -0.0004   -0.0001   -0.0004    0.0001    0.0005   -0.0000    0.0038
   204 H17    2s        -0.0001    0.0002   -0.0000   -0.0002   -0.0001   -0.0003    0.0001   -0.0001   -0.0000    0.0026
   205 H17    2px        0.0000   -0.0000    0.0000    0.0000    0.0000    0.0000   -0.0000   -0.0000    0.0000   -0.0002
   206 H17    2py        0.0000   -0.0000   -0.0000    0.0000    0.0000    0.0000   -0.0000    0.0000    0.0000   -0.0002
   207 H17    2pz        0.0000   -0.0000    0.0000   -0.0000    0.0000    0.0000   -0.0000    0.0000    0.0000   -0.0003
   208 H18    1s        -0.0000   -0.0001   -0.0001   -0.0002   -0.0001   -0.0000    0.0000    0.0010   -0.0000    0.0032
   209 H18    2s        -0.0000    0.0000   -0.0001   -0.0000   -0.0001    0.0000    0.0000    0.0001   -0.0000    0.0018
   210 H18    2px       -0.0000    0.0000    0.0000    0.0000    0.0000   -0.0000   -0.0000   -0.0001   -0.0000   -0.0001
   211 H18    2py        0.0000   -0.0000   -0.0000    0.0000   -0.0000   -0.0000    0.0000    0.0001   -0.0000    0.0004
   212 H18    2pz       -0.0000   -0.0000   -0.0000    0.0000   -0.0000    0.0000    0.0000    0.0000   -0.0000    0.0002
 
 
      Orbital                11        12        13        14        15        16        17        18        19        20
      Energy            -1.3700   -1.2532   -1.2174   -1.0280   -0.9729   -0.9145   -0.8166   -0.7797   -0.7197   -0.6932
      Occ. No.           2.0000    2.0000    2.0000    2.0000    2.0000    2.0000    2.0000    2.0000    2.0000    2.0000
 
     1 C1     1s         0.0050   -0.0091    0.0020   -0.0158    0.0003    0.0065   -0.0138    0.0020    0.0069   -0.0030
     2 C1     2s         0.0091    0.1271    0.0106    0.2814   -0.0453   -0.0951    0.3713   -0.0208   -0.2658    0.0651
     3 C1     3s         0.0194   -0.0022    0.0127   -0.0157   -0.0012    0.0078   -0.0046    0.0059    0.0063   -0.0174
     4 C1     4s         0.0053    0.0002    0.0040   -0.0048   -0.0010    0.0036   -0.0025    0.0020    0.0036   -0.0030
     5 C1     2px        0.0307    0.1527    0.0157   -0.0109    0.1010   -0.0989    0.1346   -0.0020    0.1454   -0.2573
     6 C1     3px        0.0151   -0.0390    0.0251   -0.0557   -0.0279    0.0433   -0.0203   -0.0014   -0.0669    0.0518
     7 C1     4px        0.0083    0.0277    0.0050   -0.0106    0.0109   -0.0062    0.0107   -0.0008    0.0049   -0.0178
     8 C1     2py        0.0012   -0.0399    0.0167   -0.1610    0.0654   -0.0022    0.0564    0.0377    0.0525    0.1570
     9 C1     3py        0.0208    0.0411    0.0191    0.0086   -0.0468    0.0400   -0.0054    0.0002   -0.0012   -0.0668
    10 C1     4py       -0.0002   -0.0063    0.0032   -0.0255    0.0074    0.0042    0.0085    0.0021   -0.0015    0.0087
    11 C1     2pz       -0.0005   -0.0086   -0.0031    0.0078    0.0048   -0.0078    0.0138    0.0014    0.0050   -0.0022
    12 C1     3pz       -0.0007   -0.0105   -0.0046    0.0061    0.0066   -0.0083    0.0031    0.0011    0.0021    0.0022
    13 C1     4pz       -0.0003   -0.0011   -0.0009    0.0022    0.0012   -0.0025    0.0008    0.0002    0.0014    0.0005
    14 C1     3d2-       0.0038    0.0148    0.0001    0.0083   -0.0088    0.0070    0.0125    0.0070    0.0170   -0.0058
    15 C1     3d1-       0.0001   -0.0000    0.0000   -0.0000    0.0002    0.0000    0.0004    0.0001   -0.0000    0.0003
    16 C1     3d0        0.0012   -0.0066   -0.0001   -0.0115    0.0001    0.0053   -0.0131    0.0005    0.0064   -0.0024
    17 C1     3d1+      -0.0001   -0.0006    0.0000    0.0008    0.0009   -0.0009    0.0027    0.0004    0.0020   -0.0010
    18 C1     3d2+       0.0030    0.0278   -0.0006    0.0030    0.0147   -0.0140    0.0096   -0.0008    0.0145   -0.0169
    19 C3     1s        -0.0158   -0.0303   -0.0073    0.0346    0.0250   -0.0246   -0.0105   -0.0071   -0.0007    0.0002
    20 C3     2s         0.0249    0.1773    0.0174   -0.2876   -0.2270    0.3068    0.1005    0.0785   -0.0267   -0.0458
    21 C3     3s        -0.0380   -0.0473   -0.0191    0.0594    0.0431   -0.0261   -0.0240   -0.0155    0.0003    0.0002
    22 C3     4s        -0.0047   -0.0093   -0.0021    0.0157    0.0104   -0.0065   -0.0059   -0.0052    0.0016    0.0021
    23 C3     2px        0.0117   -0.0490    0.0303   -0.0473   -0.0786   -0.0049   -0.0441   -0.1319   -0.2488   -0.1038
    24 C3     3px       -0.0022    0.0080    0.0158   -0.0421    0.0205    0.0048    0.0168    0.0293    0.0403    0.0109
    25 C3     4px        0.0109   -0.0090    0.0067   -0.0082    0.0013   -0.0054   -0.0024   -0.0054   -0.0017   -0.0030
    26 C3     2py       -0.0375   -0.1023    0.0040    0.0023   -0.0367   -0.0345    0.1493    0.0251   -0.0291   -0.2350
    27 C3     3py       -0.0015    0.0077   -0.0068   -0.0437    0.0079   -0.0301   -0.0104    0.0135    0.0079    0.0333
    28 C3     4py        0.0058   -0.0022    0.0032   -0.0152   -0.0085    0.0046    0.0081    0.0101   -0.0031   -0.0102
    29 C3     2pz       -0.0086    0.0031   -0.0106    0.0052    0.0188    0.0118    0.0017    0.0548    0.0778    0.0518
    30 C3     3pz        0.0033   -0.0019   -0.0040   -0.0063   -0.0158    0.0049    0.0000   -0.0069   -0.0085   -0.0083
    31 C3     4pz       -0.0034    0.0048   -0.0014   -0.0026   -0.0029    0.0064    0.0002    0.0038   -0.0008    0.0000
    32 C3     3d2-      -0.0028    0.0190    0.0043   -0.0024    0.0078   -0.0021   -0.0019    0.0070    0.0211    0.0189
    33 C3     3d1-       0.0021   -0.0028   -0.0024    0.0006   -0.0021    0.0007   -0.0008   -0.0025   -0.0093   -0.0042
    34 C3     3d0       -0.0019   -0.0127   -0.0003    0.0063   -0.0006   -0.0025    0.0078   -0.0003   -0.0033   -0.0122
    35 C3     3d1+      -0.0018   -0.0042   -0.0019    0.0050    0.0066   -0.0006    0.0046    0.0076    0.0097   -0.0028
    36 C3     3d2+      -0.0006   -0.0086    0.0039   -0.0005   -0.0104   -0.0038    0.0155   -0.0098   -0.0098   -0.0167
    37 C4     1s        -0.0400    0.0066   -0.0066    0.0082    0.0155    0.0076   -0.0044    0.0159    0.0035    0.0022
    38 C4     2s         0.3545    0.0036    0.1285   -0.1173   -0.2271   -0.0406    0.0274   -0.4003   -0.0842   -0.0204
    39 C4     3s        -0.0079    0.0153    0.0078    0.0114    0.0141    0.0199   -0.0127    0.0080    0.0051    0.0048
    40 C4     4s         0.0022    0.0048    0.0028    0.0037    0.0044    0.0062   -0.0028    0.0046    0.0038    0.0025
    41 C4     2px        0.0505   -0.0494    0.0760    0.0726    0.0998   -0.0608    0.0242   -0.0742    0.1819    0.0656
    42 C4     3px       -0.0131   -0.0050    0.0382   -0.0186    0.0524    0.0934   -0.0011    0.0044   -0.0831   -0.0357
    43 C4     4px        0.0126   -0.0129    0.0199    0.0082    0.0202    0.0029    0.0042   -0.0074    0.0035   -0.0006
    44 C4     2py       -0.0831    0.0059    0.1565   -0.0353   -0.0766   -0.0705    0.0206   -0.0866    0.0256   -0.0420
    45 C4     3py        0.0593   -0.0351   -0.0488    0.0183    0.0400    0.0237    0.0179    0.0236   -0.0138    0.0107
    46 C4     4py       -0.0237   -0.0032    0.0295   -0.0027   -0.0080   -0.0059    0.0106   -0.0018    0.0022   -0.0030
    47 C4     2pz       -0.0285    0.0199   -0.0141   -0.0356   -0.0564    0.0136   -0.0137    0.0102   -0.0853   -0.0315
    48 C4     3pz        0.0095   -0.0058   -0.0264    0.0149   -0.0118   -0.0442   -0.0033    0.0003    0.0355    0.0190
    49 C4     4pz       -0.0089    0.0047   -0.0055   -0.0045   -0.0088   -0.0032   -0.0027    0.0023   -0.0021    0.0007
    50 C4     3d2-      -0.0123    0.0027    0.0264    0.0012   -0.0033   -0.0151   -0.0068   -0.0136    0.0129    0.0116
    51 C4     3d1-       0.0145   -0.0028   -0.0105   -0.0007   -0.0010    0.0036    0.0031    0.0040   -0.0059   -0.0056
    52 C4     3d0       -0.0234    0.0034   -0.0058    0.0032    0.0085    0.0061   -0.0017    0.0100   -0.0012    0.0006
    53 C4     3d1+      -0.0090   -0.0012   -0.0030    0.0071    0.0077   -0.0053   -0.0009    0.0115    0.0034   -0.0007
    54 C4     3d2+      -0.0289    0.0090    0.0049   -0.0070    0.0000    0.0147    0.0002   -0.0082    0.0010    0.0040
    55 C6     1s        -0.0092    0.0043   -0.0347   -0.0116   -0.0381   -0.0425   -0.0062    0.0068    0.0062    0.0056
    56 C6     2s         0.0237    0.0032    0.1545    0.1071    0.2562    0.3626    0.0246   -0.1168   -0.0541   -0.0397
    57 C6     3s        -0.0140    0.0183   -0.0606   -0.0097   -0.0737   -0.0701   -0.0200    0.0094    0.0161    0.0160
    58 C6     4s        -0.0003    0.0056   -0.0098   -0.0008   -0.0163   -0.0140   -0.0051    0.0028    0.0043    0.0042
    59 C6     2px       -0.0219   -0.0015   -0.0965   -0.0256   -0.0117    0.0379    0.0303   -0.0780   -0.1027   -0.1194
    60 C6     3px        0.0023   -0.0108    0.0187    0.0017    0.0227    0.0051    0.0027    0.0070    0.0168    0.0192
    61 C6     4px       -0.0035   -0.0011   -0.0008    0.0045    0.0135    0.0183    0.0031   -0.0083   -0.0054   -0.0055
    62 C6     2py       -0.0058    0.0004    0.0042   -0.0010    0.0112    0.0110   -0.0180    0.1246   -0.0967   -0.0390
    63 C6     3py       -0.0015   -0.0009    0.0010   -0.0016    0.0093    0.0106    0.0023   -0.0032    0.0071    0.0026
    64 C6     4py       -0.0003   -0.0001    0.0023    0.0004    0.0020   -0.0002   -0.0030    0.0072   -0.0054   -0.0021
    65 C6     2pz        0.0089    0.0026    0.0451    0.0088    0.0061   -0.0110   -0.0149    0.0489    0.0321    0.0484
    66 C6     3pz       -0.0004    0.0068   -0.0059   -0.0034   -0.0101    0.0029    0.0007   -0.0036   -0.0065   -0.0091
    67 C6     4pz        0.0017    0.0008    0.0008   -0.0018   -0.0059   -0.0079   -0.0015    0.0045    0.0015    0.0021
    68 C6     3d2-       0.0001    0.0001   -0.0030   -0.0009   -0.0019   -0.0008    0.0022   -0.0126    0.0041    0.0002
    69 C6     3d1-      -0.0000   -0.0000    0.0012    0.0005    0.0013    0.0009   -0.0009    0.0048   -0.0009    0.0004
    70 C6     3d0       -0.0015    0.0005   -0.0055   -0.0020   -0.0027   -0.0000    0.0004    0.0013   -0.0076   -0.0059
    71 C6     3d1+      -0.0034    0.0009   -0.0152   -0.0037   -0.0046    0.0017    0.0023   -0.0065   -0.0102   -0.0108
    72 C6     3d2+       0.0033   -0.0006    0.0174    0.0031    0.0034   -0.0032   -0.0031    0.0107    0.0068    0.0098
    73 C19    1s         0.0008   -0.0098    0.0010   -0.0558    0.0433   -0.0223    0.0134   -0.0037   -0.0091   -0.0022
    74 C19    2s         0.0039    0.0006    0.0057    0.2939   -0.2747    0.1666   -0.0713    0.0360    0.1007    0.0009
    75 C19    3s         0.0065   -0.0270    0.0081   -0.1121    0.0816   -0.0371    0.0370   -0.0071   -0.0164   -0.0123
    76 C19    4s         0.0027   -0.0031    0.0032   -0.0243    0.0184   -0.0080    0.0102   -0.0020   -0.0051   -0.0035
    77 C19    2px        0.0029    0.0239   -0.0019    0.0544   -0.0012   -0.0278    0.0439   -0.0245   -0.0579   -0.1350
    78 C19    3px       -0.0002   -0.0018   -0.0023    0.0046    0.0054   -0.0027   -0.0032    0.0035    0.0132    0.0119
    79 C19    4px       -0.0013    0.0000   -0.0006   -0.0072    0.0123   -0.0092    0.0011   -0.0032   -0.0063   -0.0031
    80 C19    2py        0.0029    0.0085    0.0065    0.0436   -0.0135   -0.0147    0.0626   -0.0311   -0.2050    0.0477
    81 C19    3py        0.0054   -0.0018    0.0073   -0.0333    0.0181   -0.0015   -0.0093    0.0010    0.0209   -0.0122
    82 C19    4py        0.0005    0.0014    0.0003   -0.0126    0.0138   -0.0095    0.0131   -0.0014   -0.0089    0.0014
    83 C19    2pz        0.0010   -0.0036   -0.0003   -0.0007    0.0008   -0.0008    0.0035   -0.0006    0.0040   -0.0011
    84 C19    3pz        0.0011   -0.0030   -0.0001   -0.0014   -0.0003    0.0003    0.0006   -0.0015   -0.0009   -0.0004
    85 C19    4pz        0.0001    0.0003    0.0002   -0.0003   -0.0008    0.0007   -0.0001   -0.0001    0.0001   -0.0002
    86 C19    3d2-       0.0003    0.0058   -0.0000    0.0109   -0.0025   -0.0028    0.0070   -0.0026   -0.0140   -0.0000
    87 C19    3d1-      -0.0000    0.0002    0.0001   -0.0000   -0.0001    0.0000    0.0002    0.0000    0.0003   -0.0002
    88 C19    3d0       -0.0002   -0.0009    0.0000   -0.0087    0.0041    0.0005   -0.0033    0.0023    0.0083    0.0086
    89 C19    3d1+      -0.0000    0.0003    0.0002   -0.0003   -0.0002    0.0003   -0.0003    0.0001   -0.0003    0.0006
    90 C19    3d2+       0.0007    0.0024   -0.0001   -0.0070    0.0051   -0.0010   -0.0030    0.0017    0.0139   -0.0043
    91 N2     1s        -0.0068   -0.0412   -0.0003   -0.0040   -0.0037    0.0007    0.0031    0.0000    0.0016    0.0009
    92 N2     2s         0.0550    0.5834   -0.0161   -0.0090    0.2057   -0.1331   -0.1617   -0.0202    0.1216    0.0536
    93 N2     3s        -0.0172   -0.0794   -0.0044   -0.0094    0.0060   -0.0081    0.0038    0.0012    0.0085    0.0022
    94 N2     4s        -0.0044   -0.0257   -0.0007   -0.0008   -0.0008   -0.0008    0.0022    0.0006   -0.0006   -0.0001
    95 N2     2px        0.0214   -0.0380    0.0020   -0.1419   -0.0305    0.1282   -0.3660   -0.0072   -0.0833    0.2707
    96 N2     3px        0.0127   -0.0200    0.0058    0.0333    0.0482   -0.0559    0.1068   -0.0052   -0.0074   -0.0598
    97 N2     4px        0.0058    0.0005    0.0020   -0.0061    0.0066   -0.0032   -0.0007   -0.0015   -0.0022   -0.0060
    98 N2     2py       -0.0039    0.0018    0.0017   -0.1190   -0.0397    0.1144    0.2211    0.1468    0.2455    0.2219
    99 N2     3py       -0.0103   -0.0412   -0.0059    0.0385    0.0402   -0.0518   -0.0238   -0.0376   -0.0527   -0.0317
   100 N2     4py        0.0011   -0.0106    0.0002   -0.0008    0.0044   -0.0042    0.0076   -0.0027   -0.0020   -0.0049
   101 N2     2pz       -0.0064   -0.0105    0.0037    0.0084   -0.0072   -0.0002    0.0312    0.0110    0.0328   -0.0013
   102 N2     3pz       -0.0007    0.0220    0.0024   -0.0025   -0.0074    0.0058   -0.0180   -0.0031   -0.0061    0.0009
   103 N2     4pz       -0.0011    0.0005    0.0001   -0.0004   -0.0009    0.0012   -0.0004    0.0000   -0.0006   -0.0004
   104 N2     3d2-       0.0007    0.0068    0.0003   -0.0022   -0.0077    0.0090    0.0056    0.0041    0.0065    0.0043
   105 N2     3d1-       0.0001   -0.0001   -0.0002    0.0023    0.0019   -0.0025   -0.0048   -0.0019   -0.0037   -0.0029
   106 N2     3d0       -0.0019   -0.0164    0.0007    0.0010   -0.0041    0.0013   -0.0009   -0.0006   -0.0026    0.0002
   107 N2     3d1+      -0.0007   -0.0010    0.0006    0.0015   -0.0004   -0.0013    0.0056    0.0008    0.0024   -0.0028
   108 N2     3d2+       0.0008    0.0053    0.0005    0.0103    0.0052   -0.0121    0.0182   -0.0045   -0.0046   -0.0146
   109 N5     1s        -0.0194    0.0021   -0.0425   -0.0019    0.0007    0.0030    0.0024   -0.0033    0.0033    0.0015
   110 N5     2s         0.1251   -0.0371    0.5776    0.0421   -0.0208   -0.2216   -0.0579    0.1657    0.1057    0.0951
   111 N5     3s        -0.0490    0.0046   -0.0796   -0.0033   -0.0065   -0.0134    0.0015    0.0000    0.0153    0.0088
   112 N5     4s        -0.0115    0.0023   -0.0264   -0.0014   -0.0028   -0.0014    0.0002   -0.0021    0.0017    0.0007
   113 N5     2px        0.0106   -0.0138   -0.0148    0.0478    0.1603    0.1487    0.0015    0.0717    0.0605    0.1063
   114 N5     3px        0.0211   -0.0161   -0.0183   -0.0349   -0.0512   -0.0780    0.0170   -0.0105   -0.0095   -0.0232
   115 N5     4px       -0.0076   -0.0031   -0.0037   -0.0006    0.0022   -0.0034    0.0041   -0.0020    0.0011   -0.0018
   116 N5     2py       -0.0415    0.0087   -0.0129    0.0153    0.0536    0.0288   -0.0752    0.3918   -0.2217   -0.0845
   117 N5     3py        0.0091   -0.0030    0.0284    0.0055    0.0071    0.0046    0.0060   -0.1022    0.0361    0.0165
   118 N5     4py       -0.0012   -0.0016    0.0107    0.0045    0.0037   -0.0004   -0.0007    0.0075   -0.0024   -0.0022
   119 N5     2pz       -0.0053    0.0076    0.0044   -0.0191   -0.0680   -0.0616   -0.0050    0.0104   -0.0572   -0.0603
   120 N5     3pz       -0.0073    0.0072    0.0120    0.0204    0.0225    0.0336   -0.0044   -0.0063    0.0090    0.0113
   121 N5     4pz        0.0029    0.0012    0.0026    0.0024   -0.0006    0.0013   -0.0014    0.0020   -0.0006    0.0005
   122 N5     3d2-       0.0038   -0.0009    0.0088   -0.0021   -0.0071   -0.0054    0.0035   -0.0186    0.0051   -0.0000
   123 N5     3d1-      -0.0006   -0.0002   -0.0010    0.0012    0.0025    0.0001   -0.0014    0.0080   -0.0012    0.0000
   124 N5     3d0       -0.0029    0.0014   -0.0123   -0.0006    0.0011    0.0047   -0.0001    0.0005   -0.0014   -0.0001
   125 N5     3d1+      -0.0002    0.0003   -0.0118   -0.0013   -0.0033   -0.0030    0.0005   -0.0022   -0.0001   -0.0014
   126 N5     3d2+      -0.0040    0.0017    0.0031    0.0008    0.0055    0.0115    0.0003   -0.0008   -0.0005    0.0020
   127 O7     1s         0.0015    0.0028   -0.0005   -0.0042    0.0023    0.0007   -0.0132   -0.0010    0.0145   -0.0216
   128 O7     2s        -0.0757   -0.3043   -0.0006   -0.2081    0.0603    0.0322   -0.3416   -0.0267    0.2455   -0.3516
   129 O7     3s         0.0002   -0.0079   -0.0016   -0.0195    0.0101    0.0010   -0.0419   -0.0035    0.0401   -0.0609
   130 O7     4s         0.0006    0.0001   -0.0004   -0.0033    0.0025   -0.0006   -0.0083   -0.0008    0.0079   -0.0129
   131 O7     2px       -0.0083   -0.0015   -0.0021    0.0002    0.0280   -0.0340    0.1692    0.0168   -0.1051    0.2275
   132 O7     3px       -0.0012   -0.0011   -0.0025   -0.0053    0.0054    0.0014   -0.0228   -0.0029    0.0101   -0.0188
   133 O7     4px       -0.0003   -0.0003   -0.0003   -0.0001    0.0006    0.0006   -0.0022   -0.0000    0.0009   -0.0008
   134 O7     2py        0.0122    0.0397   -0.0005   -0.0318    0.0254    0.0014   -0.1546   -0.0046    0.2727   -0.4096
   135 O7     3py       -0.0034   -0.0014   -0.0008    0.0143    0.0004   -0.0052    0.0232   -0.0018   -0.0323    0.0442
   136 O7     4py       -0.0007   -0.0018   -0.0002   -0.0002    0.0012    0.0002    0.0025   -0.0004   -0.0037    0.0067
   137 O7     2pz        0.0002    0.0009    0.0010    0.0016   -0.0013    0.0004    0.0041   -0.0006   -0.0076    0.0069
   138 O7     3pz        0.0010    0.0033    0.0022   -0.0012   -0.0013    0.0019   -0.0019   -0.0007   -0.0005   -0.0005
   139 O7     4pz        0.0004    0.0010    0.0008   -0.0003   -0.0003    0.0005   -0.0006   -0.0003   -0.0000   -0.0001
   140 O7     3d2-       0.0016    0.0036    0.0001    0.0007   -0.0022    0.0026   -0.0117   -0.0006    0.0100   -0.0180
   141 O7     3d1-       0.0001    0.0001   -0.0000   -0.0001    0.0001    0.0000   -0.0004   -0.0000    0.0002   -0.0003
   142 O7     3d0        0.0011    0.0043   -0.0002    0.0015    0.0000   -0.0002   -0.0049   -0.0006    0.0065   -0.0120
   143 O7     3d1+       0.0000    0.0000    0.0001    0.0001    0.0000   -0.0001    0.0002   -0.0001   -0.0002    0.0003
   144 O7     3d2+       0.0008    0.0051   -0.0001   -0.0023    0.0045   -0.0030    0.0010    0.0007    0.0111   -0.0122
   145 O8     1s        -0.0234    0.0023    0.0032    0.0014    0.0034   -0.0005   -0.0007    0.0129    0.0020   -0.0027
   146 O8     2s         0.6702   -0.1434   -0.3279    0.1133    0.1506   -0.0025    0.0140    0.3543    0.0363   -0.0717
   147 O8     3s        -0.0296   -0.0040   -0.0123    0.0083    0.0147   -0.0030    0.0009    0.0474    0.0060   -0.0092
   148 O8     4s        -0.0129   -0.0006   -0.0008    0.0009    0.0018   -0.0011    0.0011    0.0100    0.0012   -0.0020
   149 O8     2px       -0.0310   -0.0083    0.0301    0.0204    0.0078   -0.0356    0.0345    0.0138    0.1075    0.0048
   150 O8     3px        0.0106   -0.0034   -0.0047    0.0011   -0.0098   -0.0074   -0.0019   -0.0062   -0.0054    0.0037
   151 O8     4px       -0.0001   -0.0013   -0.0028    0.0011   -0.0001   -0.0003   -0.0003   -0.0002   -0.0021    0.0003
   152 O8     2py        0.1339   -0.0280   -0.0301    0.0022   -0.0196   -0.0185    0.0311   -0.1953    0.0356    0.0717
   153 O8     3py       -0.0395    0.0018    0.0016    0.0052    0.0064    0.0025   -0.0012    0.0290    0.0008   -0.0059
   154 O8     4py       -0.0007   -0.0008    0.0016   -0.0003   -0.0016    0.0018    0.0020    0.0039   -0.0004   -0.0013
   155 O8     2pz        0.0368    0.0003   -0.0153   -0.0121   -0.0116    0.0128   -0.0092   -0.0377   -0.0476    0.0030
   156 O8     3pz       -0.0092    0.0024    0.0025   -0.0013    0.0048    0.0043    0.0016    0.0070    0.0027   -0.0024
   157 O8     4pz       -0.0003    0.0007    0.0015   -0.0009   -0.0000    0.0005    0.0005    0.0007    0.0010   -0.0000
   158 O8     3d2-      -0.0081    0.0003    0.0050    0.0014    0.0009   -0.0033    0.0009    0.0023    0.0066    0.0000
   159 O8     3d1-       0.0079   -0.0009   -0.0033   -0.0004   -0.0004    0.0011   -0.0001   -0.0035   -0.0025    0.0008
   160 O8     3d0       -0.0088    0.0016    0.0035   -0.0012   -0.0012    0.0005   -0.0005    0.0036   -0.0015   -0.0019
[...]
AIVX     1  Mu1.0001  In1.027 Se1.045               0.21996787      0.00142375     -0.00270808     -0.00000386
AIVX     1  Mu1.0001  In1.028 Se1.045               0.05548417      0.00003808     -0.00007370     -0.00000000
AIVX     1  Mu1.0001  In1.029 Se1.045               0.08181321     -0.00047740      0.00125275     -0.00000060
AIVX     1  Mu1.0001  In1.021 Se1.046               0.23490747     -0.00031131      0.00059523     -0.00000019
AIVX     1  Mu1.0001  In1.022 Se1.046               0.14394506      0.00015424     -0.00058619     -0.00000009
AIVX     1  Mu1.0001  In1.023 Se1.046               0.22145064      0.00098234     -0.00186777     -0.00000183
AIVX     1  Mu1.0001  In1.024 Se1.046               0.28466043      0.00115149     -0.00157865     -0.00000182
AIVX     1  Mu1.0001  In1.025 Se1.046               0.15097187     -0.00009143      0.00002906     -0.00000000
AIVX     1  Mu1.0001  In1.026 Se1.046               0.25340161      0.00107377     -0.00223693     -0.00000240
AIVX     1  Mu1.0001  In1.027 Se1.046               0.23937424      0.00007250     -0.00004488     -0.00000000
AIVX     1  Mu1.0001  In1.028 Se1.046               0.07489054     -0.00032228      0.00069400     -0.00000022
AIVX     1  Mu1.0001  In1.029 Se1.046               0.10121958     -0.00006772      0.00018646     -0.00000001
AIVX     1  Mu1.0001  In1.021 Se1.047               0.23870149      0.00101632     -0.00191237     -0.00000194
AIVX     1  Mu1.0001  In1.022 Se1.047               0.14773908      0.00039879     -0.00037342     -0.00000015
AIVX     1  Mu1.0001  In1.023 Se1.047               0.22524466     -0.00061887      0.00137884     -0.00000085
AIVX     1  Mu1.0001  In1.024 Se1.047               0.28845445      0.00020675     -0.00110856     -0.00000023
AIVX     1  Mu1.0001  In1.025 Se1.047               0.15476589     -0.00001669     -0.00002353      0.00000000
AIVX     1  Mu1.0001  In1.026 Se1.047               0.25719563     -0.00047770      0.00106846     -0.00000051
AIVX     1  Mu1.0001  In1.027 Se1.047               0.24316826     -0.00195957      0.00327473     -0.00000642
AIVX     1  Mu1.0001  In1.028 Se1.047               0.07868455     -0.00014737      0.00036203     -0.00000005
AIVX     1  Mu1.0001  In1.029 Se1.047               0.10501360      0.00017572      0.00011192      0.00000002
AIVX     1  Mu1.0001  In1.021 Se1.048               0.25067565     -0.00168703      0.00276324     -0.00000466
AIVX     1  Mu1.0001  In1.022 Se1.048               0.15971324      0.00050352     -0.00072193     -0.00000036
AIVX     1  Mu1.0001  In1.023 Se1.048               0.23721882     -0.00028226      0.00021676     -0.00000006
AIVX     1  Mu1.0001  In1.025 Se1.048               0.16674005     -0.00004597      0.00000822     -0.00000000
AIVX     1  Mu1.0001  In1.026 Se1.048               0.26916979      0.00099593     -0.00183651     -0.00000183
AIVX     1  Mu1.0001  In1.027 Se1.048               0.25514242     -0.00169359      0.00265315     -0.00000449
AIVX     1  Mu1.0001  In1.028 Se1.048               0.09065871      0.00080764     -0.00182823     -0.00000148
AIVX     1  Mu1.0001  In1.029 Se1.048               0.11698776      0.00062562     -0.00161804     -0.00000101
AIVX     1  Mu1.0001  In1.021 Se1.049               0.27152491      0.00320625     -0.00529698     -0.00001698
AIVX     1  Mu1.0001  In1.022 Se1.049               0.18056250     -0.00115378      0.00184835     -0.00000213
AIVX     1  Mu1.0001  In1.023 Se1.049               0.25806809      0.00028587     -0.00010244     -0.00000003
AIVX     1  Mu1.0001  In1.025 Se1.049               0.18758932      0.00015844     -0.00024511     -0.00000004
AIVX     1  Mu1.0001  In1.026 Se1.049               0.29001905      0.00056375     -0.00069784     -0.00000039
AIVX     1  Mu1.0001  In1.027 Se1.049               0.27599168      0.00055541     -0.00064710     -0.00000036
AIVX     1  Mu1.0001  In1.028 Se1.049               0.11150798      0.00077177     -0.00197884     -0.00000153
AIVX     1  Mu1.0001  In1.029 Se1.049               0.13783702      0.00026062     -0.00065111     -0.00000017
AIVX     1  Mu1.0001  In1.021 Se1.050               0.27571257      0.00234105     -0.00363540     -0.00000851
AIVX     1  Mu1.0001  In1.022 Se1.050               0.18475016      0.00017623     -0.00048570     -0.00000009
AIVX     1  Mu1.0001  In1.023 Se1.050               0.26225574     -0.00060485      0.00099851     -0.00000060
AIVX     1  Mu1.0001  In1.025 Se1.050               0.19177697      0.00005640     -0.00019037     -0.00000001
AIVX     1  Mu1.0001  In1.026 Se1.050               0.29420671      0.00130968     -0.00208401     -0.00000273
AIVX     1  Mu1.0001  In1.027 Se1.050               0.28017934     -0.00010956      0.00022092     -0.00000002
AIVX     1  Mu1.0001  In1.028 Se1.050               0.11569563      0.00022368     -0.00026381     -0.00000006
AIVX     1  Mu1.0001  In1.029 Se1.050               0.14202468      0.00043490     -0.00078900     -0.00000034
AIVX     1  Mu1.0001  In1.022 Se1.051               0.23292355      0.00069644     -0.00109104     -0.00000076
AIVX     1  Mu1.0001  In1.025 Se1.051               0.23995036      0.00000953      0.00004151      0.00000000
AIVX     1  Mu1.0001  In1.028 Se1.051               0.16386903      0.00017573     -0.00014305     -0.00000003
AIVX     1  Mu1.0001  In1.029 Se1.051               0.19019807      0.00087630     -0.00161382     -0.00000141
AIVX     1  Mu1.0001  In1.022 Se1.052               0.21385242      0.00021168     -0.00033231     -0.00000007
AIVX     1  Mu1.0001  In1.023 Se1.052               0.29135800      0.00117380     -0.00192508     -0.00000226
AIVX     1  Mu1.0001  In1.025 Se1.052               0.22087923     -0.00002999      0.00014743     -0.00000000
AIVX     1  Mu1.0001  In1.028 Se1.052               0.14479789      0.00022651     -0.00023326     -0.00000005
AIVX     1  Mu1.0001  In1.029 Se1.052               0.17112693      0.00043460     -0.00031312     -0.00000014
AIVX     1  Mu1.0001  In1.022 Se1.053               0.25377637     -0.00080484      0.00118069     -0.00000095
AIVX     1  Mu1.0001  In1.025 Se1.053               0.26080319      0.00013171     -0.00009167     -0.00000001
AIVX     1  Mu1.0001  In1.028 Se1.053               0.18472185      0.00075541     -0.00110450     -0.00000083
AIVX     1  Mu1.0001  In1.029 Se1.053               0.21105089      0.00001947     -0.00009865     -0.00000000
AIVX     1  Mu1.0001  In1.022 Se1.054               0.26510725     -0.00050257      0.00052212     -0.00000026
AIVX     1  Mu1.0001  In1.025 Se1.054               0.27213406      0.00027915     -0.00030044     -0.00000008
AIVX     1  Mu1.0001  In1.028 Se1.054               0.19605272     -0.00007000      0.00020327     -0.00000001
AIVX     1  Mu1.0001  In1.029 Se1.054               0.22238177     -0.00042339      0.00119620     -0.00000051
AIVX     1  Mu1.0001  In1.022 Se1.055               0.29934533     -0.00136635      0.00216575     -0.00000296
AIVX     1  Mu1.0001  In1.028 Se1.055               0.23029081     -0.00052790      0.00111204     -0.00000059
AIVX     1  Mu1.0001  In1.029 Se1.055               0.25661985     -0.00164843      0.00301458     -0.00000497
AIVX     1  Mu1.0001  In1.022 Se1.056               0.28831146     -0.00092924      0.00122151     -0.00000114
AIVX     1  Mu1.0001  In1.025 Se1.056               0.29533827      0.00026268     -0.00033258     -0.00000009
AIVX     1  Mu1.0001  In1.028 Se1.056               0.21925693     -0.00130228      0.00268173     -0.00000349
AIVX     1  Mu1.0001  In1.029 Se1.056               0.24558598     -0.00161751      0.00277774     -0.00000449
AIVX     1  Mu1.0001  In1.028 Se1.057               0.24756448     -0.00006527     -0.00012490      0.00000001
AIVX     1  Mu1.0001  In1.029 Se1.057               0.27389352     -0.00061844      0.00115239     -0.00000071
AIVX     1  Mu1.0001  In1.028 Se1.058               0.25502881     -0.00099737      0.00200134     -0.00000200
AIVX     1  Mu1.0001  In1.029 Se1.058               0.28135786     -0.00222211      0.00344798     -0.00000766
AIVX     1  Mu1.0001  In1.028 Se1.060               0.26335685     -0.00017617      0.00012720     -0.00000002
AIVX     1  Mu1.0001  In1.029 Se1.060               0.28968590     -0.00075522      0.00112063     -0.00000085
AIVX     1  Mu1.0001  In1.028 Se1.061               0.28792488      0.00035451     -0.00044485     -0.00000016
AIVX     1  Mu1.0001  In1.022 Se1.208               0.27688739     -0.00125660      0.00187186     -0.00000235
AIVX     1  Mu1.0001  In1.025 Se1.208               0.28391420      0.00028227     -0.00042672     -0.00000012
AIVX     1  Mu1.0001  In1.028 Se1.208               0.20783286      0.00074007     -0.00187679     -0.00000139
AIVX     1  Mu1.0001  In1.029 Se1.208               0.23416191     -0.00033702      0.00070057     -0.00000024
--
 
   (Skipping property calculation,
    use PROP keyword to activate)
--
 
  Total CASPT2 energies:
::    CASPT2 Root  1     Total energy:   -455.21189298
::    CASPT2 Root  2     Total energy:   -455.01783044
::    CASPT2 Root  3     Total energy:   -454.99481244
::    CASPT2 Root  4     Total energy:   -454.94614096
::    CASPT2 Root  5     Total energy:   -454.93265676
::    CASPT2 Root  6     Total energy:   -454.94284105
::    CASPT2 Root  7     Total energy:   -454.91814957
 
++ Multi-State CASPT2 section:
********************************************************************************
  MULTI-STATE CASPT2 SECTION
--------------------------------------------------------------------------------
 
  Output diagonal energies have been shifted. Add   -455.000000000000     
 
  Effective Hamiltonian matrix (Symmetric):
 
                1               2               3               4               5
   1        -0.21189298
   2         0.00011424     -0.01783044
   3        -0.00056875     -0.00009720      0.00518756
   4         0.00228687     -0.00016113      0.00041530      0.05385904
   5         0.00916316      0.00040992     -0.00024782     -0.00780055      0.06734324
   6        -0.01309521      0.00121200     -0.00037635     -0.00354341      0.00725647
   7        -0.01201307     -0.00042721      0.00164206     -0.00061027      0.00527767
 
                6               7
   6         0.05715895
   7        -0.00980822      0.08185043
 
       Total MS-CASPT2 energies:
::    MS-CASPT2 Root  1     Total energy:   -455.21341644
::    MS-CASPT2 Root  2     Total energy:   -455.01785200
::    MS-CASPT2 Root  3     Total energy:   -454.99485224
::    MS-CASPT2 Root  4     Total energy:   -454.94964469
::    MS-CASPT2 Root  5     Total energy:   -454.94908879
::    MS-CASPT2 Root  6     Total energy:   -454.92535616
::    MS-CASPT2 Root  7     Total energy:   -454.91411389
 
       Eigenvectors:
            0.99714540      0.00124147     -0.00138823      0.01522512     -0.07054922
           -0.00073559      0.99986589     -0.00360133      0.00210323      0.01035959
            0.00233646      0.00372243      0.99971022      0.00523439      0.00785299
           -0.00878524      0.00105843     -0.00784150      0.92287729      0.05869408
           -0.03489899     -0.00374175      0.00488965      0.36714725     -0.40969190
            0.05063996     -0.01510387      0.00163540      0.11502906      0.85167987
            0.04284307      0.00309129     -0.02182917     -0.00225573      0.31337321
 
            0.00477647     -0.02158183
            0.01011030     -0.00638187
           -0.00835090      0.02003398
           -0.37922007     -0.03008075
            0.81759672      0.16623840
            0.43181405     -0.26860963
           -0.03270474      0.94784015
 
--
 
  THE ORIGINAL CI ARRAYS ARE NOW MIXED AS LINEAR
  COMBINATIONS, GIVEN BY THE EIGENVECTORS.
  A NEW JOBIPH FILE NAMED 'JOBMIX' IS PREPARED.
********************************************************************************
 
++ Mixed CI coefficients:
  The CI coefficients for the MIXED state nr.   1
--------------------------------------------------------------------------------
 CI COEFFICIENTS LARGER THAN  0.50D-01
  Occupation of active orbitals, and spin coupling
  of open shells. (u,d: Spin up or down).
  SGUGA info is (Midvert:IsyUp:UpperWalk/LowerWalk)
        Conf  SGUGA info        Occupation    Coefficient         Weight
           1  ( 1:1:   1/   1)   22222200        0.971414       0.943646
           6  ( 1:1:   6/   1)   22220220       -0.078293       0.006130
           7  ( 1:1:   7/   1)   22222u0d       -0.051473       0.002649
          15  ( 1:1:  15/   1)   22222002       -0.093796       0.008798
          64  ( 2:1:   4/   3)   2u22220d       -0.080709       0.006514
          81  ( 2:1:   1/   4)   u22222d0       -0.105543       0.011139
         175  ( 3:1:   5/   8)   20222202       -0.093267       0.008699
         191  ( 3:1:   1/  10)   02222220       -0.079658       0.006345
 
  The CI coefficients for the MIXED state nr.   2
--------------------------------------------------------------------------------
 CI COEFFICIENTS LARGER THAN  0.50D-01
  Occupation of active orbitals, and spin coupling
  of open shells. (u,d: Spin up or down).
  SGUGA info is (Midvert:IsyUp:UpperWalk/LowerWalk)
        Conf  SGUGA info        Occupation    Coefficient         Weight
          24  ( 2:1:   4/   1)   222u220d        0.961544       0.924567
          32  ( 2:1:  12/   1)   222u022d       -0.075554       0.005708
          33  ( 2:1:  13/   1)   222u2d02        0.100839       0.010169
         125  ( 3:1:   5/   3)   2u2d2202        0.187443       0.035135
         213  ( 4:1:   1/   3)   u22u22dd        0.086494       0.007481
         269  ( 5:1:   1/   9)   022u222d        0.080438       0.006470
 
  The CI coefficients for the MIXED state nr.   3
--------------------------------------------------------------------------------
 CI COEFFICIENTS LARGER THAN  0.50D-01
  Occupation of active orbitals, and spin coupling
  of open shells. (u,d: Spin up or down).
  SGUGA info is (Midvert:IsyUp:UpperWalk/LowerWalk)
        Conf  SGUGA info        Occupation    Coefficient         Weight
          21  ( 2:1:   1/   1)   222u22d0        0.121552       0.014775
          41  ( 2:1:   1/   2)   22u222d0       -0.945452       0.893879
          43  ( 2:1:   3/   2)   22u2d220        0.157142       0.024694
          45  ( 2:1:   5/   2)   22u22dud        0.063638       0.004050
          47  ( 2:1:   7/   2)   22u22udd       -0.113119       0.012796
          55  ( 2:1:  15/   2)   22u220d2       -0.077135       0.005950
         161  ( 3:1:   1/   7)   u2d22220       -0.131654       0.017333
         219  ( 4:1:   1/   4)   2uu222dd        0.069946       0.004892
         222  ( 4:1:   4/   4)   2uu22dd2        0.057590       0.003317
         294  ( 5:1:   2/  15)   20u222d2        0.101529       0.010308
 
  The CI coefficients for the MIXED state nr.   4
--------------------------------------------------------------------------------
 CI COEFFICIENTS LARGER THAN  0.50D-01
  Occupation of active orbitals, and spin coupling
  of open shells. (u,d: Spin up or down).
  SGUGA info is (Midvert:IsyUp:UpperWalk/LowerWalk)
        Conf  SGUGA info        Occupation    Coefficient         Weight
           2  ( 1:1:   2/   1)   22222ud0        0.379811       0.144257
           3  ( 1:1:   3/   1)   2222u2d0        0.860257       0.740043
           6  ( 1:1:   6/   1)   22220220        0.054932       0.003018
           7  ( 1:1:   7/   1)   22222u0d       -0.124693       0.015548
          12  ( 1:1:  12/   1)   2222uudd        0.085848       0.007370
          18  ( 1:1:  18/   1)   2222u0d2        0.076828       0.005903
          67  ( 2:1:   7/   3)   2u222udd       -0.067565       0.004565
          68  ( 2:1:   8/   3)   2u22u2dd       -0.063480       0.004030
          81  ( 2:1:   1/   4)   u22222d0        0.068885       0.004745
          83  ( 2:1:   3/   4)   u222d220        0.200406       0.040163
         176  ( 3:1:   6/   8)   20222ud2       -0.051597       0.002662
         177  ( 3:1:   7/   8)   2022u2d2       -0.088762       0.007879
         191  ( 3:1:   1/  10)   02222220       -0.057088       0.003259
 
  The CI coefficients for the MIXED state nr.   5
--------------------------------------------------------------------------------
 CI COEFFICIENTS LARGER THAN  0.50D-01
  Occupation of active orbitals, and spin coupling
  of open shells. (u,d: Spin up or down).
  SGUGA info is (Midvert:IsyUp:UpperWalk/LowerWalk)
        Conf  SGUGA info        Occupation    Coefficient         Weight
           2  ( 1:1:   2/   1)   22222ud0        0.111569       0.012448
           3  ( 1:1:   3/   1)   2222u2d0        0.093026       0.008654
           7  ( 1:1:   7/   1)   22222u0d        0.909950       0.828009
          14  ( 1:1:  14/   1)   22220u2d        0.075246       0.005662
          15  ( 1:1:  15/   1)   22222002       -0.178575       0.031889
          21  ( 2:1:   1/   1)   222u22d0        0.111719       0.012481
          73  ( 2:1:  13/   3)   2u222d02        0.231027       0.053374
          85  ( 2:1:   5/   4)   u2222dud       -0.053563       0.002869
          87  ( 2:1:   7/   4)   u2222udd        0.090264       0.008148
         175  ( 3:1:   5/   8)   20222202        0.116330       0.013533
         193  ( 3:1:   3/  10)   02222u2d        0.073795       0.005446
 
  The CI coefficients for the MIXED state nr.   6
--------------------------------------------------------------------------------
 CI COEFFICIENTS LARGER THAN  0.50D-01
  Occupation of active orbitals, and spin coupling
  of open shells. (u,d: Spin up or down).
  SGUGA info is (Midvert:IsyUp:UpperWalk/LowerWalk)
        Conf  SGUGA info        Occupation    Coefficient         Weight
           2  ( 1:1:   2/   1)   22222ud0       -0.859326       0.738441
           3  ( 1:1:   3/   1)   2222u2d0        0.382699       0.146458
          21  ( 2:1:   1/   1)   222u22d0        0.128322       0.016467
          27  ( 2:1:   7/   1)   222u2udd       -0.050274       0.002528
          65  ( 2:1:   5/   3)   2u222dud       -0.137742       0.018973
          67  ( 2:1:   7/   3)   2u222udd        0.188182       0.035412
          83  ( 2:1:   3/   4)   u222d220        0.082257       0.006766
         176  ( 3:1:   6/   8)   20222ud2        0.126649       0.016040
 
  The CI coefficients for the MIXED state nr.   7
--------------------------------------------------------------------------------
 CI COEFFICIENTS LARGER THAN  0.50D-01
  Occupation of active orbitals, and spin coupling
  of open shells. (u,d: Spin up or down).
  SGUGA info is (Midvert:IsyUp:UpperWalk/LowerWalk)
        Conf  SGUGA info        Occupation    Coefficient         Weight
           2  ( 1:1:   2/   1)   22222ud0       -0.116042       0.013466
           3  ( 1:1:   3/   1)   2222u2d0        0.062592       0.003918
           7  ( 1:1:   7/   1)   22222u0d        0.122049       0.014896
          21  ( 2:1:   1/   1)   222u22d0       -0.885541       0.784183
          25  ( 2:1:   5/   1)   222u2dud       -0.212748       0.045262
          27  ( 2:1:   7/   1)   222u2udd        0.306689       0.094058
          41  ( 2:1:   1/   2)   22u222d0       -0.111553       0.012444
         210  ( 4:1:   4/   2)   2u2u2dd2       -0.074526       0.005554
         262  ( 5:1:   2/   7)   202u22d2        0.081209       0.006595
 
--
 
--- Stop Module: caspt2 at Wed Nov 13 20:56:38 2024 /rc=_RC_ALL_IS_WELL_ ---
*** files: xmldump
    saved to directory /home/pcaah4
--- Module caspt2 spent 6 minutes 51 seconds ---

.##################.
.# Happy landing! #.
.##################.

    Timing: Wall=659.44 User=575.34 System=74.87
******************************************************
*** WorkDir at /srv/COMMUNAL_SCRATCH/10400 cleaned ***
******************************************************
