   This run of MOLCAS is using the pymolcas driver

                             OPE
                             OPE          NMOL  CASOP  ENMOLC A   SO
                 OPE        NMOLC        AS  OP EN  MO LC     AS  OP
                OPENM       OL CA        SO  PE NM  OL CA     SOP EN
                OP EN      MO   LC       AS  OP ENMOL  CASO   PENMOL
                OP  EN     MO   LC       AS  OP EN     MO     LC ASO
               OP   E  NMOL  C  AS       OP  EN MO     LC     AS  OP
               OP  E   NMO   LC AS        OPEN  MO     LCASOP EN   M
               O  PEN   MO  LCA  SO
            OPE   NMO   L   CAS    OP
        OPENMOL  CASOP     ENMOL   CASOPE
     OPENMOLCA   SOPENMOLCASOPEN   MOLCASOPE
    OPENMOLCAS   OP           EN   MOL    CAS
    OPENMOLCAS       OP  ENM        O     LCA
    OPENMOLCAS    OPEN  MOLCASO     P  E  NMO
    OPENMOLCAS     OP               E  N  MOL
    OPENMOLCA   SO           PENM   O  L  CAS    OPEN    MO    LCAS
    OPENMOLCA   SOP           ENM   O  L  CAS   OP  EN  MOLC  AS   O
    OPENMOLCA   SOPE           NM      O  LCA   S      OP  EN MO
    OPENMOLC                AS         O  PEN   M      OL  CA  SOPE
    OPENMO        LCASOPE  NMOL        C  ASO   P      ENMOLC     AS
    OPE     NMO      LCA  SO     P     E   NM   OL  CA SO  PE N   MO
          OPENMOLCA            SOPE   NMO        LCAS  O    P  ENMO
     OPENMOLCASOPENMOLCASOPENMOLCASOPENMOLCA
        OPENMOLCASOPENMOLCASOPENMOLCASOPE
            OPENMOLCASOPENMOLCASOPENM
               OPENMOLCASOPENMOLCA        version: v23.06
                   OPENMOLCASO
                       OPE                tag:

 OpenMolcas is free software; you can redistribute it and/or modify it
 under the terms of the GNU Lesser General Public License version 2.1.
 OpenMolcas is distributed in the hope that it will be useful, but it
 is provided "as is" and without any express or implied warranties.
 For more details see the full text of the license in the file
 LICENSE or in <http://www.gnu.org/licenses/>.

                 Copyright (C) The OpenMolcas Authors
           For the author list and the recommended citation,
                   consult the file CONTRIBUTORS.md

           *************************************************
           * pymolcas version py2.24                       *
           *   build 4567b286dd94b1984b333a4ddf893180      *
           *   (after the EMIL interpreter by V. Veryazov) *
           *************************************************

configuration info
------------------
Host name: loginchem01.nottingham.ac.uk (Linux)
C Compiler ID: Intel
C flags: -std=gnu99 -gcc-sys -qopenmp
Fortran Compiler ID: Intel
Fortran flags: -fpp -i8 -heap-arrays -qopenmp
Definitions: _MOLCAS_;_I8_;_LINUX_
Parallel: OFF (GA=OFF)


   -----------------------------------------------------------------------------------------------------------
  |
  |              Project: orca_geometry_optimisation_240_90_BP86_def2-SVP_def2J_scf_cas1_ras12i11_cas2_ras12i8
  |       Submitted from: /home/pcaah4
  |         Scratch area: /srv/COMMUNAL_SCRATCH/10408
  |      Save outputs to: /home/pcaah4
  |               Molcas: /software/chemistry/openmolcas/openmolcas-23.06-openmp
  |
  | Scratch area is empty
  |
  |       MOLCAS_DRIVER = /software/chemistry/openmolcas/openmolcas-23.06-openmp/sbin/pymolcas
  | MOLCAS_KEEP_WORKDIR = NO
  |       MOLCAS_NPROCS = 1
  |       MOLCAS_SOURCE = /software/chemistry/openmolcas/openmolcas-23.06-openmp
  |    MOLCAS_STRUCTURE = 0
  |
   -----------------------------------------------------------------------------------------------------------

++ ---------   Input file   ---------

&SEWARD
TITLE
orca_geometry_optimisation_240_90_BP86_def2-SVP_def2J_scf_cas1_ras12i11
MULTIPOLES
2
SDIPOLE
ANGMOM
0 0 0
BASIS SET
C.ANO-S...4S3P1D.
C1           -0.025160   -0.055747   -0.056721 /Angstrom
C3            2.106004    1.203981   -0.049584 /Angstrom
C4            3.038969    1.253760   -1.273085 /Angstrom
C6            3.142757    1.860978   -3.672224 /Angstrom
C19          -0.663278   -1.433112    0.076785 /Angstrom
END OF BASIS
BASIS SET
N.ANO-S...4S3P1D.
N2            1.351900   -0.039092   -0.020702 /Angstrom
N5            2.466548    1.808956   -2.390274 /Angstrom
END OF BASIS
BASIS SET
O.ANO-S...4S3P1D.
O7           -0.694466    0.969566   -0.189898 /Angstrom
O8            4.178082    0.788640   -1.241141 /Angstrom
END OF BASIS
BASIS SET
H.ANO-S...2S1P.
H9           -1.264367   -1.456874    1.008075 /Angstrom
H10          -1.367980   -1.581925   -0.764686 /Angstrom
H11           0.062527   -2.269725    0.096905 /Angstrom
H12           1.870681   -0.912250    0.084893 /Angstrom
H13           1.354603    2.018803   -0.050318 /Angstrom
H14           2.746835    1.297465    0.851871 /Angstrom
H15           1.496009    2.122889   -2.326486 /Angstrom
H16           2.629700    1.237921   -4.436580 /Angstrom
H17           3.211914    2.901008   -4.055968 /Angstrom
H18           4.165214    1.466306   -3.518613 /Angstrom
END OF BASIS
END OF INPUT

&RASSCF
TITLE
orca_geometry_optimisation_240_90_BP86_def2-SVP_def2J_scf_cas1_ras12i11
LUMORB
SPIN
1
SYMMETRY
1
NACTEL
12  0  0
INACTIVE
29
DELETED  ! delete Rydberg orbitals from an initial CAS(12,11) if done
3
FROZEN
0
RAS2
8
ITERATIONS
64 25
CIROOT
7 7
1 2 3 4 5 6 7
1 1 1 1 1 1 1
LEVSHFT
0.3
CIMX
20
FILEorb = /home/pcaah4/outputs/cas1_ras12i11_rasorb_files/orca_geometry_optimisation_240_90_BP86_def2-SVP_def2J_scf_cas1_ras12i11.RasOrb
ALTEr
4
 1 36 40
 1 38 210
 1 39 211
 1 40 212
END OF INPUT

&RASSI
NROF JOBIPH
    1 7
    1 2 3 5 4 6 7
TOFILE
TRDI
TDMN
1.0D-6
END OF INPUT

&CASPT2
TITLE
orca_geometry_optimisation_240_90_BP86_def2-SVP_def2J_scf_cas1_ras12i11
MULTISTATE
7 1 2 3 4 5 6 7
SHIFT
0.35
MAXITER
50
END OF INPUT

-- ----------------------------------

--- Start Module: seward at Wed Nov 13 21:00:34 2024 ---
 
()()()()()()()()()()()()()()()()()()()()()()()()()()()()()()()()()()()()()()()()()()()()()()()()()()

                                              &SEWARD

                                   only a single process is used
                       available to each process: 2.0 GB of memory, 1 thread
                                            pid: 1804055
()()()()()()()()()()()()()()()()()()()()()()()()()()()()()()()()()()()()()()()()()()()()()()()()()()
 
               SEWARD will generate:
                  Multipole Moment integrals up to order  2
                  Kinetic Energy integrals
                  Nuclear Attraction integrals (point charge)
                  One-Electron Hamiltonian integrals
                  Velocity integrals
                  Orbital angular momentum around ( 0.0000  0.0000  0.0000 )
                  Velocity quadrupole around ( 3.1294  1.3326 -1.8823 )
                  Two-Electron Repulsion integrals
 
 Title:
            orca_geometry_optimisation_240_90_BP86_def2-SVP_def2J_scf_cas1_ras12i11     
 
 
                   Integrals are discarded if absolute value <: 0.10E-13
                   Integral cutoff threshold is set to       <: 0.10E-15
 
++    Symmetry information:
      ---------------------
 
                    Character Table for C1 
 
                             E  
                    a        1  x, y, xy, Rz, z, xz, Ry, yz, Rx, I
--
 
 
++    Basis set information:
      ----------------------
 
 
      Basis set label: C.ANO-S...4S3P1D......
 
      Electronic valence basis set:
      ------------------
      Associated Effective Charge   6.000000 au
      Associated Actual Charge      6.000000 au
      Nuclear Model: Point charge
 
      Shell  nPrim  nBasis  Cartesian Spherical Contaminant
         s      10       4        X                  
         p       6       3        X                  
         d       3       1                 X         
 
 
      Basis set label: N.ANO-S...4S3P1D......
 
      Electronic valence basis set:
      ------------------
      Associated Effective Charge   7.000000 au
      Associated Actual Charge      7.000000 au
      Nuclear Model: Point charge
 
      Shell  nPrim  nBasis  Cartesian Spherical Contaminant
         s      10       4        X                  
         p       6       3        X                  
         d       3       1                 X         
 
 
      Basis set label: O.ANO-S...4S3P1D......
 
      Electronic valence basis set:
      ------------------
      Associated Effective Charge   8.000000 au
      Associated Actual Charge      8.000000 au
      Nuclear Model: Point charge
 
      Shell  nPrim  nBasis  Cartesian Spherical Contaminant
         s      10       4        X                  
         p       6       3        X                  
         d       3       1                 X         
 
 
      Basis set label: H.ANO-S...2S1P......
 
      Electronic valence basis set:
      ------------------
      Associated Effective Charge   1.000000 au
      Associated Actual Charge      1.000000 au
      Nuclear Model: Point charge
 
      Shell  nPrim  nBasis  Cartesian Spherical Contaminant
         s       7       2        X                  
         p       3       1        X                  
--
 
 
++    Molecular structure info:
      -------------------------
 
                    ************************************************ 
                    **** Cartesian Coordinates / Bohr, Angstrom **** 
                    ************************************************ 
 
     Center  Label                x              y              z                     x              y              z
        1      C1              -0.047546      -0.105347      -0.107187             -0.025160      -0.055747      -0.056721
        2      C3               3.979771       2.275194      -0.093700              2.106004       1.203981      -0.049584
        3      C4               5.742819       2.369263      -2.405782              3.038969       1.253760      -1.273085
        4      C6               5.938950       3.516739      -6.939498              3.142757       1.860978      -3.672224
        5      C19             -1.253414      -2.708189       0.145103             -0.663278      -1.433112       0.076785
        6      N2               2.554721      -0.073873      -0.039121              1.351900      -0.039092      -0.020702
        7      N5               4.661100       3.418431      -4.516963              2.466548       1.808956      -2.390274
        8      O7              -1.312351       1.832214      -0.358855             -0.694466       0.969566      -0.189898
        9      O8               7.895431       1.490314      -2.345417              4.178082       0.788640      -1.241141
       10      H9              -2.389307      -2.753093       1.904986             -1.264367      -1.456874       1.008075
       11      H10             -2.585108      -2.989405      -1.445047             -1.367980      -1.581925      -0.764686
       12      H11              0.118159      -4.289159       0.183124              0.062527      -2.269725       0.096905
       13      H12              3.535075      -1.723903       0.160425              1.870681      -0.912250       0.084893
       14      H13              2.559829       3.814985      -0.095087              1.354603       2.018803      -0.050318
       15      H14              5.190766       2.451854       1.609803              2.746835       1.297465       0.851871
       16      H15              2.827047       4.011679      -4.396421              1.496009       2.122889      -2.326486
       17      H16              4.969413       2.339332      -8.383921              2.629700       1.237921      -4.436580
       18      H17              6.069638       5.482111      -7.664669              3.211914       2.901008      -4.055968
       19      H18              7.871114       2.770917      -6.649215              4.165214       1.466306      -3.518613
 
                    ************************************************* 
                    **** InterNuclear Distances / Bohr, Angstrom **** 
                    ************************************************* 
 
     Atom centers         Bohr        Angstrom
   13 H12       6 N2      1.929640        1.021121
   16 H15       7 N5      1.931378        1.022041
   19 H18       4 C6      2.091356        1.106698
   11 H10       5 C19     2.093100        1.107621
   12 H11       5 C19     2.093352        1.107754
   14 H13       2 C3      2.094562        1.108395
   10 H9        5 C19     2.095104        1.108681
   15 H14       2 C3      2.097532        1.109966
   18 H17       4 C6      2.098961        1.110723
   17 H16       4 C6      2.100631        1.111606
    9 O8        3 C4      2.325926        1.230827
    8 O7        1 C1      2.327490        1.231655
    7 N5        3 C4      2.593830        1.372596
    6 N2        1 C1      2.603347        1.377632
    7 N5        4 C6      2.740664        1.450297
    6 N2        2 C3      2.748066        1.454214
    5 C19       1 C1      2.879680        1.523861
    3 C4        2 C3      2.909108        1.539434
   11 H10      10 H9      3.364060        1.780184
   18 H17      17 H16     3.406593        1.802692
   12 H11      10 H9      3.407593        1.803221
   19 H18      17 H16     3.408128        1.803504
   19 H18      18 H17     3.409844        1.804412
   12 H11      11 H10     3.412909        1.806034
   15 H14      14 H13     3.418568        1.809028
   14 H13       6 N2      3.889264        2.058110
   16 H15       3 C4      3.893828        2.060525
   19 H18       7 N5      3.907680        2.067855
   13 H12       1 C1      3.940369        2.085153
   15 H14       6 N2      4.005868        2.119814
   18 H17       7 N5      4.018806        2.126660
   17 H16       7 N5      4.026522        2.130743
   13 H12       2 C3      4.031763        2.133517
   16 H15       4 C6      4.049215        2.142752
   15 H14       3 C4      4.054196        2.145388
   10 H9        1 C1      4.067339        2.152343
   11 H10       1 C1      4.067786        2.152580
   14 H13       3 C4      4.190567        2.217552
   12 H11       1 C1      4.197144        2.221033
   13 H12      12 H11     4.272747        2.261040
   16 H15      14 H13     4.314113        2.282930
    8 O7        6 N2      4.323152        2.287713
    9 O8        7 N5      4.346740        2.300196
   14 H13       8 O7      4.358294        2.306310
   19 H18       9 O8      4.490347        2.376189
    8 O7        5 C19     4.568666        2.417634
    9 O8        2 C3      4.584611        2.426072
    7 N5        2 C3      4.619140        2.444344
    6 N2        5 C19     4.634161        2.452292
    6 N2        3 C4      4.661971        2.467009
    2 C3        1 C1      4.678294        2.475646
    4 C6        3 C4      4.680785        2.476965
   14 H13       1 C1      4.708242        2.491494
   15 H14      13 H12     4.720058        2.497747
   19 H18       3 C4      4.764209        2.521111
   16 H15       2 C3      4.780958        2.529974
   17 H16      16 H15     4.825622        2.553609
   18 H17      16 H15     4.833012        2.557520
   12 H11       6 N2      4.873896        2.579154
   15 H14       9 O8      4.887078        2.586130
   13 H12       5 C19     4.888627        2.586950
   14 H13       7 N5      4.911780        2.599202
   11 H10       8 O7      5.103698        2.700761
   10 H9        8 O7      5.225883        2.765418
   13 H12       3 C4      5.311643        2.810801
    8 O7        2 C3      5.317244        2.813764
    9 O8        4 C6      5.388859        2.851661
   14 H13      13 H12     5.629890        2.979210
   19 H18      16 H15     5.661906        2.996151
--
 
 
            Nuclear Potential Energy            451.79685701 au
 
 
      Basis set specifications :
      Symmetry species         a  
      Basis functions          212
 
 
      Input file to MOLDEN was generated!
 
--- Stop Module: seward at Wed Nov 13 21:02:23 2024 /rc=_RC_ALL_IS_WELL_ ---
*** files: orca_geometry_optimisation_240_90_BP86_def2-SVP_def2J_scf_cas1_ras12i11_cas2_ras12i8.GssOrb
           orca_geometry_optimisation_240_90_BP86_def2-SVP_def2J_scf_cas1_ras12i11_cas2_ras12i8.guessorb.molden xmldump
    saved to directory /home/pcaah4
--- Module seward spent 1 minute 48 seconds ---

*** symbolic link created: INPORB -> orca_geometry_optimisation_240_90_BP86_def2-SVP_def2J_scf_cas1_ras12i11_cas2_ras12i8.GssOrb
--- Start Module: rasscf at Wed Nov 13 21:02:24 2024 ---
 
()()()()()()()()()()()()()()()()()()()()()()()()()()()()()()()()()()()()()()()()()()()()()()()()()()

                                              &RASSCF

                                   only a single process is used
                       available to each process: 2.0 GB of memory, 1 thread
                                            pid: 1804637
()()()()()()()()()()()()()()()()()()()()()()()()()()()()()()()()()()()()()()()()()()()()()()()()()()
 
 
      Header of the ONEINT file:
      --------------------------
      orca_geometry_optimisation_240_90_BP86_def2-SVP_def2J_scf_cas1_ras12i11
      Integrals generated by Gateway/Seward, Wed Nov 13 21:00:34 2024
 
 
      OrdInt status: non-squared
 
 
      Cartesian coordinates in Angstrom:
      -----------------------------------------------------
      No.  Label        X            Y            Z        
      -----------------------------------------------------
       1   C1        -0.02516000  -0.05574700  -0.05672100
       2   C3         2.10600400   1.20398100  -0.04958400
       3   C4         3.03896900   1.25376000  -1.27308500
       4   C6         3.14275700   1.86097800  -3.67222400
       5   C19       -0.66327800  -1.43311200   0.07678500
       6   N2         1.35190000  -0.03909200  -0.02070200
       7   N5         2.46654800   1.80895600  -2.39027400
       8   O7        -0.69446600   0.96956600  -0.18989800
       9   O8         4.17808200   0.78864000  -1.24114100
      10   H9        -1.26436700  -1.45687400   1.00807500
      11   H10       -1.36798000  -1.58192500  -0.76468600
      12   H11        0.06252700  -2.26972500   0.09690500
      13   H12        1.87068100  -0.91225000   0.08489300
      14   H13        1.35460300   2.01880300  -0.05031800
      15   H14        2.74683500   1.29746500   0.85187100
      16   H15        1.49600900   2.12288900  -2.32648600
      17   H16        2.62970000   1.23792100  -4.43658000
      18   H17        3.21191400   2.90100800  -4.05596800
      19   H18        4.16521400   1.46630600  -3.51861300
      -----------------------------------------------------
      Nuclear repulsion energy =  451.79685701
 
++    Wave function specifications:
      -----------------------------
 
      Number of closed shell electrons          58
      Number of electrons in active shells      12
      Max number of holes in RAS1 space          0
      Max nr of electrons in RAS3 space          0
      Number of inactive orbitals               29
      Number of active orbitals                  8
      Number of secondary orbitals             172
      Spin quantum number                      0.0
      State symmetry                             1
--
 
++    Orbital specifications:
      -----------------------
 
      Symmetry species                           1
                                                 a
      Frozen orbitals                            0
      Inactive orbitals                         29
      Active orbitals                            8
      RAS1 orbitals                              0
      RAS2 orbitals                              8
      RAS3 orbitals                              0
      Secondary orbitals                       172
      Deleted orbitals                           3
      Number of basis functions                212
--
 
++    CI expansion specifications:
      ----------------------------
 
      Number of CSFs                           336
      Number of determinants                   406
      Number of root(s) required                 7
      Root chosen for geometry opt.              7
      CI roots used                              1     2     3     4     5     6     7
      weights                                0.143 0.143 0.143 0.143 0.143 0.143 0.143
      highest root included in the CI            7
      max. size of the explicit Hamiltonian    200
--
 
++    Optimization specifications:
      ----------------------------
 
      RASSCF algorithm: Conventional
      Maximum number of macro iterations        64
      Maximum number of SX iterations           25
      Threshold for RASSCF energy            0.100E-07
      Threshold for max MO rotation          0.100E+00
      Threshold for max BLB element          0.100E-03
      Level shift parameter                  0.300E+00
      Make Quasi-Newton update
--
 
      The MO-coefficients are taken from the file:
      /home/pcaah4/outputs/cas1_ras12i11_rasorb_files/orca_geometry_optimisation_240_90_BP86_def2-SVP_def2J_scf_cas1_ras12i11.RasOrb                                                                                                                                  
      Title: RASSCF average (pseudo-natural) orbitals                                      
 
      Total molecular charge    0.00
 
      Molecular orbitals exchanged:
        In symmetry  1 :  36  40
        In symmetry  1 :  38 210
        In symmetry  1 :  39 211
        In symmetry  1 :  40 212
 
 
      ************************************************************************************************************************
      *                                                                                                                      *
      *                                            Wave function control section                                             *
      *                                                                                                                      *
      ************************************************************************************************************************
 
 
                                         RASSCF iterations: Energy and convergence statistics
                                         ----------------------------------------------------
 
      Iter CI   SX   CI       RASSCF       Energy    max ROT     max BLB   max BLB  Level Ln srch  Step   QN   Walltime
          iter iter root      energy       change     param      element    value   shift minimum  type update hh:mm:ss
 Nr of preliminary CI iterations:   5
        1   1   11    0  -453.69129615    0.00E+00  -0.33E-01   24  73 1 -0.18E-01*  0.19   0.00    SX    NO    0:00:13
        2   4    8    0  -453.70174020   -0.10E-01* -0.16E-01   22  98 1  0.60E-02*  0.17   0.00    SX    NO    0:00:06
        3   3    9    0  -453.70291075   -0.12E-02*  0.77E-02   24  73 1 -0.29E-02*  0.17   0.00    SX    NO    0:00:06
        4   5    9    0  -453.70329668   -0.39E-03*  0.51E-02   22  98 1  0.16E-02*  0.17   0.00    SX    NO    0:00:06
        5   4    8    0  -453.70340833   -0.11E-03*  0.72E-02   21  67 1  0.67E-03*  0.17   1.34    QN   YES    0:00:06
        6   6    8    0  -453.70346910   -0.61E-04* -0.25E-02   35 114 1  0.34E-03*  0.17   1.15    QN   YES    0:00:06
        7   3    7    0  -453.70347520   -0.61E-05*  0.17E-02   23  82 1  0.14E-03*  0.17   1.30    QN   YES    0:00:06
        8   5    7    0  -453.70347726   -0.21E-05* -0.40E-03   24  63 1 -0.52E-04   0.17   1.04    QN   YES    0:00:06
        9   6    6    0  -453.70347775   -0.48E-06* -0.41E-03   20  97 1 -0.34E-04   0.17   1.50    QN   YES    0:00:06
       10   4    6    0  -453.70347788   -0.13E-06*  0.71E-04   37  71 1  0.13E-04   0.17   1.00    QN   YES    0:00:06
       11   1    6    0  -453.70347790   -0.20E-07*  0.74E-04   24  73 1 -0.65E-05   0.17   1.55    QN   YES    0:00:06
       12   1    5    0  -453.70347790   -0.68E-08  -0.24E-04   11  39 1  0.29E-05   0.17   1.09    QN   YES    0:00:06
      Convergence after 12 iterations
       13   1    5    0  -453.70347790   -0.69E-09  -0.24E-04   37  70 1  0.11E-05   0.17   1.09    QN   YES    0:00:06
 
      ************************************************************************************************************************
                                                      Wave function printout:
                       occupation of active orbitals, and spin coupling of open shells (u,d: Spin up or down)
      ************************************************************************************************************************
 
      Note: transformation to natural orbitals
      has been made, which may change the order of the CSFs.
 
      printout of CI-coefficients larger than  0.05 for root  1
      energy=    -453.959049
      conf/sym  11111111     Coeff  Weight
             1  22222200   0.96267 0.92673
             4  22222020  -0.08767 0.00769
             8  2222u20d   0.14142 0.02000
            17  22220202  -0.07581 0.00575
            64  2u22220d   0.07503 0.00563
            74  2u22d202  -0.05972 0.00357
            81  u22222d0   0.08498 0.00722
            82  u2222d20  -0.05169 0.00267
           175  20222202  -0.09307 0.00866
           191  02222220  -0.07787 0.00606
 
      printout of CI-coefficients larger than  0.05 for root  2
      energy=    -453.742523
      conf/sym  11111111     Coeff  Weight
            21  222u22d0  -0.14956 0.02237
            24  222u220d   0.94746 0.89768
            29  222u202d  -0.08529 0.00727
            34  222ud202  -0.09078 0.00824
            41  22u222d0  -0.07726 0.00597
           115  22ud2202   0.07017 0.00492
           125  2u2d2202  -0.17387 0.03023
           213  u22u22dd  -0.07060 0.00498
           269  022u222d   0.07799 0.00608
 
      printout of CI-coefficients larger than  0.05 for root  3
      energy=    -453.740726
      conf/sym  11111111     Coeff  Weight
             3  2222u2d0  -0.29927 0.08956
            24  222u220d  -0.08592 0.00738
            41  22u222d0  -0.89428 0.79974
            42  22u22d20   0.17818 0.03175
            46  22u2d2ud  -0.06254 0.00391
            48  22u2u2dd   0.10502 0.01103
            58  22u202d2  -0.07932 0.00629
           161  u2d22220   0.13011 0.01693
           219  2uu222dd  -0.06100 0.00372
           294  20u222d2   0.08582 0.00736
 
      printout of CI-coefficients larger than  0.05 for root  4
      energy=    -453.645270
      conf/sym  11111111     Coeff  Weight
             1  22222200   0.05039 0.00254
             2  22222ud0  -0.83030 0.68940
             3  2222u2d0   0.30336 0.09202
             4  22222020  -0.07302 0.00533
             5  2222ud20   0.05247 0.00275
             8  2222u20d  -0.27794 0.07725
            12  2222uudd  -0.08196 0.00672
            17  22220202  -0.06527 0.00426
            19  22220ud2   0.07180 0.00516
            41  22u222d0  -0.13769 0.01896
            67  2u222udd  -0.05986 0.00358
            68  2u22u2dd   0.05161 0.00266
            74  2u22d202   0.06910 0.00478
            81  u22222d0   0.10568 0.01117
            82  u2222d20   0.19270 0.03713
           176  20222ud2   0.07740 0.00599
           191  02222220   0.05481 0.00300
 
      printout of CI-coefficients larger than  0.05 for root  5
      energy=    -453.628916
      conf/sym  11111111     Coeff  Weight
             1  22222200  -0.07981 0.00637
             2  22222ud0  -0.44269 0.19597
             3  2222u2d0  -0.58145 0.33808
             8  2222u20d   0.54346 0.29535
            13  2222u02d  -0.05420 0.00294
            17  22220202   0.12248 0.01500
            21  222u22d0  -0.07945 0.00631
            41  22u222d0   0.18408 0.03389
            61  2u2222d0   0.06066 0.00368
            66  2u22d2ud   0.09490 0.00901
            68  2u22u2dd  -0.11033 0.01217
            74  2u22d202  -0.13707 0.01879
            82  u2222d20   0.12801 0.01639
            88  u222u2dd  -0.06076 0.00369
           175  20222202  -0.06306 0.00398
           177  2022u2d2   0.07105 0.00505
 
      printout of CI-coefficients larger than  0.05 for root  6
      energy=    -453.612855
      conf/sym  11111111     Coeff  Weight
             1  22222200  -0.08353 0.00698
             3  2222u2d0   0.60723 0.36873
             5  2222ud20   0.05838 0.00341
             8  2222u20d   0.62297 0.38809
            13  2222u02d  -0.05829 0.00340
            17  22220202   0.11488 0.01320
            21  222u22d0  -0.27019 0.07300
            24  222u220d  -0.05744 0.00330
            26  222ud2ud   0.06288 0.00395
            28  222uu2dd  -0.09081 0.00825
            41  22u222d0  -0.17610 0.03101
            66  2u22d2ud  -0.10767 0.01159
            68  2u22u2dd   0.15486 0.02398
            74  2u22d202  -0.15747 0.02480
           175  20222202  -0.05949 0.00354
           177  2022u2d2  -0.09215 0.00849
 
      printout of CI-coefficients larger than  0.05 for root  7
      energy=    -453.595007
      conf/sym  11111111     Coeff  Weight
             3  2222u2d0  -0.12726 0.01620
             8  2222u20d  -0.25798 0.06656
            17  22220202  -0.06007 0.00361
            21  222u22d0  -0.83457 0.69651
            22  222u2d20  -0.05269 0.00278
            24  222u220d  -0.12608 0.01590
            26  222ud2ud   0.21932 0.04810
            28  222uu2dd  -0.29857 0.08914
            41  22u222d0   0.05259 0.00277
            74  2u22d202   0.06296 0.00396
            81  u22222d0   0.05362 0.00288
           112  22ud22ud   0.09091 0.00827
           201  22uu22dd   0.08204 0.00673
           211  2u2ud2d2  -0.07397 0.00547
           262  202u22d2   0.07138 0.00510
 
      Natural orbitals and occupation numbers for root  1
      sym 1:   1.967629   1.995707   1.999849   1.999759   1.956664   1.994917   0.037741   0.047735
 
      Natural orbitals and occupation numbers for root  2
      sym 1:   1.967420   1.998443   1.992446   1.007474   1.999421   1.995393   0.044913   0.994490
 
      Natural orbitals and occupation numbers for root  3
      sym 1:   1.999702   1.994717   1.010808   1.990844   1.955562   1.997071   0.994302   0.056994
 
      Natural orbitals and occupation numbers for root  4
      sym 1:   1.962924   1.965395   1.999268   1.999543   1.885269   1.160545   0.886468   0.140587
 
      Natural orbitals and occupation numbers for root  5
      sym 1:   1.994623   1.937697   1.979693   1.998010   1.126628   1.862082   0.913330   0.187937
 
      Natural orbitals and occupation numbers for root  6
      sym 1:   1.997743   1.964254   1.989322   1.924700   1.069431   1.983422   0.139237   0.931891
 
      Natural orbitals and occupation numbers for root  7
      sym 1:   1.998741   1.980702   1.993585   1.201286   1.873853   1.986331   0.811044   0.154459
 
      ************************************************************************************************************************
      *                                                                                                                      *
      *                                                    Final results                                                     *
      *                                                                                                                      *
      ************************************************************************************************************************
 
 
++    Wave function specifications:
      -----------------------------
 
      Number of closed shell electrons          58
      Number of electrons in active shells      12
      Max number of holes in RAS1 space          0
      Max nr of electrons in RAS3 space          0
      Number of inactive orbitals               29
      Number of active orbitals                  8
      Number of secondary orbitals             172
      Spin quantum number                      0.0
      State symmetry                             1
--
 
++    Orbital specifications:
      -----------------------
 
      Symmetry species                           1
                                                 a
      Frozen orbitals                            0
      Inactive orbitals                         29
      Active orbitals                            8
      RAS1 orbitals                              0
      RAS2 orbitals                              8
      RAS3 orbitals                              0
      Secondary orbitals                       172
      Deleted orbitals                           3
      Number of basis functions                212
--
 
++    CI expansion specifications:
      ----------------------------
 
      Number of CSFs                           336
      Number of determinants                   406
      Number of root(s) required                 7
      CI roots used                              1     2     3     4     5     6     7
      weights                                0.143 0.143 0.143 0.143 0.143 0.143 0.143
      highest root included in the CI            7
      Root passed to geometry opt.               7
--
 
++    Final optimization conditions:
      ------------------------------
 
      Average CI energy                            -453.70347790
      RASSCF energy for state  7                   -453.59500650
      Super-CI energy                                -0.00000000
      RASSCF energy change                            0.00000000
      Max change in MO coefficients               0.298E-04
      Max non-diagonal density matrix element    -0.243E-04
      Maximum BLB matrix element                  0.106E-05
      (orbital pair  37,  70 in symmetry   1)
      Norm of electronic gradient            0.322E+00
--
 
 
      Final state energy(ies):
      ------------------------
 
::    RASSCF root number  1 Total energy:   -453.95904863
::    RASSCF root number  2 Total energy:   -453.74252268
::    RASSCF root number  3 Total energy:   -453.74072642
::    RASSCF root number  4 Total energy:   -453.64527026
::    RASSCF root number  5 Total energy:   -453.62891618
::    RASSCF root number  6 Total energy:   -453.61285465
::    RASSCF root number  7 Total energy:   -453.59500650
 
++    Molecular orbitals:
      -------------------
 
      Pseudonatural active orbitals and approximate occupation numbers
 
 
 
 
      Molecular orbitals for symmetry species 1: a  
 
 
      Orbital                 1         2         3         4         5         6         7         8         9        10
      Energy           -20.6051  -20.5070  -15.6399  -15.5769  -11.3491  -11.2874  -11.2803  -11.2639  -11.2579   -1.4298
      Occ. No.           2.0000    2.0000    2.0000    2.0000    2.0000    2.0000    2.0000    2.0000    2.0000    2.0000
 
     1 C1     1s         0.0003   -0.0001    0.0002   -0.0001    0.9999    0.0001   -0.0001    0.0037   -0.0000   -0.0387
     2 C1     2s         0.0009   -0.0004    0.0006   -0.0004    0.0019   -0.0008   -0.0005    0.0004   -0.0002    0.3562
     3 C1     3s        -0.0005   -0.0003    0.0000   -0.0003   -0.0004   -0.0008   -0.0004    0.0007   -0.0002   -0.0035
     4 C1     4s        -0.0004   -0.0001   -0.0000   -0.0001    0.0012   -0.0003   -0.0001    0.0002   -0.0001    0.0038
     5 C1     2px       -0.0013   -0.0004    0.0016   -0.0005    0.0014    0.0002   -0.0004    0.0003   -0.0003   -0.0447
     6 C1     3px       -0.0008   -0.0003    0.0012   -0.0006    0.0016   -0.0001   -0.0006   -0.0001   -0.0004    0.0258
     7 C1     4px        0.0001    0.0000   -0.0001   -0.0001    0.0005   -0.0002   -0.0001   -0.0002   -0.0001   -0.0137
     8 C1     2py        0.0031   -0.0002    0.0000   -0.0001    0.0012    0.0002   -0.0003    0.0006   -0.0002    0.0966
     9 C1     3py        0.0021   -0.0003    0.0001   -0.0001    0.0011   -0.0003   -0.0003   -0.0001   -0.0003   -0.0691
    10 C1     4py       -0.0004   -0.0001    0.0001   -0.0000    0.0008   -0.0004   -0.0000   -0.0003   -0.0001    0.0224
    11 C1     2pz       -0.0004   -0.0003    0.0001   -0.0000   -0.0000   -0.0000    0.0001   -0.0000    0.0000   -0.0055
    12 C1     3pz       -0.0003   -0.0004    0.0000   -0.0000   -0.0002   -0.0000    0.0001    0.0000    0.0001    0.0074
    13 C1     4pz        0.0000   -0.0001    0.0000   -0.0000   -0.0001   -0.0000   -0.0000    0.0000    0.0000   -0.0030
    14 C1     3d2-       0.0001   -0.0000    0.0001    0.0000   -0.0004    0.0000   -0.0000   -0.0000    0.0000   -0.0327
    15 C1     3d1-       0.0000   -0.0000    0.0000    0.0000   -0.0001    0.0000    0.0000   -0.0000    0.0000   -0.0069
    16 C1     3d0       -0.0000    0.0000    0.0001    0.0000   -0.0004   -0.0001    0.0000   -0.0001    0.0000   -0.0273
    17 C1     3d1+      -0.0000   -0.0000   -0.0000   -0.0000    0.0001    0.0000    0.0000    0.0000   -0.0000    0.0047
    18 C1     3d2+       0.0001   -0.0000   -0.0002   -0.0000   -0.0000    0.0000    0.0000    0.0000    0.0000   -0.0104
    19 C3     1s         0.0001    0.0002    0.0002    0.0001   -0.0001    0.9986   -0.0409   -0.0000    0.0000   -0.0087
    20 C3     2s         0.0007    0.0012    0.0013    0.0010    0.0002   -0.0019   -0.0007   -0.0006    0.0007    0.0183
    21 C3     3s         0.0005    0.0008    0.0007    0.0007    0.0001   -0.0030   -0.0007   -0.0004    0.0004   -0.0179
    22 C3     4s         0.0001    0.0001    0.0001    0.0001   -0.0000    0.0006   -0.0002   -0.0000    0.0000   -0.0023
    23 C3     2px       -0.0001   -0.0006   -0.0005    0.0004    0.0005   -0.0009    0.0002   -0.0002   -0.0003   -0.0191
    24 C3     3px        0.0001   -0.0006   -0.0002    0.0004    0.0009   -0.0010   -0.0002   -0.0004   -0.0006   -0.0065
    25 C3     4px        0.0001   -0.0001    0.0001   -0.0000    0.0003   -0.0006   -0.0001   -0.0001   -0.0002   -0.0051
    26 C3     2py       -0.0001    0.0001   -0.0007   -0.0005    0.0003   -0.0001    0.0003    0.0001    0.0001   -0.0165
    27 C3     3py        0.0000    0.0001   -0.0001   -0.0004    0.0003    0.0001    0.0001   -0.0001    0.0001   -0.0031
    28 C3     4py        0.0000    0.0000    0.0002    0.0001    0.0000   -0.0008   -0.0001   -0.0001   -0.0000   -0.0043
    29 C3     2pz       -0.0002   -0.0004   -0.0007    0.0002   -0.0009   -0.0001   -0.0000    0.0001   -0.0005    0.0098
    30 C3     3pz       -0.0002   -0.0001   -0.0009    0.0002   -0.0011   -0.0003    0.0004    0.0001   -0.0004    0.0154
    31 C3     4pz       -0.0000    0.0002   -0.0001    0.0001   -0.0001   -0.0002    0.0001    0.0000    0.0000    0.0027
    32 C3     3d2-       0.0000    0.0000   -0.0000   -0.0000    0.0000   -0.0001   -0.0000   -0.0000    0.0000    0.0035
    33 C3     3d1-       0.0000   -0.0001   -0.0000   -0.0000    0.0000   -0.0000    0.0001    0.0000   -0.0000   -0.0001
    34 C3     3d0       -0.0000    0.0001    0.0001    0.0000   -0.0001    0.0000   -0.0000    0.0000    0.0000   -0.0020
    35 C3     3d1+      -0.0000    0.0000   -0.0000    0.0000   -0.0000    0.0001   -0.0000   -0.0000   -0.0001   -0.0005
    36 C3     3d2+      -0.0000   -0.0001    0.0001    0.0000    0.0000    0.0001    0.0000    0.0000    0.0000   -0.0005
    37 C4     1s         0.0000    0.0004    0.0000    0.0002   -0.0002    0.0408    0.9992    0.0001    0.0004    0.0004
    38 C4     2s         0.0001    0.0012    0.0001    0.0010   -0.0014    0.0009    0.0026    0.0005   -0.0004    0.0273
    39 C4     3s         0.0001   -0.0002    0.0002    0.0005   -0.0012    0.0003    0.0001    0.0004   -0.0003    0.0096
    40 C4     4s        -0.0000   -0.0003    0.0000    0.0001   -0.0004    0.0001    0.0014    0.0001   -0.0002    0.0033
    41 C4     2px       -0.0002    0.0030   -0.0004   -0.0006    0.0000   -0.0005   -0.0003   -0.0001    0.0003    0.0007
    42 C4     3px       -0.0002    0.0020   -0.0004   -0.0005   -0.0000   -0.0000   -0.0002   -0.0002    0.0000    0.0021
    43 C4     4px       -0.0000   -0.0004    0.0000    0.0000   -0.0000    0.0002    0.0001   -0.0000   -0.0002   -0.0005
    44 C4     2py       -0.0001   -0.0013    0.0002    0.0005   -0.0001    0.0001    0.0000    0.0001   -0.0002   -0.0019
    45 C4     3py       -0.0001   -0.0009    0.0001    0.0003   -0.0002    0.0003    0.0001    0.0001   -0.0003    0.0036
    46 C4     4py       -0.0000    0.0001   -0.0001   -0.0001   -0.0001    0.0002   -0.0000    0.0000   -0.0001    0.0012
    47 C4     2pz       -0.0002   -0.0001    0.0003   -0.0014   -0.0001    0.0015   -0.0007    0.0002    0.0003    0.0042
    48 C4     3pz       -0.0004    0.0000    0.0006   -0.0010   -0.0001    0.0013   -0.0004    0.0002    0.0009    0.0027
    49 C4     4pz       -0.0001    0.0001    0.0002    0.0001    0.0000    0.0000   -0.0004    0.0000    0.0005    0.0012
    50 C4     3d2-       0.0000    0.0000    0.0000    0.0001   -0.0000    0.0001   -0.0003   -0.0000   -0.0000   -0.0009
    51 C4     3d1-      -0.0000   -0.0001    0.0000    0.0001    0.0000    0.0000   -0.0002   -0.0000   -0.0000   -0.0008
    52 C4     3d0        0.0000    0.0001    0.0000   -0.0000    0.0000   -0.0000   -0.0001    0.0000    0.0001   -0.0002
    53 C4     3d1+      -0.0000   -0.0000    0.0000   -0.0002   -0.0000   -0.0001    0.0002    0.0000    0.0000   -0.0000
    54 C4     3d2+       0.0000   -0.0001   -0.0000   -0.0000   -0.0000   -0.0000    0.0003    0.0000    0.0000    0.0012
    55 C6     1s        -0.0001    0.0001   -0.0001    0.0003   -0.0001    0.0000   -0.0004    0.0000    0.9997    0.0020
    56 C6     2s        -0.0005    0.0009   -0.0009    0.0013   -0.0006   -0.0001   -0.0002    0.0000    0.0000    0.0168
    57 C6     3s        -0.0004    0.0006   -0.0006    0.0003   -0.0005   -0.0001   -0.0003    0.0001   -0.0016    0.0128
    58 C6     4s        -0.0001    0.0001   -0.0002   -0.0001   -0.0002   -0.0000   -0.0002    0.0000    0.0009    0.0038
    59 C6     2px       -0.0000    0.0001    0.0001   -0.0003   -0.0000   -0.0001   -0.0000   -0.0001   -0.0002   -0.0027
    60 C6     3px       -0.0000    0.0000    0.0001    0.0000    0.0000   -0.0001   -0.0001   -0.0000    0.0002   -0.0022
    61 C6     4px       -0.0000   -0.0000    0.0000    0.0001    0.0000    0.0000   -0.0001    0.0000   -0.0003   -0.0000
    62 C6     2py        0.0000    0.0000   -0.0002    0.0001   -0.0002   -0.0002    0.0002    0.0000    0.0001    0.0026
    63 C6     3py        0.0000    0.0001   -0.0002    0.0002   -0.0001   -0.0002    0.0002    0.0000   -0.0000    0.0022
    64 C6     4py       -0.0000    0.0000    0.0000    0.0001    0.0000   -0.0000    0.0001   -0.0000   -0.0000   -0.0003
    65 C6     2pz       -0.0002    0.0004   -0.0002    0.0004   -0.0003    0.0001   -0.0004    0.0000   -0.0001    0.0073
    66 C6     3pz       -0.0002    0.0004   -0.0002   -0.0002   -0.0003    0.0000   -0.0005    0.0001   -0.0002    0.0069
    67 C6     4pz        0.0000   -0.0000   -0.0000   -0.0002   -0.0000   -0.0001   -0.0001    0.0000    0.0006    0.0008
    68 C6     3d2-       0.0000   -0.0000    0.0000    0.0001    0.0000   -0.0000   -0.0000    0.0000    0.0000   -0.0000
    69 C6     3d1-       0.0000   -0.0000   -0.0000   -0.0000    0.0000    0.0000   -0.0001   -0.0000   -0.0000   -0.0001
    70 C6     3d0       -0.0000    0.0000   -0.0000   -0.0000    0.0000    0.0000    0.0001   -0.0000   -0.0000    0.0002
    71 C6     3d1+       0.0000   -0.0000    0.0000    0.0001    0.0000   -0.0000    0.0000   -0.0000    0.0001   -0.0004
    72 C6     3d2+      -0.0000    0.0000    0.0000   -0.0001    0.0000    0.0000   -0.0000   -0.0000   -0.0001   -0.0001
    73 C19    1s         0.0002   -0.0001   -0.0000    0.0000    0.0036    0.0002    0.0000   -1.0000   -0.0000   -0.0146
    74 C19    2s         0.0012   -0.0004   -0.0002    0.0000    0.0007    0.0009    0.0002   -0.0020   -0.0001   -0.0128
    75 C19    3s         0.0007   -0.0004   -0.0000   -0.0001    0.0004    0.0005    0.0001    0.0004   -0.0002   -0.0398
    76 C19    4s         0.0001   -0.0001   -0.0000   -0.0001    0.0002    0.0000    0.0000   -0.0013   -0.0001   -0.0039
    77 C19    2px        0.0008   -0.0001   -0.0004    0.0001   -0.0001    0.0002    0.0001    0.0001   -0.0000   -0.0096
    78 C19    3px        0.0005   -0.0001   -0.0003    0.0001   -0.0003    0.0002    0.0002    0.0001   -0.0000   -0.0073
    79 C19    4px       -0.0002    0.0000   -0.0000    0.0000   -0.0000   -0.0000    0.0000   -0.0002    0.0000    0.0078
    80 C19    2py       -0.0001   -0.0002    0.0003   -0.0002    0.0005    0.0003   -0.0000    0.0002   -0.0001    0.0209
    81 C19    3py       -0.0002   -0.0001    0.0003   -0.0002    0.0000    0.0001   -0.0001    0.0000   -0.0001   -0.0064
    82 C19    4py       -0.0002    0.0000   -0.0001   -0.0000   -0.0001   -0.0001   -0.0000   -0.0004   -0.0000    0.0054
    83 C19    2pz       -0.0001   -0.0000    0.0000   -0.0001    0.0000    0.0000   -0.0000   -0.0001   -0.0001   -0.0033
    84 C19    3pz       -0.0000    0.0000    0.0000   -0.0001    0.0001    0.0001   -0.0000   -0.0000   -0.0001   -0.0004
    85 C19    4pz        0.0000    0.0000    0.0000   -0.0000    0.0000    0.0000    0.0000    0.0000    0.0000   -0.0005
    86 C19    3d2-       0.0001   -0.0000   -0.0000   -0.0000    0.0000    0.0001    0.0000    0.0001    0.0000    0.0008
    87 C19    3d1-       0.0000    0.0000   -0.0000    0.0000    0.0000   -0.0000   -0.0000   -0.0000    0.0000   -0.0005
    88 C19    3d0       -0.0001    0.0000   -0.0001   -0.0000    0.0001   -0.0000   -0.0000   -0.0001    0.0000    0.0014
    89 C19    3d1+       0.0000    0.0000    0.0000    0.0000   -0.0000   -0.0000   -0.0000   -0.0000    0.0000    0.0001
    90 C19    3d2+       0.0001    0.0000   -0.0000    0.0000   -0.0001   -0.0000   -0.0000   -0.0001    0.0000   -0.0070
    91 N2     1s         0.0001    0.0000    0.9998   -0.0000   -0.0003    0.0001    0.0001   -0.0001    0.0000   -0.0173
    92 N2     2s         0.0004    0.0001    0.0001   -0.0003   -0.0004    0.0015    0.0007   -0.0006    0.0001    0.1169
    93 N2     3s         0.0003    0.0001   -0.0014   -0.0002   -0.0005    0.0007    0.0007   -0.0004    0.0001   -0.0451
    94 N2     4s         0.0001    0.0000    0.0004   -0.0000   -0.0000    0.0002    0.0002   -0.0001    0.0000   -0.0107
    95 N2     2px        0.0001   -0.0005    0.0003   -0.0005   -0.0002    0.0009    0.0002    0.0004   -0.0001   -0.0292
    96 N2     3px        0.0001   -0.0007    0.0002   -0.0006   -0.0000    0.0006    0.0002    0.0003   -0.0001    0.0184
    97 N2     4px       -0.0000   -0.0001   -0.0002    0.0000   -0.0002   -0.0000   -0.0001   -0.0001   -0.0000   -0.0055
    98 N2     2py       -0.0016   -0.0002   -0.0008   -0.0001    0.0003    0.0009    0.0004    0.0002   -0.0001    0.0362
    99 N2     3py       -0.0019   -0.0003   -0.0001   -0.0002    0.0004    0.0009    0.0004    0.0002   -0.0002    0.0132
   100 N2     4py       -0.0000   -0.0000    0.0004   -0.0000   -0.0000    0.0002   -0.0000   -0.0001   -0.0000   -0.0063
   101 N2     2pz        0.0002    0.0002    0.0003    0.0001    0.0002   -0.0001    0.0001   -0.0000    0.0001   -0.0007
   102 N2     3pz        0.0003    0.0003    0.0001    0.0001    0.0001   -0.0002    0.0000   -0.0000    0.0001   -0.0038
   103 N2     4pz        0.0000    0.0001   -0.0000    0.0000   -0.0000   -0.0001    0.0001   -0.0000    0.0000   -0.0001
   104 N2     3d2-       0.0001   -0.0000   -0.0002   -0.0000   -0.0001   -0.0000    0.0000    0.0000   -0.0000   -0.0029
   105 N2     3d1-      -0.0000    0.0000   -0.0000    0.0000    0.0000   -0.0000   -0.0000    0.0000    0.0000    0.0001
   106 N2     3d0       -0.0000    0.0000   -0.0000    0.0000    0.0001    0.0001   -0.0000    0.0001   -0.0000   -0.0026
   107 N2     3d1+      -0.0000    0.0000    0.0000    0.0000    0.0000   -0.0000   -0.0000   -0.0000    0.0000    0.0004
   108 N2     3d2+      -0.0000   -0.0000   -0.0000   -0.0000    0.0001   -0.0000    0.0000   -0.0000   -0.0000    0.0046
   109 N5     1s         0.0000    0.0001   -0.0000    0.9999    0.0001    0.0000   -0.0002   -0.0000    0.0001   -0.0016
   110 N5     2s         0.0003    0.0007   -0.0003    0.0006    0.0004    0.0003   -0.0001   -0.0002    0.0017   -0.0002
   111 N5     3s         0.0002    0.0005   -0.0003   -0.0010    0.0002    0.0002   -0.0002   -0.0001    0.0010   -0.0049
   112 N5     4s         0.0000    0.0001   -0.0001    0.0006    0.0000    0.0000    0.0000   -0.0000    0.0004   -0.0009
   113 N5     2px        0.0001   -0.0015    0.0004   -0.0010    0.0003    0.0003    0.0002    0.0000    0.0003   -0.0074
   114 N5     3px        0.0002   -0.0017    0.0006   -0.0005    0.0006    0.0004    0.0001    0.0000    0.0005   -0.0118
   115 N5     4px        0.0001   -0.0000    0.0001    0.0003    0.0001    0.0001    0.0000   -0.0000    0.0002   -0.0022
   116 N5     2py        0.0000    0.0003    0.0002    0.0002    0.0002   -0.0001   -0.0003   -0.0001    0.0001   -0.0054
   117 N5     3py        0.0000    0.0004    0.0003    0.0001    0.0004   -0.0000   -0.0001   -0.0001   -0.0000   -0.0059
   118 N5     4py        0.0000    0.0000    0.0000   -0.0003    0.0001    0.0000   -0.0001   -0.0000   -0.0001   -0.0016
   119 N5     2pz       -0.0001    0.0008   -0.0008    0.0002   -0.0004   -0.0000   -0.0001    0.0000   -0.0009    0.0121
   120 N5     3pz       -0.0002    0.0011   -0.0011    0.0001   -0.0007   -0.0003   -0.0001    0.0001   -0.0007    0.0187
   121 N5     4pz       -0.0000    0.0000   -0.0001   -0.0001   -0.0001   -0.0002    0.0003    0.0000   -0.0001    0.0037
   122 N5     3d2-      -0.0000    0.0000    0.0000   -0.0000    0.0000   -0.0000    0.0000    0.0000    0.0000   -0.0001
   123 N5     3d1-      -0.0000   -0.0000    0.0000    0.0000    0.0000   -0.0000    0.0000    0.0000    0.0000   -0.0003
   124 N5     3d0       -0.0000    0.0001   -0.0000   -0.0002   -0.0000    0.0000   -0.0001    0.0000   -0.0001    0.0002
   125 N5     3d1+      -0.0000   -0.0001   -0.0000    0.0001   -0.0000    0.0000    0.0001   -0.0000    0.0000    0.0000
   126 N5     3d2+       0.0000    0.0000   -0.0000    0.0000    0.0000    0.0000   -0.0001   -0.0000   -0.0000   -0.0001
   127 O7     1s         0.9997   -0.0000    0.0000    0.0000   -0.0002   -0.0000    0.0000   -0.0001    0.0000   -0.0239
   128 O7     2s        -0.0015   -0.0001    0.0003    0.0000    0.0004   -0.0001    0.0001   -0.0004    0.0000    0.6927
   129 O7     3s        -0.0014   -0.0001    0.0002   -0.0000   -0.0001   -0.0001    0.0001   -0.0003    0.0000   -0.0336
   130 O7     4s         0.0000   -0.0000    0.0000   -0.0000   -0.0000    0.0000    0.0000   -0.0001    0.0000   -0.0137
   131 O7     2px        0.0001   -0.0001   -0.0003    0.0001    0.0003   -0.0002    0.0001   -0.0001    0.0001    0.0863
   132 O7     3px       -0.0003   -0.0001   -0.0004    0.0001   -0.0001   -0.0001    0.0001   -0.0001    0.0001   -0.0253
   133 O7     4px        0.0008   -0.0000   -0.0001    0.0000    0.0001   -0.0000    0.0000    0.0000    0.0000   -0.0016
   134 O7     2py       -0.0002    0.0000   -0.0003    0.0000   -0.0007   -0.0001    0.0000    0.0002    0.0000   -0.1178
   135 O7     3py        0.0005    0.0000   -0.0002    0.0001   -0.0005   -0.0001    0.0001    0.0001    0.0000    0.0378
   136 O7     4py       -0.0011   -0.0000    0.0001    0.0000   -0.0003   -0.0001    0.0000   -0.0000    0.0000    0.0003
   137 O7     2pz        0.0000    0.0001    0.0001   -0.0000    0.0002   -0.0000    0.0000   -0.0000   -0.0000    0.0236
   138 O7     3pz       -0.0001    0.0001    0.0000    0.0000    0.0001    0.0000   -0.0000   -0.0000   -0.0001   -0.0049
   139 O7     4pz        0.0001    0.0000   -0.0000    0.0000    0.0000    0.0000   -0.0000    0.0000   -0.0000   -0.0001
   140 O7     3d2-       0.0001    0.0000    0.0000    0.0000   -0.0002    0.0000   -0.0000    0.0000   -0.0000   -0.0177
   141 O7     3d1-       0.0000   -0.0000   -0.0000    0.0000   -0.0000    0.0000    0.0000    0.0000   -0.0000   -0.0037
   142 O7     3d0       -0.0000    0.0000   -0.0001   -0.0000   -0.0001   -0.0000    0.0000    0.0000    0.0000   -0.0102
   143 O7     3d1+      -0.0000    0.0000    0.0000    0.0000    0.0000   -0.0000    0.0000   -0.0000   -0.0000    0.0026
   144 O7     3d2+       0.0000   -0.0000   -0.0001    0.0000   -0.0001   -0.0000    0.0000    0.0000    0.0000   -0.0066
   145 O8     1s         0.0000    0.9997    0.0000    0.0000    0.0000    0.0000   -0.0002   -0.0000   -0.0000   -0.0012
   146 O8     2s         0.0000   -0.0015    0.0002    0.0002    0.0002    0.0002    0.0006   -0.0000   -0.0003    0.0085
   147 O8     3s        -0.0000   -0.0015    0.0001    0.0001    0.0002    0.0002    0.0001   -0.0000   -0.0002   -0.0033
   148 O8     4s        -0.0000    0.0000   -0.0000    0.0000    0.0001    0.0000    0.0000   -0.0000   -0.0000   -0.0009
   149 O8     2px        0.0000   -0.0002    0.0000   -0.0000   -0.0001   -0.0001   -0.0008    0.0000    0.0001   -0.0026
   150 O8     3px        0.0000    0.0005    0.0001    0.0001   -0.0001   -0.0001   -0.0002    0.0001    0.0000    0.0020
   151 O8     4px        0.0000   -0.0013    0.0001    0.0001   -0.0000    0.0000   -0.0002    0.0000   -0.0000   -0.0001
   152 O8     2py        0.0000    0.0001    0.0000   -0.0000    0.0000    0.0000    0.0002   -0.0000   -0.0000   -0.0022
   153 O8     3py        0.0000   -0.0002    0.0000   -0.0001    0.0000   -0.0000    0.0001   -0.0000   -0.0000   -0.0012
   154 O8     4py        0.0000    0.0005   -0.0000   -0.0000    0.0000   -0.0000    0.0001    0.0000    0.0000    0.0000
   155 O8     2pz        0.0000   -0.0000   -0.0001    0.0003   -0.0000   -0.0001   -0.0002   -0.0000    0.0001    0.0007
   156 O8     3pz        0.0001   -0.0000   -0.0002    0.0003   -0.0001   -0.0002    0.0001    0.0000    0.0000    0.0009
   157 O8     4pz        0.0000   -0.0001   -0.0001    0.0000   -0.0000   -0.0001    0.0001    0.0000   -0.0000    0.0003
   158 O8     3d2-       0.0000    0.0000   -0.0000   -0.0000    0.0000   -0.0000   -0.0001    0.0000    0.0000   -0.0001
   159 O8     3d1-      -0.0000   -0.0000    0.0000    0.0000    0.0000   -0.0000    0.0000    0.0000    0.0000    0.0000
   160 O8     3d0        0.0000    0.0001   -0.0000    0.0000   -0.0000    0.0000   -0.0002    0.0000    0.0000   -0.0002
   161 O8     3d1+       0.0000   -0.0000    0.0000   -0.0001   -0.0000   -0.0000    0.0001   -0.0000   -0.0000   -0.0001
   162 O8     3d2+       0.0000   -0.0000   -0.0000    0.0000   -0.0000    0.0000    0.0002   -0.0000    0.0000    0.0003
   163 H9     1s         0.0002    0.0001    0.0001    0.0000    0.0001   -0.0002   -0.0001   -0.0003   -0.0000    0.0147
   164 H9     2s         0.0001    0.0001    0.0000    0.0000    0.0001   -0.0001   -0.0001    0.0003   -0.0000    0.0041
   165 H9     2px       -0.0000    0.0000    0.0000   -0.0000    0.0000   -0.0000   -0.0000    0.0000   -0.0000    0.0010
   166 H9     2py       -0.0001    0.0000   -0.0000   -0.0000    0.0001   -0.0000   -0.0000   -0.0000   -0.0000    0.0011
   167 H9     2pz       -0.0000    0.0000    0.0000    0.0000   -0.0000    0.0000    0.0000   -0.0001    0.0000   -0.0008
   168 H10    1s         0.0001   -0.0002    0.0002   -0.0002    0.0002   -0.0001   -0.0001   -0.0003   -0.0002    0.0143
   169 H10    2s         0.0000   -0.0001    0.0001   -0.0001    0.0001   -0.0001   -0.0001    0.0003   -0.0001    0.0029
   170 H10    2px       -0.0000   -0.0000    0.0000   -0.0000    0.0001   -0.0000   -0.0000    0.0000   -0.0000    0.0009
   171 H10    2py       -0.0001   -0.0000   -0.0000    0.0000    0.0001   -0.0000   -0.0000   -0.0000   -0.0000    0.0012
   172 H10    2pz        0.0000   -0.0000   -0.0000   -0.0000    0.0000   -0.0000   -0.0000    0.0001   -0.0000    0.0005
   173 H11    1s        -0.0004   -0.0001    0.0004   -0.0003    0.0004   -0.0000   -0.0001   -0.0003   -0.0001    0.0203
   174 H11    2s        -0.0002   -0.0001    0.0004   -0.0002    0.0002   -0.0000   -0.0001    0.0002   -0.0001    0.0057
   175 H11    2px       -0.0000    0.0000   -0.0001    0.0000   -0.0000    0.0000    0.0000   -0.0001    0.0000   -0.0002
   176 H11    2py       -0.0000   -0.0000    0.0000   -0.0000    0.0001    0.0000    0.0000    0.0000   -0.0000    0.0020
   177 H11    2pz       -0.0000   -0.0000   -0.0000    0.0000   -0.0000   -0.0000    0.0000    0.0000    0.0000    0.0001
   178 H12    1s        -0.0011   -0.0000   -0.0009    0.0005    0.0002   -0.0002   -0.0000    0.0004   -0.0001    0.0364
   179 H12    2s        -0.0006   -0.0000   -0.0006    0.0003    0.0000   -0.0001    0.0000    0.0002   -0.0001   -0.0026
   180 H12    2px        0.0000    0.0000    0.0003    0.0000   -0.0001    0.0000   -0.0001   -0.0000    0.0000   -0.0041
   181 H12    2py       -0.0000   -0.0000   -0.0005    0.0001    0.0000    0.0000   -0.0000    0.0000   -0.0000    0.0046
   182 H12    2pz       -0.0000    0.0000    0.0001   -0.0000   -0.0000    0.0000    0.0000   -0.0000   -0.0000   -0.0003
   183 H13    1s         0.0001   -0.0000   -0.0004    0.0003   -0.0003    0.0007   -0.0002   -0.0001   -0.0002    0.0138
   184 H13    2s         0.0002    0.0000   -0.0002    0.0002   -0.0001   -0.0000   -0.0001   -0.0001   -0.0002   -0.0030
   185 H13    2px        0.0000    0.0001    0.0000    0.0000   -0.0000    0.0000    0.0000    0.0000   -0.0000   -0.0005
   186 H13    2py       -0.0000   -0.0000   -0.0000   -0.0000    0.0000   -0.0001   -0.0000    0.0000    0.0000   -0.0013
   187 H13    2pz       -0.0000    0.0000    0.0000    0.0001    0.0000   -0.0000   -0.0000    0.0000   -0.0000   -0.0001
   188 H14    1s         0.0005    0.0001    0.0001   -0.0003    0.0002    0.0013   -0.0001    0.0002    0.0001    0.0023
   189 H14    2s         0.0003    0.0001    0.0002   -0.0001    0.0001    0.0004   -0.0000    0.0001    0.0001   -0.0029
   190 H14    2px       -0.0000   -0.0001   -0.0000    0.0000   -0.0000   -0.0000    0.0000    0.0000   -0.0000   -0.0002
   191 H14    2py       -0.0000   -0.0000    0.0000    0.0001   -0.0000   -0.0001   -0.0000   -0.0000   -0.0000   -0.0003
   192 H14    2pz       -0.0000    0.0000   -0.0000   -0.0000   -0.0000   -0.0000   -0.0001   -0.0000    0.0000   -0.0005
   193 H15    1s        -0.0002   -0.0014    0.0003   -0.0010   -0.0002    0.0002    0.0002    0.0000   -0.0002   -0.0011
   194 H15    2s        -0.0001   -0.0008    0.0001   -0.0007   -0.0001    0.0002    0.0000    0.0000   -0.0001   -0.0021
   195 H15    2px       -0.0000   -0.0001    0.0000   -0.0005   -0.0000    0.0000    0.0001    0.0000   -0.0000    0.0005
   196 H15    2py        0.0000    0.0000    0.0000    0.0001    0.0000   -0.0000   -0.0001    0.0000    0.0000   -0.0006
   197 H15    2pz       -0.0000   -0.0000   -0.0000    0.0000   -0.0000    0.0000    0.0001   -0.0000   -0.0000   -0.0001
   198 H16    1s        -0.0001    0.0004   -0.0001   -0.0004   -0.0002   -0.0001   -0.0003    0.0000    0.0005    0.0040
   199 H16    2s        -0.0000    0.0003   -0.0000   -0.0002   -0.0001   -0.0001   -0.0003    0.0000   -0.0001    0.0030
   200 H16    2px       -0.0000    0.0000   -0.0000    0.0000   -0.0000    0.0000   -0.0000    0.0000   -0.0000    0.0004
   201 H16    2py       -0.0000    0.0000    0.0000   -0.0000   -0.0000    0.0000   -0.0000    0.0000   -0.0000    0.0002
   202 H16    2pz        0.0000    0.0000   -0.0000   -0.0001   -0.0000   -0.0000   -0.0001   -0.0000    0.0000    0.0002
   203 H17    1s        -0.0000    0.0002    0.0001   -0.0005   -0.0000    0.0002   -0.0003    0.0000    0.0005    0.0021
   204 H17    2s        -0.0000    0.0001    0.0001   -0.0003   -0.0001    0.0001   -0.0003    0.0000   -0.0001    0.0018
   205 H17    2px        0.0000   -0.0000    0.0000    0.0000    0.0000    0.0000    0.0000   -0.0000   -0.0000   -0.0002
   206 H17    2py        0.0000   -0.0000   -0.0000    0.0000   -0.0000   -0.0000    0.0001   -0.0000    0.0000   -0.0001
   207 H17    2pz        0.0000    0.0000   -0.0000   -0.0000   -0.0000    0.0000   -0.0000    0.0000    0.0000    0.0001
   208 H18    1s         0.0001   -0.0000   -0.0001   -0.0001   -0.0001    0.0001    0.0000    0.0001    0.0010    0.0041
   209 H18    2s         0.0000    0.0000   -0.0000   -0.0000   -0.0001    0.0001    0.0001    0.0001    0.0001    0.0026
   210 H18    2px       -0.0000   -0.0000    0.0000   -0.0000    0.0000   -0.0000    0.0000   -0.0000   -0.0001   -0.0005
   211 H18    2py        0.0000   -0.0000    0.0000   -0.0000    0.0000    0.0000   -0.0000    0.0000    0.0000   -0.0001
   212 H18    2pz        0.0000   -0.0000    0.0000   -0.0000   -0.0000    0.0000    0.0000    0.0000    0.0000   -0.0001
 
 
      Orbital                11        12        13        14        15        16        17        18        19        20
      Energy            -1.3519   -1.2594   -1.2065   -1.0333   -0.9711   -0.9135   -0.8225   -0.7720   -0.7188   -0.6983
      Occ. No.           2.0000    2.0000    2.0000    2.0000    2.0000    2.0000    2.0000    2.0000    2.0000    2.0000
 
     1 C1     1s         0.0047   -0.0061    0.0048   -0.0172   -0.0045    0.0081    0.0137    0.0001    0.0067    0.0027
     2 C1     2s         0.0259    0.1496   -0.0034    0.2695   -0.0324   -0.0731   -0.3884   -0.0776   -0.2534   -0.0566
     3 C1     3s         0.0249    0.0133    0.0194   -0.0217   -0.0173    0.0195    0.0035   -0.0088    0.0084    0.0166
     4 C1     4s         0.0070    0.0036    0.0056   -0.0055   -0.0051    0.0061    0.0027   -0.0015    0.0042    0.0027
     5 C1     2px        0.0340    0.1490    0.0015   -0.0125    0.1135   -0.0816   -0.1281   -0.0088    0.1830    0.2473
     6 C1     3px        0.0218   -0.0428    0.0327   -0.0345   -0.0248    0.0361    0.0329   -0.0193   -0.0749   -0.0560
     7 C1     4px        0.0071    0.0260    0.0021   -0.0077    0.0143   -0.0057   -0.0075   -0.0029    0.0070    0.0164
     8 C1     2py        0.0124   -0.0350    0.0291   -0.1580    0.0488    0.0074   -0.0529    0.0374    0.0565   -0.1571
     9 C1     3py        0.0271    0.0465    0.0263    0.0210   -0.0506    0.0322    0.0132    0.0058   -0.0137    0.0627
    10 C1     4py        0.0012   -0.0071    0.0068   -0.0243    0.0058    0.0011   -0.0052    0.0042   -0.0040   -0.0086
    11 C1     2pz        0.0034    0.0095   -0.0058    0.0203   -0.0016   -0.0031   -0.0045   -0.0048    0.0054    0.0148
    12 C1     3pz        0.0026   -0.0114   -0.0056   -0.0017    0.0012   -0.0018   -0.0055   -0.0067    0.0027   -0.0076
    13 C1     4pz        0.0005    0.0006   -0.0028    0.0030   -0.0006   -0.0000   -0.0006   -0.0011    0.0027    0.0002
    14 C1     3d2-       0.0022    0.0138   -0.0010    0.0086   -0.0103    0.0060   -0.0131    0.0072    0.0174    0.0051
    15 C1     3d1-       0.0001    0.0018   -0.0002   -0.0019    0.0015   -0.0003    0.0009    0.0005    0.0034    0.0023
    16 C1     3d0       -0.0001   -0.0067    0.0010   -0.0114   -0.0015    0.0044    0.0137    0.0020    0.0054    0.0018
    17 C1     3d1+      -0.0000    0.0002    0.0000   -0.0003    0.0024   -0.0004    0.0003    0.0004   -0.0002   -0.0022
    18 C1     3d2+       0.0026    0.0278   -0.0034    0.0011    0.0156   -0.0114   -0.0107    0.0004    0.0177    0.0162
    19 C3     1s        -0.0163   -0.0283   -0.0023    0.0306    0.0279   -0.0188    0.0055   -0.0037    0.0025    0.0001
    20 C3     2s         0.0190    0.1735    0.0029   -0.2823   -0.2966    0.3109   -0.1130    0.0629   -0.0505    0.0419
    21 C3     3s        -0.0460   -0.0493   -0.0102    0.0509    0.0420   -0.0103    0.0065   -0.0029    0.0102   -0.0009
    22 C3     4s        -0.0074   -0.0117   -0.0008    0.0151    0.0111   -0.0046    0.0030   -0.0018    0.0038   -0.0020
    23 C3     2px        0.0368   -0.0474    0.0211   -0.0096   -0.0368    0.0406    0.0564   -0.1087   -0.2622    0.1114
    24 C3     3px        0.0194    0.0189    0.0269   -0.0256    0.0189    0.0501   -0.0083    0.0214    0.0212   -0.0165
    25 C3     4px        0.0049   -0.0019    0.0081   -0.0064   -0.0012    0.0072    0.0024   -0.0064   -0.0068    0.0038
    26 C3     2py       -0.0102   -0.0835    0.0270    0.0037   -0.0349   -0.0206   -0.1322   -0.0303   -0.0377    0.2126
    27 C3     3py        0.0068    0.0170    0.0082   -0.0362    0.0119   -0.0020    0.0041   -0.0020    0.0139   -0.0335
    28 C3     4py        0.0036   -0.0031    0.0030   -0.0102   -0.0076    0.0070   -0.0092    0.0031   -0.0013    0.0083
    29 C3     2pz        0.0064    0.0228   -0.0208    0.0123    0.0326    0.0726    0.0027    0.1163    0.0222   -0.0922
    30 C3     3pz        0.0271    0.0393    0.0065   -0.0178   -0.0352    0.0352   -0.0109   -0.0167   -0.0143    0.0110
    31 C3     4pz       -0.0062    0.0115   -0.0007   -0.0105   -0.0097    0.0174   -0.0025    0.0054   -0.0040    0.0001
    32 C3     3d2-       0.0027    0.0182   -0.0003   -0.0037    0.0055   -0.0003    0.0052    0.0033    0.0127   -0.0202
    33 C3     3d1-       0.0036   -0.0011   -0.0019    0.0004    0.0005    0.0008   -0.0005   -0.0010   -0.0012    0.0011
    34 C3     3d0       -0.0020   -0.0083    0.0057    0.0016   -0.0090   -0.0036   -0.0003   -0.0131   -0.0195    0.0139
    35 C3     3d1+      -0.0042   -0.0016   -0.0002    0.0036    0.0073    0.0034   -0.0006    0.0114    0.0048   -0.0075
    36 C3     3d2+       0.0018   -0.0092   -0.0018    0.0016   -0.0049   -0.0002   -0.0179   -0.0020   -0.0050    0.0180
    37 C4     1s        -0.0405    0.0050   -0.0057    0.0091    0.0127    0.0089    0.0007    0.0167    0.0015   -0.0021
    38 C4     2s         0.3613    0.0253    0.1116   -0.0745   -0.2279   -0.0797   -0.0224   -0.4080   -0.0437    0.0871
    39 C4     3s        -0.0105    0.0164    0.0050    0.0267    0.0062    0.0161    0.0015    0.0106    0.0023    0.0014
    40 C4     4s         0.0009    0.0042    0.0012    0.0082    0.0029    0.0050    0.0011    0.0057    0.0020   -0.0017
    41 C4     2px        0.0915   -0.0440   -0.0976    0.0475    0.1186    0.0480    0.0043    0.0554    0.0321   -0.0467
    42 C4     3px       -0.0534    0.0259    0.0613   -0.0383   -0.0166    0.0251   -0.0086   -0.0240   -0.0081    0.0106
    43 C4     4px        0.0269   -0.0060   -0.0143    0.0023    0.0131    0.0098   -0.0003   -0.0010   -0.0018    0.0005
    44 C4     2py       -0.0322   -0.0046    0.0784    0.0015   -0.0300   -0.0370   -0.0164   -0.0472    0.0317    0.0007
    45 C4     3py        0.0344   -0.0152   -0.0114    0.0072    0.0068    0.0231   -0.0104    0.0013   -0.0139    0.0050
    46 C4     4py       -0.0066   -0.0005    0.0158    0.0011   -0.0039   -0.0023   -0.0058   -0.0040    0.0023    0.0006
    47 C4     2pz       -0.0346    0.0021   -0.1359   -0.0349   -0.0638    0.0453   -0.0060    0.0822   -0.1748    0.1320
    48 C4     3pz       -0.0174   -0.0241   -0.0386    0.0333   -0.0185   -0.1340    0.0236   -0.0088    0.0665   -0.0532
    49 C4     4pz       -0.0083   -0.0026   -0.0309   -0.0038   -0.0110   -0.0091    0.0023    0.0076   -0.0066    0.0027
    50 C4     3d2-      -0.0285    0.0051    0.0031   -0.0013    0.0029    0.0082    0.0020    0.0010   -0.0005   -0.0049
    51 C4     3d1-      -0.0063   -0.0031   -0.0136    0.0011    0.0048    0.0092   -0.0032    0.0101   -0.0050    0.0074
    52 C4     3d0       -0.0148    0.0060    0.0214   -0.0050   -0.0086   -0.0006    0.0011   -0.0191    0.0020   -0.0050
    53 C4     3d1+       0.0040   -0.0028    0.0136    0.0072    0.0036   -0.0194    0.0042    0.0026    0.0075   -0.0065
    54 C4     3d2+       0.0276   -0.0024   -0.0092   -0.0017   -0.0037   -0.0004   -0.0027   -0.0007   -0.0013    0.0049
    55 C6     1s        -0.0091    0.0044   -0.0344   -0.0145   -0.0343   -0.0440    0.0042    0.0090    0.0022   -0.0059
    56 C6     2s         0.0320    0.0380    0.1622    0.0568    0.2254    0.3962   -0.0385   -0.1068   -0.0261    0.0399
    57 C6     3s        -0.0132    0.0255   -0.0596   -0.0303   -0.0651   -0.0692    0.0100    0.0198    0.0047   -0.0170
    58 C6     4s        -0.0005    0.0071   -0.0100   -0.0056   -0.0141   -0.0143    0.0028    0.0055    0.0012   -0.0044
    59 C6     2px       -0.0058   -0.0095   -0.0483   -0.0106   -0.0112    0.0059   -0.0156   -0.1445    0.0571   -0.0085
    60 C6     3px        0.0018   -0.0073    0.0075    0.0020    0.0060   -0.0063   -0.0005    0.0065   -0.0029   -0.0017
    61 C6     4px       -0.0016   -0.0006   -0.0028    0.0018    0.0048    0.0082   -0.0013   -0.0098    0.0034   -0.0006
    62 C6     2py       -0.0061    0.0080   -0.0059    0.0029    0.0027    0.0135   -0.0020    0.0462   -0.0409    0.0403
    63 C6     3py       -0.0036    0.0072    0.0011    0.0031    0.0051    0.0107   -0.0006    0.0000    0.0035   -0.0034
    64 C6     4py       -0.0009   -0.0004    0.0010   -0.0005    0.0022    0.0017   -0.0002    0.0031   -0.0025    0.0021
    65 C6     2pz        0.0250    0.0146    0.0946    0.0168    0.0113   -0.0343    0.0212    0.0456    0.0695   -0.1255
    66 C6     3pz       -0.0035    0.0125   -0.0200   -0.0057   -0.0226   -0.0079    0.0006   -0.0035   -0.0095    0.0167
    67 C6     4pz        0.0031    0.0015   -0.0007   -0.0020   -0.0128   -0.0193    0.0029    0.0065    0.0035   -0.0057
    68 C6     3d2-       0.0001    0.0002    0.0011   -0.0003   -0.0012   -0.0016    0.0003    0.0017   -0.0020    0.0017
    69 C6     3d1-      -0.0010    0.0000   -0.0009   -0.0005   -0.0003    0.0003    0.0002    0.0058   -0.0039    0.0029
    70 C6     3d0        0.0039    0.0004    0.0155    0.0029    0.0036   -0.0026    0.0021    0.0013    0.0069   -0.0115
    71 C6     3d1+      -0.0036   -0.0012   -0.0177   -0.0035   -0.0048    0.0012   -0.0025   -0.0175    0.0009    0.0064
    72 C6     3d2+       0.0012   -0.0003    0.0047    0.0011    0.0027    0.0008    0.0007    0.0034    0.0022   -0.0043
    73 C19    1s         0.0011   -0.0100    0.0029   -0.0590    0.0409   -0.0175   -0.0130   -0.0039   -0.0094    0.0022
    74 C19    2s         0.0092    0.0017    0.0047    0.3147   -0.2732    0.1349    0.0753    0.0446    0.0952   -0.0034
    75 C19    3s         0.0100   -0.0277    0.0147   -0.1165    0.0746   -0.0295   -0.0343   -0.0073   -0.0176    0.0115
    76 C19    4s         0.0038   -0.0034    0.0047   -0.0247    0.0169   -0.0068   -0.0092   -0.0024   -0.0053    0.0032
    77 C19    2px        0.0033    0.0251   -0.0014    0.0546    0.0051   -0.0253   -0.0446   -0.0293   -0.0597    0.1355
    78 C19    3px        0.0005   -0.0008    0.0020    0.0025    0.0038   -0.0012    0.0022    0.0061    0.0133   -0.0136
    79 C19    4px       -0.0010    0.0005   -0.0005   -0.0088    0.0123   -0.0078   -0.0020   -0.0031   -0.0059    0.0033
    80 C19    2py        0.0075    0.0078    0.0054    0.0488   -0.0065   -0.0141   -0.0638   -0.0487   -0.2251   -0.0495
    81 C19    3py        0.0083   -0.0032    0.0089   -0.0299    0.0172    0.0004    0.0129   -0.0012    0.0247    0.0108
    82 C19    4py        0.0002    0.0009    0.0004   -0.0131    0.0144   -0.0079   -0.0125   -0.0033   -0.0087   -0.0013
    83 C19    2pz        0.0023   -0.0021    0.0012   -0.0064    0.0034    0.0008    0.0064    0.0060    0.0252    0.0021
    84 C19    3pz        0.0019   -0.0016    0.0014    0.0000    0.0007   -0.0012    0.0008    0.0003   -0.0046   -0.0010
    85 C19    4pz       -0.0002   -0.0000    0.0002    0.0012   -0.0013    0.0002    0.0017    0.0009    0.0005    0.0002
    86 C19    3d2-       0.0006    0.0060   -0.0010    0.0111   -0.0016   -0.0024   -0.0078   -0.0040   -0.0152   -0.0002
    87 C19    3d1-      -0.0001    0.0004   -0.0002   -0.0019    0.0010   -0.0001    0.0007    0.0009    0.0033   -0.0005
    88 C19    3d0       -0.0002   -0.0010    0.0002   -0.0090    0.0031    0.0007    0.0034    0.0031    0.0083   -0.0087
    89 C19    3d1+      -0.0004   -0.0004   -0.0001   -0.0010   -0.0000    0.0003    0.0010    0.0004    0.0009   -0.0010
    90 C19    3d2+       0.0002    0.0023   -0.0003   -0.0073    0.0044   -0.0009    0.0033    0.0029    0.0145    0.0042
    91 N2     1s        -0.0041   -0.0401    0.0052   -0.0044   -0.0052    0.0019   -0.0052    0.0013    0.0031   -0.0013
    92 N2     2s         0.0571    0.5920   -0.0661   -0.0438    0.2072   -0.0855    0.1436    0.0227    0.1272   -0.0650
    93 N2     3s        -0.0052   -0.0727    0.0129   -0.0147   -0.0018    0.0009   -0.0116    0.0037    0.0145   -0.0042
    94 N2     4s        -0.0016   -0.0240    0.0040   -0.0017   -0.0029    0.0014   -0.0040   -0.0001    0.0009   -0.0003
    95 N2     2px        0.0224   -0.0307    0.0207   -0.1496   -0.0720    0.1190    0.3614    0.0051   -0.1215   -0.2742
    96 N2     3px        0.0231   -0.0057    0.0167    0.0111    0.0336   -0.0489   -0.1107   -0.0273    0.0130    0.0587
    97 N2     4px        0.0045    0.0026    0.0019   -0.0076    0.0061   -0.0029    0.0015   -0.0036   -0.0008    0.0064
    98 N2     2py        0.0047   -0.0078    0.0077   -0.1150   -0.0638    0.1081   -0.2197    0.1313    0.2621   -0.2182
    99 N2     3py       -0.0066   -0.0502   -0.0012    0.0433    0.0669   -0.0490    0.0426   -0.0438   -0.0557    0.0266
   100 N2     4py       -0.0015   -0.0158    0.0000    0.0002    0.0052   -0.0053   -0.0098   -0.0032   -0.0003    0.0050
   101 N2     2pz       -0.0098    0.0110   -0.0060    0.0115    0.0204   -0.0033    0.0404    0.0266   -0.0024   -0.0333
   102 N2     3pz       -0.0113    0.0051   -0.0010    0.0011    0.0014   -0.0078    0.0015    0.0048    0.0033    0.0060
   103 N2     4pz       -0.0016    0.0028    0.0003    0.0003    0.0011   -0.0001    0.0025    0.0015   -0.0008    0.0012
   104 N2     3d2-       0.0013    0.0072   -0.0003   -0.0019   -0.0090    0.0083   -0.0064    0.0043    0.0066   -0.0031
   105 N2     3d1-      -0.0011   -0.0014   -0.0005    0.0004    0.0000    0.0013   -0.0025    0.0027    0.0018   -0.0017
   106 N2     3d0       -0.0017   -0.0162    0.0021    0.0017   -0.0038    0.0013   -0.0000   -0.0004   -0.0018   -0.0005
   107 N2     3d1+      -0.0006    0.0005   -0.0005   -0.0004    0.0011   -0.0003    0.0011    0.0011   -0.0004   -0.0009
   108 N2     3d2+       0.0006    0.0055   -0.0008    0.0095    0.0070   -0.0095   -0.0201   -0.0044    0.0001    0.0140
   109 N5     1s        -0.0201   -0.0035   -0.0418   -0.0027    0.0013    0.0025   -0.0009   -0.0025    0.0022   -0.0022
   110 N5     2s         0.1402    0.0173    0.5765    0.0396   -0.0056   -0.2231    0.0491    0.1805    0.0377   -0.0954
   111 N5     3s        -0.0491   -0.0062   -0.0774   -0.0094   -0.0017   -0.0154    0.0008    0.0043    0.0092   -0.0122
   112 N5     4s        -0.0117   -0.0009   -0.0259   -0.0037   -0.0018   -0.0017   -0.0002   -0.0010    0.0009   -0.0012
   113 N5     2px        0.0342   -0.0255   -0.0048    0.0260    0.0359    0.0378   -0.0055   -0.3044    0.1886   -0.1603
   114 N5     3px       -0.0028   -0.0277   -0.0393    0.0071   -0.0183   -0.0588    0.0104    0.0720   -0.0305    0.0326
   115 N5     4px       -0.0029   -0.0037   -0.0107   -0.0008   -0.0011   -0.0039    0.0012   -0.0071    0.0012   -0.0004
   116 N5     2py       -0.0251   -0.0069   -0.0078    0.0073    0.0338    0.0305    0.0087    0.1759   -0.0890    0.0531
   117 N5     3py        0.0064   -0.0079    0.0143   -0.0062    0.0024   -0.0089    0.0028   -0.0404    0.0134   -0.0094
   118 N5     4py       -0.0007   -0.0016    0.0043   -0.0003    0.0029   -0.0011    0.0009    0.0021   -0.0007    0.0008
   119 N5     2pz        0.0065    0.0382    0.0142   -0.0588   -0.1612   -0.1631   -0.0016   -0.1877    0.0566    0.0222
   120 N5     3pz       -0.0194    0.0530    0.0126    0.0036    0.0326    0.0946    0.0046    0.0553   -0.0127   -0.0146
   121 N5     4pz        0.0074    0.0086    0.0000   -0.0023   -0.0058    0.0052    0.0013    0.0021   -0.0017   -0.0008
   122 N5     3d2-      -0.0034    0.0002   -0.0063   -0.0008    0.0010    0.0055   -0.0007   -0.0014   -0.0013    0.0009
   123 N5     3d1-      -0.0037   -0.0010   -0.0094    0.0009    0.0039    0.0055    0.0000    0.0087   -0.0035    0.0016
   124 N5     3d0        0.0010    0.0016    0.0141    0.0001   -0.0001    0.0038   -0.0011   -0.0104    0.0031   -0.0023
   125 N5     3d1+       0.0044   -0.0010   -0.0015   -0.0018   -0.0076   -0.0114   -0.0000   -0.0119    0.0044   -0.0003
   126 N5     3d2+       0.0010    0.0000    0.0060    0.0013    0.0018   -0.0019    0.0005    0.0105   -0.0027    0.0014
   127 O7     1s         0.0005    0.0024   -0.0008   -0.0045    0.0020    0.0006    0.0137    0.0009    0.0151    0.0209
   128 O7     2s        -0.0512   -0.3052    0.0265   -0.2080    0.0472    0.0310    0.3554    0.0102    0.2479    0.3381
   129 O7     3s        -0.0008   -0.0094   -0.0024   -0.0213    0.0086    0.0018    0.0433    0.0005    0.0430    0.0598
   130 O7     4s         0.0005    0.0001   -0.0012   -0.0039    0.0020    0.0002    0.0082   -0.0006    0.0087    0.0127
   131 O7     2px       -0.0041   -0.0011   -0.0035   -0.0075    0.0265   -0.0295   -0.1744    0.0021   -0.0988   -0.2133
   132 O7     3px       -0.0002    0.0000   -0.0034   -0.0106   -0.0019    0.0015    0.0217    0.0019    0.0053    0.0193
   133 O7     4px        0.0002    0.0004   -0.0006   -0.0017   -0.0016    0.0006    0.0016    0.0007   -0.0002    0.0013
   134 O7     2py        0.0080    0.0417   -0.0036   -0.0358    0.0196    0.0063    0.1589    0.0231    0.2861    0.3934
   135 O7     3py       -0.0022    0.0011   -0.0015    0.0108   -0.0025   -0.0012   -0.0251   -0.0042   -0.0353   -0.0406
   136 O7     4py       -0.0006   -0.0014    0.0002   -0.0014   -0.0005    0.0004   -0.0031    0.0002   -0.0049   -0.0062
   137 O7     2pz       -0.0029   -0.0016   -0.0002    0.0061    0.0032   -0.0018   -0.0250   -0.0035   -0.0355   -0.0520
   138 O7     3pz       -0.0020    0.0006    0.0008   -0.0004    0.0031    0.0028    0.0045   -0.0011    0.0036    0.0054
   139 O7     4pz       -0.0006    0.0005    0.0002    0.0005    0.0010    0.0012    0.0006   -0.0008    0.0006    0.0008
   140 O7     3d2-       0.0010    0.0035   -0.0003    0.0010   -0.0023    0.0024    0.0120    0.0006    0.0100    0.0173
   141 O7     3d1-       0.0002    0.0012   -0.0001   -0.0000    0.0004   -0.0001    0.0013    0.0001    0.0029    0.0043
   142 O7     3d0        0.0005    0.0042   -0.0006    0.0015    0.0002   -0.0001    0.0049    0.0001    0.0065    0.0110
   143 O7     3d1+      -0.0003   -0.0004   -0.0000   -0.0001    0.0006   -0.0002   -0.0018   -0.0001   -0.0009   -0.0025
   144 O7     3d2+       0.0006    0.0049   -0.0006   -0.0027    0.0043   -0.0023   -0.0010    0.0014    0.0123    0.0115
   145 O8     1s        -0.0234    0.0024    0.0045    0.0003    0.0023    0.0006    0.0004    0.0122    0.0015   -0.0017
   146 O8     2s         0.6665   -0.1460   -0.3217    0.0914    0.1607    0.0189    0.0019    0.3508    0.0362   -0.0255
   147 O8     3s        -0.0276   -0.0025   -0.0078    0.0042    0.0127    0.0012    0.0003    0.0450    0.0060   -0.0059
   148 O8     4s        -0.0122    0.0003    0.0004    0.0000    0.0014   -0.0003   -0.0004    0.0091    0.0017   -0.0013
   149 O8     2px       -0.1336    0.0183    0.0405    0.0094    0.0184    0.0028   -0.0019    0.1666    0.0310   -0.0219
   150 O8     3px        0.0392   -0.0054   -0.0050    0.0021   -0.0102   -0.0075   -0.0014   -0.0259   -0.0039    0.0034
   151 O8     4px        0.0007   -0.0009   -0.0019    0.0013   -0.0001   -0.0010    0.0002   -0.0030   -0.0010    0.0004
   152 O8     2py        0.0467   -0.0159   -0.0120    0.0070   -0.0008   -0.0129   -0.0024   -0.0747    0.0118   -0.0040
   153 O8     3py       -0.0181    0.0013   -0.0015    0.0033    0.0062   -0.0019    0.0012    0.0117    0.0021   -0.0021
   154 O8     4py       -0.0006    0.0000   -0.0005    0.0010    0.0008   -0.0006   -0.0000    0.0013    0.0006   -0.0002
   155 O8     2pz       -0.0131    0.0084   -0.0156   -0.0176   -0.0167    0.0407   -0.0054    0.0378   -0.0886    0.0662
[...]
AIVX     1  Mu1.0001  In1.027 Se1.046               0.12093192     -0.00029091      0.00024997     -0.00000007
AIVX     1  Mu1.0001  In1.028 Se1.046               0.05096559     -0.00058882      0.00132331     -0.00000078
AIVX     1  Mu1.0001  In1.029 Se1.046               0.09071856      0.00055467     -0.00118600     -0.00000066
AIVX     1  Mu1.0001  In1.025 Se1.047               0.24688075     -0.00000371     -0.00015492      0.00000000
AIVX     1  Mu1.0001  In1.027 Se1.047               0.22519161      0.00005852      0.00008174      0.00000000
AIVX     1  Mu1.0001  In1.028 Se1.047               0.15522529     -0.00119698      0.00272496     -0.00000326
AIVX     1  Mu1.0001  In1.029 Se1.047               0.19497826      0.00009561      0.00005709      0.00000001
AIVX     1  Mu1.0001  In1.021 Se1.048               0.24713886     -0.00003239      0.00027796     -0.00000001
AIVX     1  Mu1.0001  In1.022 Se1.048               0.22710092      0.00131127     -0.00240295     -0.00000315
AIVX     1  Mu1.0001  In1.024 Se1.048               0.28815521     -0.00068841      0.00125444     -0.00000086
AIVX     1  Mu1.0001  In1.025 Se1.048               0.16481131     -0.00003090      0.00017412     -0.00000001
AIVX     1  Mu1.0001  In1.026 Se1.048               0.26800324     -0.00107193      0.00163010     -0.00000175
AIVX     1  Mu1.0001  In1.027 Se1.048               0.14312217      0.00005055     -0.00005140     -0.00000000
AIVX     1  Mu1.0001  In1.028 Se1.048               0.07315584      0.00034634     -0.00082109     -0.00000028
AIVX     1  Mu1.0001  In1.029 Se1.048               0.11290881     -0.00003723     -0.00035792      0.00000001
AIVX     1  Mu1.0001  In1.021 Se1.049               0.25333642      0.00068846     -0.00166210     -0.00000114
AIVX     1  Mu1.0001  In1.022 Se1.049               0.23329847     -0.00034991      0.00071147     -0.00000025
AIVX     1  Mu1.0001  In1.024 Se1.049               0.29435277     -0.00086453      0.00126628     -0.00000109
AIVX     1  Mu1.0001  In1.025 Se1.049               0.17100886     -0.00000245     -0.00003135      0.00000000
AIVX     1  Mu1.0001  In1.026 Se1.049               0.27420080      0.00215844     -0.00389402     -0.00000841
AIVX     1  Mu1.0001  In1.027 Se1.049               0.14931972     -0.00012338     -0.00032513      0.00000004
AIVX     1  Mu1.0001  In1.028 Se1.049               0.07935340      0.00000183     -0.00063466     -0.00000000
AIVX     1  Mu1.0001  In1.029 Se1.049               0.11910637      0.00012142      0.00031772      0.00000004
AIVX     1  Mu1.0001  In1.021 Se1.050               0.26997378     -0.00015737     -0.00016754      0.00000003
AIVX     1  Mu1.0001  In1.022 Se1.050               0.24993584     -0.00274009      0.00453696     -0.00001243
AIVX     1  Mu1.0001  In1.025 Se1.050               0.18764623     -0.00021748      0.00035809     -0.00000008
AIVX     1  Mu1.0001  In1.026 Se1.050               0.29083816     -0.00135490      0.00174381     -0.00000236
AIVX     1  Mu1.0001  In1.027 Se1.050               0.16595709      0.00032328     -0.00102444     -0.00000033
AIVX     1  Mu1.0001  In1.028 Se1.050               0.09599077     -0.00124910      0.00243436     -0.00000304
AIVX     1  Mu1.0001  In1.029 Se1.050               0.13574374      0.00087153     -0.00137142     -0.00000120
AIVX     1  Mu1.0001  In1.021 Se1.051               0.29505257      0.00004826      0.00009018      0.00000000
AIVX     1  Mu1.0001  In1.022 Se1.051               0.27501463      0.00031077     -0.00048289     -0.00000015
AIVX     1  Mu1.0001  In1.025 Se1.051               0.21272502      0.00000068      0.00008574      0.00000000
AIVX     1  Mu1.0001  In1.027 Se1.051               0.19103588      0.00034158     -0.00024537     -0.00000008
AIVX     1  Mu1.0001  In1.028 Se1.051               0.12106956     -0.00083948      0.00210862     -0.00000177
AIVX     1  Mu1.0001  In1.029 Se1.051               0.16082253      0.00004979     -0.00046673     -0.00000002
AIVX     1  Mu1.0001  In1.025 Se1.052               0.26501140     -0.00011862      0.00018502     -0.00000002
AIVX     1  Mu1.0001  In1.027 Se1.052               0.24332226     -0.00013455      0.00031252     -0.00000004
AIVX     1  Mu1.0001  In1.028 Se1.052               0.17335594      0.00023114     -0.00048277     -0.00000011
AIVX     1  Mu1.0001  In1.029 Se1.052               0.21310891      0.00014795     -0.00011733     -0.00000002
AIVX     1  Mu1.0001  In1.022 Se1.053               0.29356825      0.00010018     -0.00014948     -0.00000001
AIVX     1  Mu1.0001  In1.025 Se1.053               0.23127864      0.00013739     -0.00012282     -0.00000002
AIVX     1  Mu1.0001  In1.027 Se1.053               0.20958950      0.00021488     -0.00038719     -0.00000008
AIVX     1  Mu1.0001  In1.028 Se1.053               0.13962318     -0.00031394      0.00056964     -0.00000018
AIVX     1  Mu1.0001  In1.029 Se1.053               0.17937615     -0.00001786      0.00006998     -0.00000000
AIVX     1  Mu1.0001  In1.027 Se1.054               0.28586849      0.00005966     -0.00004585     -0.00000000
AIVX     1  Mu1.0001  In1.028 Se1.054               0.21590217      0.00030523     -0.00111529     -0.00000034
AIVX     1  Mu1.0001  In1.029 Se1.054               0.25565514      0.00054989     -0.00097086     -0.00000053
AIVX     1  Mu1.0001  In1.028 Se1.055               0.23517681      0.00044790     -0.00100306     -0.00000045
AIVX     1  Mu1.0001  In1.029 Se1.055               0.27492978     -0.00047223      0.00084528     -0.00000040
AIVX     1  Mu1.0001  In1.025 Se1.056               0.27717113     -0.00014328      0.00025278     -0.00000004
AIVX     1  Mu1.0001  In1.027 Se1.056               0.25548199      0.00004726      0.00012363      0.00000001
AIVX     1  Mu1.0001  In1.028 Se1.056               0.18551567      0.00026080     -0.00039698     -0.00000010
AIVX     1  Mu1.0001  In1.029 Se1.056               0.22526864     -0.00004638      0.00001022     -0.00000000
AIVX     1  Mu1.0001  In1.025 Se1.057               0.29837789     -0.00029415      0.00037762     -0.00000011
AIVX     1  Mu1.0001  In1.027 Se1.057               0.27668875      0.00018352     -0.00094056     -0.00000017
AIVX     1  Mu1.0001  In1.028 Se1.057               0.20672243      0.00001301     -0.00003778     -0.00000000
AIVX     1  Mu1.0001  In1.029 Se1.057               0.24647540      0.00057191     -0.00070570     -0.00000040
AIVX     1  Mu1.0001  In1.028 Se1.058               0.26629730      0.00035196     -0.00027142     -0.00000010
AIVX     1  Mu1.0001  In1.028 Se1.059               0.24662679      0.00130878     -0.00190165     -0.00000249
AIVX     1  Mu1.0001  In1.029 Se1.059               0.28637976     -0.00132698      0.00183538     -0.00000244
AIVX     1  Mu1.0001  In1.028 Se1.060               0.23240421      0.00039793     -0.00083347     -0.00000033
AIVX     1  Mu1.0001  In1.029 Se1.060               0.27215719     -0.00013532      0.00051131     -0.00000007
AIVX     1  Mu1.0001  In1.028 Se1.062               0.29782721      0.00037251     -0.00024448     -0.00000009
AIVX     1  Mu1.0001  In1.028 Se1.063               0.28352029     -0.00024377      0.00024020     -0.00000006
AIVX     1  Mu1.0001  In1.018 Se1.209               0.23144907      0.00072211     -0.00148216     -0.00000107
AIVX     1  Mu1.0001  In1.021 Se1.209               0.17177381      0.00055995     -0.00157784     -0.00000088
AIVX     1  Mu1.0001  In1.022 Se1.209               0.15173587      0.00088445     -0.00165810     -0.00000147
AIVX     1  Mu1.0001  In1.023 Se1.209               0.25153548      0.00006025     -0.00018178     -0.00000001
AIVX     1  Mu1.0001  In1.024 Se1.209               0.21279016      0.00070442     -0.00164794     -0.00000116
AIVX     1  Mu1.0001  In1.025 Se1.209               0.08944626      0.00002824     -0.00004503     -0.00000000
AIVX     1  Mu1.0001  In1.026 Se1.209               0.19263820      0.00083928     -0.00168441     -0.00000141
AIVX     1  Mu1.0001  In1.027 Se1.209               0.06775712     -0.00025514      0.00055267     -0.00000014
AIVX     1  Mu1.0001  In1.028 Se1.209              -0.00220920      0.00051960     -0.00160502     -0.00000083
AIVX     1  Mu1.0001  In1.029 Se1.209               0.03754377     -0.00010662      0.00036894     -0.00000004
--
 
   (Skipping property calculation,
    use PROP keyword to activate)
--
 
  Total CASPT2 energies:
::    CASPT2 Root  1     Total energy:   -455.26775984
::    CASPT2 Root  2     Total energy:   -455.04875084
::    CASPT2 Root  3     Total energy:   -455.06706761
::    CASPT2 Root  4     Total energy:   -455.00588747
::    CASPT2 Root  5     Total energy:   -454.99758066
::    CASPT2 Root  6     Total energy:   -454.98438845
::    CASPT2 Root  7     Total energy:   -454.94484876
 
++ Multi-State CASPT2 section:
********************************************************************************
  MULTI-STATE CASPT2 SECTION
--------------------------------------------------------------------------------
 
  Output diagonal energies have been shifted. Add   -455.000000000000     
 
  Effective Hamiltonian matrix (Symmetric):
 
                1               2               3               4               5
   1        -0.26775984
   2        -0.00005351     -0.04875084
   3         0.00099476     -0.00181558     -0.06706761
   4        -0.00911775      0.00026296      0.00015962     -0.00588747
   5         0.01416945     -0.00078942     -0.00142560      0.00121757      0.00241934
   6         0.01429883      0.00252234      0.00210115      0.00691750     -0.02065457
   7        -0.01178762      0.00033177      0.00013401     -0.00509711      0.01174041
 
                6               7
   6         0.01561155
   7         0.01410915      0.05515124
 
       Total MS-CASPT2 energies:
::    MS-CASPT2 Root  1     Total energy:   -455.27023307
::    MS-CASPT2 Root  2     Total energy:   -455.06732164
::    MS-CASPT2 Root  3     Total energy:   -455.04865322
::    MS-CASPT2 Root  4     Total energy:   -455.01763345
::    MS-CASPT2 Root  5     Total energy:   -455.00387080
::    MS-CASPT2 Root  6     Total energy:   -454.96900564
::    MS-CASPT2 Root  7     Total energy:   -454.93956583
 
       Eigenvectors:
            0.99515063      0.00391196     -0.00319664      0.09604854      0.00211444
            0.00053702      0.10127910      0.99412013      0.02185608      0.00644535
           -0.00474270      0.99442952     -0.10214836      0.00357590     -0.00223093
            0.03687622      0.00028879     -0.00040613     -0.42366033      0.89297203
           -0.05798619      0.01287320     -0.00139965      0.66830633      0.41951982
           -0.05686580     -0.02589908     -0.03572157      0.55784463      0.15704259
            0.04118817      0.00077565      0.00158519     -0.23015680     -0.04348222
 
            0.00920838     -0.01830601
            0.02982403      0.00766315
            0.02495151      0.00357842
            0.14072630     -0.04414611
           -0.60277325      0.10248954
            0.77426187      0.24389556
           -0.12562737      0.96314866
 
--
 
  THE ORIGINAL CI ARRAYS ARE NOW MIXED AS LINEAR
  COMBINATIONS, GIVEN BY THE EIGENVECTORS.
  A NEW JOBIPH FILE NAMED 'JOBMIX' IS PREPARED.
********************************************************************************
 
++ Mixed CI coefficients:
  The CI coefficients for the MIXED state nr.   1
--------------------------------------------------------------------------------
 CI COEFFICIENTS LARGER THAN  0.50D-01
  Occupation of active orbitals, and spin coupling
  of open shells. (u,d: Spin up or down).
  SGUGA info is (Midvert:IsyUp:UpperWalk/LowerWalk)
        Conf  SGUGA info        Occupation    Coefficient         Weight
           1  ( 1:1:   1/   1)   22222200        0.970528       0.941924
           4  ( 1:1:   4/   1)   22222020       -0.092817       0.008615
           8  ( 1:1:   8/   1)   2222u20d        0.052882       0.002797
          17  ( 1:1:  17/   1)   22220202       -0.094002       0.008836
          64  ( 2:1:   4/   3)   2u22220d        0.075698       0.005730
          81  ( 2:1:   1/   4)   u22222d0        0.094404       0.008912
          82  ( 2:1:   2/   4)   u2222d20       -0.052424       0.002748
         175  ( 3:1:   5/   8)   20222202       -0.083161       0.006916
         191  ( 3:1:   1/  10)   02222220       -0.077840       0.006059
 
  The CI coefficients for the MIXED state nr.   2
--------------------------------------------------------------------------------
 CI COEFFICIENTS LARGER THAN  0.50D-01
  Occupation of active orbitals, and spin coupling
  of open shells. (u,d: Spin up or down).
  SGUGA info is (Midvert:IsyUp:UpperWalk/LowerWalk)
        Conf  SGUGA info        Occupation    Coefficient         Weight
           3  ( 1:1:   3/   1)   2222u2d0       -0.323737       0.104806
          41  ( 2:1:   1/   2)   22u222d0       -0.890245       0.792537
          42  ( 2:1:   2/   2)   22u22d20        0.177823       0.031621
          46  ( 2:1:   6/   2)   22u2d2ud       -0.061789       0.003818
          48  ( 2:1:   8/   2)   22u2u2dd        0.106058       0.011248
          58  ( 2:1:  18/   2)   22u202d2       -0.079295       0.006288
         161  ( 3:1:   1/   7)   u2d22220        0.129974       0.016893
         219  ( 4:1:   1/   4)   2uu222dd       -0.060612       0.003674
         294  ( 5:1:   2/  15)   20u222d2        0.085274       0.007272
 
  The CI coefficients for the MIXED state nr.   3
--------------------------------------------------------------------------------
 CI COEFFICIENTS LARGER THAN  0.50D-01
  Occupation of active orbitals, and spin coupling
  of open shells. (u,d: Spin up or down).
  SGUGA info is (Midvert:IsyUp:UpperWalk/LowerWalk)
        Conf  SGUGA info        Occupation    Coefficient         Weight
          21  ( 2:1:   1/   1)   222u22d0       -0.139630       0.019497
          24  ( 2:1:   4/   1)   222u220d        0.952561       0.907372
          29  ( 2:1:   9/   1)   222u202d       -0.085731       0.007350
          34  ( 2:1:  14/   1)   222ud202       -0.091162       0.008310
         115  ( 3:1:   5/   2)   22ud2202        0.070406       0.004957
         125  ( 3:1:   5/   3)   2u2d2202       -0.174584       0.030480
         213  ( 4:1:   1/   3)   u22u22dd       -0.070971       0.005037
         269  ( 5:1:   1/   9)   022u222d        0.078359       0.006140
 
  The CI coefficients for the MIXED state nr.   4
--------------------------------------------------------------------------------
 CI COEFFICIENTS LARGER THAN  0.50D-01
  Occupation of active orbitals, and spin coupling
  of open shells. (u,d: Spin up or down).
  SGUGA info is (Midvert:IsyUp:UpperWalk/LowerWalk)
        Conf  SGUGA info        Occupation    Coefficient         Weight
           2  ( 1:1:   2/   1)   22222ud0        0.059125       0.003496
           3  ( 1:1:   3/   1)   2222u2d0       -0.152460       0.023244
           8  ( 1:1:   8/   1)   2222u20d        0.902022       0.813643
          13  ( 1:1:  13/   1)   2222u02d       -0.085113       0.007244
          17  ( 1:1:  17/   1)   22220202        0.180072       0.032426
          41  ( 2:1:   1/   2)   22u222d0        0.064907       0.004213
          44  ( 2:1:   4/   2)   22u2220d       -0.058042       0.003369
          61  ( 2:1:   1/   3)   2u2222d0        0.059259       0.003512
          74  ( 2:1:  14/   3)   2u22d202       -0.229054       0.052466
          81  ( 2:1:   1/   4)   u22222d0       -0.087691       0.007690
          86  ( 2:1:   6/   4)   u222d2ud        0.050724       0.002573
          88  ( 2:1:   8/   4)   u222u2dd       -0.080422       0.006468
         175  ( 3:1:   5/   8)   20222202       -0.104406       0.010901
         194  ( 3:1:   4/  10)   0222u22d        0.071796       0.005155
 
  The CI coefficients for the MIXED state nr.   5
--------------------------------------------------------------------------------
 CI COEFFICIENTS LARGER THAN  0.50D-01
  Occupation of active orbitals, and spin coupling
  of open shells. (u,d: Spin up or down).
  SGUGA info is (Midvert:IsyUp:UpperWalk/LowerWalk)
        Conf  SGUGA info        Occupation    Coefficient         Weight
           2  ( 1:1:   2/   1)   22222ud0       -0.925930       0.857346
           3  ( 1:1:   3/   1)   2222u2d0        0.128302       0.016461
           4  ( 1:1:   4/   1)   22222020       -0.052889       0.002797
           8  ( 1:1:   8/   1)   2222u20d        0.089291       0.007973
          10  ( 1:1:  10/   1)   2222udud       -0.054127       0.002930
          12  ( 1:1:  12/   1)   2222uudd       -0.094755       0.008978
          19  ( 1:1:  19/   1)   22220ud2        0.080019       0.006403
          41  ( 2:1:   1/   2)   22u222d0       -0.074204       0.005506
          67  ( 2:1:   7/   3)   2u222udd       -0.065250       0.004258
          76  ( 2:1:  16/   3)   2u22dud2        0.052224       0.002727
          81  ( 2:1:   1/   4)   u22222d0        0.075551       0.005708
          82  ( 2:1:   2/   4)   u2222d20        0.225746       0.050961
         176  ( 3:1:   6/   8)   20222ud2        0.086060       0.007406
         191  ( 3:1:   1/  10)   02222220        0.064977       0.004222
 
  The CI coefficients for the MIXED state nr.   6
--------------------------------------------------------------------------------
 CI COEFFICIENTS LARGER THAN  0.50D-01
  Occupation of active orbitals, and spin coupling
  of open shells. (u,d: Spin up or down).
  SGUGA info is (Midvert:IsyUp:UpperWalk/LowerWalk)
        Conf  SGUGA info        Occupation    Coefficient         Weight
           2  ( 1:1:   2/   1)   22222ud0        0.159282       0.025371
           3  ( 1:1:   3/   1)   2222u2d0        0.870849       0.758377
           5  ( 1:1:   5/   1)   2222ud20        0.072118       0.005201
           8  ( 1:1:   8/   1)   2222u20d        0.150371       0.022611
          21  ( 2:1:   1/   1)   222u22d0       -0.058659       0.003441
          41  ( 2:1:   1/   2)   22u222d0       -0.298023       0.088818
          66  ( 2:1:   6/   3)   2u22d2ud       -0.148775       0.022134
          68  ( 2:1:   8/   3)   2u22u2dd        0.196423       0.038582
          82  ( 2:1:   2/   4)   u2222d20       -0.052273       0.002732
         177  ( 3:1:   7/   8)   2022u2d2       -0.120784       0.014589
 
  The CI coefficients for the MIXED state nr.   7
--------------------------------------------------------------------------------
 CI COEFFICIENTS LARGER THAN  0.50D-01
  Occupation of active orbitals, and spin coupling
  of open shells. (u,d: Spin up or down).
  SGUGA info is (Midvert:IsyUp:UpperWalk/LowerWalk)
        Conf  SGUGA info        Occupation    Coefficient         Weight
          21  ( 2:1:   1/   1)   222u22d0       -0.879785       0.774022
          22  ( 2:1:   2/   1)   222u2d20       -0.056160       0.003154
          24  ( 2:1:   4/   1)   222u220d       -0.131742       0.017356
          26  ( 2:1:   6/   1)   222ud2ud        0.230662       0.053205
          28  ( 2:1:   8/   1)   222uu2dd       -0.314518       0.098922
         112  ( 3:1:   2/   2)   22ud22ud        0.096112       0.009238
         201  ( 4:1:   1/   1)   22uu22dd        0.088550       0.007841
         211  ( 4:1:   5/   2)   2u2ud2d2       -0.078048       0.006091
         262  ( 5:1:   2/   7)   202u22d2        0.076257       0.005815
 
--
 
--- Stop Module: caspt2 at Wed Nov 13 21:11:46 2024 /rc=_RC_ALL_IS_WELL_ ---
*** files: xmldump
    saved to directory /home/pcaah4
--- Module caspt2 spent 6 minutes 57 seconds ---

.##################.
.# Happy landing! #.
.##################.

    Timing: Wall=668.42 User=583.15 System=76.07
******************************************************
*** WorkDir at /srv/COMMUNAL_SCRATCH/10408 cleaned ***
******************************************************
