   This run of MOLCAS is using the pymolcas driver

                             OPE
                             OPE          NMOL  CASOP  ENMOLC A   SO
                 OPE        NMOLC        AS  OP EN  MO LC     AS  OP
                OPENM       OL CA        SO  PE NM  OL CA     SOP EN
                OP EN      MO   LC       AS  OP ENMOL  CASO   PENMOL
                OP  EN     MO   LC       AS  OP EN     MO     LC ASO
               OP   E  NMOL  C  AS       OP  EN MO     LC     AS  OP
               OP  E   NMO   LC AS        OPEN  MO     LCASOP EN   M
               O  PEN   MO  LCA  SO
            OPE   NMO   L   CAS    OP
        OPENMOL  CASOP     ENMOL   CASOPE
     OPENMOLCA   SOPENMOLCASOPEN   MOLCASOPE
    OPENMOLCAS   OP           EN   MOL    CAS
    OPENMOLCAS       OP  ENM        O     LCA
    OPENMOLCAS    OPEN  MOLCASO     P  E  NMO
    OPENMOLCAS     OP               E  N  MOL
    OPENMOLCA   SO           PENM   O  L  CAS    OPEN    MO    LCAS
    OPENMOLCA   SOP           ENM   O  L  CAS   OP  EN  MOLC  AS   O
    OPENMOLCA   SOPE           NM      O  LCA   S      OP  EN MO
    OPENMOLC                AS         O  PEN   M      OL  CA  SOPE
    OPENMO        LCASOPE  NMOL        C  ASO   P      ENMOLC     AS
    OPE     NMO      LCA  SO     P     E   NM   OL  CA SO  PE N   MO
          OPENMOLCA            SOPE   NMO        LCAS  O    P  ENMO
     OPENMOLCASOPENMOLCASOPENMOLCASOPENMOLCA
        OPENMOLCASOPENMOLCASOPENMOLCASOPE
            OPENMOLCASOPENMOLCASOPENM
               OPENMOLCASOPENMOLCA        version: v23.06
                   OPENMOLCASO
                       OPE                tag:

 OpenMolcas is free software; you can redistribute it and/or modify it
 under the terms of the GNU Lesser General Public License version 2.1.
 OpenMolcas is distributed in the hope that it will be useful, but it
 is provided "as is" and without any express or implied warranties.
 For more details see the full text of the license in the file
 LICENSE or in <http://www.gnu.org/licenses/>.

                 Copyright (C) The OpenMolcas Authors
           For the author list and the recommended citation,
                   consult the file CONTRIBUTORS.md

           *************************************************
           * pymolcas version py2.24                       *
           *   build 4567b286dd94b1984b333a4ddf893180      *
           *   (after the EMIL interpreter by V. Veryazov) *
           *************************************************

configuration info
------------------
Host name: loginchem01.nottingham.ac.uk (Linux)
C Compiler ID: Intel
C flags: -std=gnu99 -gcc-sys -qopenmp
Fortran Compiler ID: Intel
Fortran flags: -fpp -i8 -heap-arrays -qopenmp
Definitions: _MOLCAS_;_I8_;_LINUX_
Parallel: OFF (GA=OFF)


   ------------------------------------------------------------------------------------------------------------
  |
  |              Project: orca_geometry_optimisation_210_150_BP86_def2-SVP_def2J_scf_cas1_ras12i11_cas2_ras12i8
  |       Submitted from: /home/pcaah4
  |         Scratch area: /srv/COMMUNAL_SCRATCH/10401
  |      Save outputs to: /home/pcaah4
  |               Molcas: /software/chemistry/openmolcas/openmolcas-23.06-openmp
  |
  | Scratch area is empty
  |
  |       MOLCAS_DRIVER = /software/chemistry/openmolcas/openmolcas-23.06-openmp/sbin/pymolcas
  | MOLCAS_KEEP_WORKDIR = NO
  |       MOLCAS_NPROCS = 1
  |       MOLCAS_SOURCE = /software/chemistry/openmolcas/openmolcas-23.06-openmp
  |    MOLCAS_STRUCTURE = 0
  |
   ------------------------------------------------------------------------------------------------------------

++ ---------   Input file   ---------

&SEWARD
TITLE
orca_geometry_optimisation_210_150_BP86_def2-SVP_def2J_scf_cas1_ras12i11
MULTIPOLES
2
SDIPOLE
ANGMOM
0 0 0
BASIS SET
C.ANO-S...4S3P1D.
C1            0.017299   -0.018647    0.065234 /Angstrom
C3            2.140513    1.230776   -0.021417 /Angstrom
C4            3.471346    0.951670   -0.733058 /Angstrom
C6            5.266108    1.942713   -2.120704 /Angstrom
C19          -0.612701   -1.406643    0.122006 /Angstrom
END OF BASIS
BASIS SET
N.ANO-S...4S3P1D.
N2            1.389472    0.000852    0.061566 /Angstrom
N5            3.983198    2.002115   -1.443431 /Angstrom
END OF BASIS
BASIS SET
O.ANO-S...4S3P1D.
O7           -0.655998    1.012412    0.025804 /Angstrom
O8            4.017940   -0.150344   -0.644874 /Angstrom
END OF BASIS
BASIS SET
H.ANO-S...2S1P.
H9           -1.246490   -1.472821    1.028802 /Angstrom
H10          -1.285573   -1.527319   -0.750120 /Angstrom
H11           0.121469   -2.235892    0.132556 /Angstrom
H12           1.954784   -0.854074    0.055347 /Angstrom
H13           1.515097    1.991631   -0.534331 /Angstrom
H14           2.375747    1.646685    0.989443 /Angstrom
H15           3.442231    2.867262   -1.482295 /Angstrom
H16           5.159153    2.132152   -3.209570 /Angstrom
H17           5.987620    2.677317   -1.703183 /Angstrom
H18           5.668246    0.922707   -1.973373 /Angstrom
END OF BASIS
END OF INPUT

&RASSCF
TITLE
orca_geometry_optimisation_210_150_BP86_def2-SVP_def2J_scf_cas1_ras12i11
LUMORB
SPIN
1
SYMMETRY
1
NACTEL
12  0  0
INACTIVE
29
DELETED  ! delete Rydberg orbitals from an initial CAS(12,11) if done
3
FROZEN
0
RAS2
8
ITERATIONS
64 25
CIROOT
7 7
1 2 3 4 5 6 7
1 1 1 1 1 1 1
LEVSHFT
0.3
CIMX
20
FILEorb = /home/pcaah4/outputs/cas1_ras12i11_rasorb_files/orca_geometry_optimisation_210_150_BP86_def2-SVP_def2J_scf_cas1_ras12i11.RasOrb
ALTEr
3
 1 38 210
 1 39 211
 1 40 212
END OF INPUT

&RASSI
NROF JOBIPH
    1 7
    1 2 3 5 4 6 7
TOFILE
TRDI
TDMN
1.0D-6
END OF INPUT

&CASPT2
TITLE
orca_geometry_optimisation_210_150_BP86_def2-SVP_def2J_scf_cas1_ras12i11
MULTISTATE
7 1 2 3 4 5 6 7
SHIFT
0.35
MAXITER
50
END OF INPUT

-- ----------------------------------

--- Start Module: seward at Wed Nov 13 20:45:34 2024 ---
 
()()()()()()()()()()()()()()()()()()()()()()()()()()()()()()()()()()()()()()()()()()()()()()()()()()

                                              &SEWARD

                                   only a single process is used
                       available to each process: 2.0 GB of memory, 1 thread
                                            pid: 1799492
()()()()()()()()()()()()()()()()()()()()()()()()()()()()()()()()()()()()()()()()()()()()()()()()()()
 
               SEWARD will generate:
                  Multipole Moment integrals up to order  2
                  Kinetic Energy integrals
                  Nuclear Attraction integrals (point charge)
                  One-Electron Hamiltonian integrals
                  Velocity integrals
                  Orbital angular momentum around ( 0.0000  0.0000  0.0000 )
                  Velocity quadrupole around ( 4.0138  1.1685 -1.0026 )
                  Two-Electron Repulsion integrals
 
 Title:
            orca_geometry_optimisation_210_150_BP86_def2-SVP_def2J_scf_cas1_ras12i11    
 
 
                   Integrals are discarded if absolute value <: 0.10E-13
                   Integral cutoff threshold is set to       <: 0.10E-15
 
++    Symmetry information:
      ---------------------
 
                    Character Table for C1 
 
                             E  
                    a        1  x, y, xy, Rz, z, xz, Ry, yz, Rx, I
--
 
 
++    Basis set information:
      ----------------------
 
 
      Basis set label: C.ANO-S...4S3P1D......
 
      Electronic valence basis set:
      ------------------
      Associated Effective Charge   6.000000 au
      Associated Actual Charge      6.000000 au
      Nuclear Model: Point charge
 
      Shell  nPrim  nBasis  Cartesian Spherical Contaminant
         s      10       4        X                  
         p       6       3        X                  
         d       3       1                 X         
 
 
      Basis set label: N.ANO-S...4S3P1D......
 
      Electronic valence basis set:
      ------------------
      Associated Effective Charge   7.000000 au
      Associated Actual Charge      7.000000 au
      Nuclear Model: Point charge
 
      Shell  nPrim  nBasis  Cartesian Spherical Contaminant
         s      10       4        X                  
         p       6       3        X                  
         d       3       1                 X         
 
 
      Basis set label: O.ANO-S...4S3P1D......
 
      Electronic valence basis set:
      ------------------
      Associated Effective Charge   8.000000 au
      Associated Actual Charge      8.000000 au
      Nuclear Model: Point charge
 
      Shell  nPrim  nBasis  Cartesian Spherical Contaminant
         s      10       4        X                  
         p       6       3        X                  
         d       3       1                 X         
 
 
      Basis set label: H.ANO-S...2S1P......
 
      Electronic valence basis set:
      ------------------
      Associated Effective Charge   1.000000 au
      Associated Actual Charge      1.000000 au
      Nuclear Model: Point charge
 
      Shell  nPrim  nBasis  Cartesian Spherical Contaminant
         s       7       2        X                  
         p       3       1        X                  
--
 
 
++    Molecular structure info:
      -------------------------
 
                    ************************************************ 
                    **** Cartesian Coordinates / Bohr, Angstrom **** 
                    ************************************************ 
 
     Center  Label                x              y              z                     x              y              z
        1      C1               0.032690      -0.035238       0.123274              0.017299      -0.018647       0.065234
        2      C3               4.044983       2.325830      -0.040472              2.140513       1.230776      -0.021417
        3      C4               6.559893       1.798396      -1.385279              3.471346       0.951670      -0.733058
        4      C6               9.951502       3.671196      -4.007550              5.266108       1.942713      -2.120704
        5      C19             -1.157837      -2.658170       0.230558             -0.612701      -1.406643       0.122006
        6      N2               2.625722       0.001610       0.116343              1.389472       0.000852       0.061566
        7      N5               7.527153       3.783449      -2.727689              3.983198       2.002115      -1.443431
        8      O7              -1.239657       1.913181       0.048762             -0.655998       1.012412       0.025804
        9      O8               7.592806      -0.284109      -1.218635              4.017940      -0.150344      -0.644874
       10      H9              -2.355525      -2.783228       1.944154             -1.246490      -1.472821       1.028802
       11      H10             -2.429381      -2.886215      -1.417521             -1.285573      -1.527319      -0.750120
       12      H11              0.229543      -4.225224       0.250495              0.121469      -2.235892       0.132556
       13      H12              3.694006      -1.613966       0.104591              1.954784      -0.854074       0.055347
       14      H13              2.863118       3.763637      -1.009739              1.515097       1.991631      -0.534331
       15      H14              4.489511       3.111784       1.869776              2.375747       1.646685       0.989443
       16      H15              6.504874       5.418340      -2.801132              3.442231       2.867262      -1.482295
       17      H16              9.749386       4.029183      -6.065208              5.159153       2.132152      -3.209570
       18      H17             11.314962       5.059396      -3.218549              5.987620       2.677317      -1.703183
       19      H18             10.711433       1.743664      -3.729135              5.668246       0.922707      -1.973373
 
                    ************************************************* 
                    **** InterNuclear Distances / Bohr, Angstrom **** 
                    ************************************************* 
 
     Atom centers         Bohr        Angstrom
   16 H15       7 N5      1.929590        1.021095
   13 H12       6 N2      1.936868        1.024946
   19 H18       4 C6      2.090548        1.106270
   12 H11       5 C19     2.093055        1.107597
   11 H10       5 C19     2.094038        1.108117
   10 H9        5 C19     2.094399        1.108308
   17 H16       4 C6      2.098324        1.110385
   14 H13       2 C3      2.098469        1.110462
   18 H17       4 C6      2.099677        1.111101
   15 H14       2 C3      2.112908        1.118103
    8 O7        1 C1      2.328252        1.232058
    9 O8        3 C4      2.330559        1.233279
    7 N5        3 C4      2.584201        1.367500
    6 N2        1 C1      2.593302        1.372316
    6 N2        2 C3      2.727800        1.443489
    7 N5        4 C6      2.743740        1.451925
    5 C19       1 C1      2.882471        1.525338
    3 C4        2 C3      2.900252        1.534747
   11 H10      10 H9      3.364063        1.780186
   15 H14      14 H13     3.370709        1.783702
   19 H18      17 H16     3.406813        1.802808
   18 H17      17 H16     3.408201        1.803542
   19 H18      18 H17     3.408669        1.803790
   12 H11      10 H9      3.410338        1.804673
   12 H11      11 H10     3.412492        1.805813
   16 H15       3 C4      3.887372        2.057109
   19 H18       7 N5      3.911937        2.070108
   14 H13       6 N2      3.934116        2.081844
   13 H12       2 C3      3.958057        2.094514
   13 H12       1 C1      3.987225        2.109949
   17 H16       7 N5      4.017180        2.125800
   18 H17       7 N5      4.026969        2.130980
   15 H14       6 N2      4.027582        2.131305
   16 H15       4 C6      4.048111        2.142168
   11 H10       1 C1      4.069879        2.153687
   10 H9        1 C1      4.070703        2.154123
   15 H14       3 C4      4.075151        2.156477
   12 H11       1 C1      4.196536        2.220711
   14 H13       3 C4      4.203492        2.224392
    8 O7        6 N2      4.312751        2.282209
   13 H12       9 O8      4.326671        2.289576
    9 O8        7 N5      4.338961        2.296079
   13 H12      12 H11     4.340790        2.297047
   16 H15      14 H13     4.382866        2.319313
   19 H18       9 O8      4.487794        2.374839
    9 O8        2 C3      4.559265        2.412659
    8 O7        5 C19     4.575696        2.421354
    6 N2        3 C4      4.578320        2.422743
   14 H13       8 O7      4.623567        2.446686
    6 N2        5 C19     4.626315        2.448140
    7 N5        2 C3      4.633713        2.452055
    2 C3        1 C1      4.658320        2.465077
    4 C6        3 C4      4.678322        2.475661
   13 H12       3 C4      4.698641        2.486414
   19 H18       3 C4      4.767802        2.523012
   17 H16      16 H15     4.807371        2.543951
   16 H15       2 C3      4.820365        2.550827
   18 H17      16 H15     4.841490        2.562006
   12 H11       6 N2      4.860637        2.572138
   14 H13       1 C1      4.870985        2.577614
   13 H12       5 C19     4.964536        2.627119
   14 H13       7 N5      4.970409        2.630227
   15 H14      13 H12     5.106997        2.702506
    9 O8        6 N2      5.151284        2.725942
   11 H10       8 O7      5.157483        2.729223
   10 H9        8 O7      5.185936        2.744279
    8 O7        2 C3      5.301477        2.805421
    9 O8        4 C6      5.383858        2.849015
   15 H14       9 O8      5.540831        2.932082
   15 H14       7 N5      5.551134        2.937534
   14 H13      13 H12     5.554343        2.939231
   16 H15      15 H14     5.585631        2.955788
   19 H18      16 H15     5.662117        2.996263
--
 
 
            Nuclear Potential Energy            446.88012236 au
 
 
      Basis set specifications :
      Symmetry species         a  
      Basis functions          212
 
 
      Input file to MOLDEN was generated!
 
--- Stop Module: seward at Wed Nov 13 20:47:21 2024 /rc=_RC_ALL_IS_WELL_ ---
*** files: orca_geometry_optimisation_210_150_BP86_def2-SVP_def2J_scf_cas1_ras12i11_cas2_ras12i8.GssOrb
           orca_geometry_optimisation_210_150_BP86_def2-SVP_def2J_scf_cas1_ras12i11_cas2_ras12i8.guessorb.molden xmldump
    saved to directory /home/pcaah4
--- Module seward spent 1 minute 47 seconds ---

*** symbolic link created: INPORB -> orca_geometry_optimisation_210_150_BP86_def2-SVP_def2J_scf_cas1_ras12i11_cas2_ras12i8.GssOrb
--- Start Module: rasscf at Wed Nov 13 20:47:22 2024 ---
 
()()()()()()()()()()()()()()()()()()()()()()()()()()()()()()()()()()()()()()()()()()()()()()()()()()

                                              &RASSCF

                                   only a single process is used
                       available to each process: 2.0 GB of memory, 1 thread
                                            pid: 1799783
()()()()()()()()()()()()()()()()()()()()()()()()()()()()()()()()()()()()()()()()()()()()()()()()()()
 
 
      Header of the ONEINT file:
      --------------------------
      orca_geometry_optimisation_210_150_BP86_def2-SVP_def2J_scf_cas1_ras12i11
      Integrals generated by Gateway/Seward, Wed Nov 13 20:45:35 2024
 
 
      OrdInt status: non-squared
 
 
      Cartesian coordinates in Angstrom:
      -----------------------------------------------------
      No.  Label        X            Y            Z        
      -----------------------------------------------------
       1   C1         0.01729900  -0.01864700   0.06523400
       2   C3         2.14051300   1.23077600  -0.02141700
       3   C4         3.47134600   0.95167000  -0.73305800
       4   C6         5.26610800   1.94271300  -2.12070400
       5   C19       -0.61270100  -1.40664300   0.12200600
       6   N2         1.38947200   0.00085200   0.06156600
       7   N5         3.98319800   2.00211500  -1.44343100
       8   O7        -0.65599800   1.01241200   0.02580400
       9   O8         4.01794000  -0.15034400  -0.64487400
      10   H9        -1.24649000  -1.47282100   1.02880200
      11   H10       -1.28557300  -1.52731900  -0.75012000
      12   H11        0.12146900  -2.23589200   0.13255600
      13   H12        1.95478400  -0.85407400   0.05534700
      14   H13        1.51509700   1.99163100  -0.53433100
      15   H14        2.37574700   1.64668500   0.98944300
      16   H15        3.44223100   2.86726200  -1.48229500
      17   H16        5.15915300   2.13215200  -3.20957000
      18   H17        5.98762000   2.67731700  -1.70318300
      19   H18        5.66824600   0.92270700  -1.97337300
      -----------------------------------------------------
      Nuclear repulsion energy =  446.88012236
 
++    Wave function specifications:
      -----------------------------
 
      Number of closed shell electrons          58
      Number of electrons in active shells      12
      Max number of holes in RAS1 space          0
      Max nr of electrons in RAS3 space          0
      Number of inactive orbitals               29
      Number of active orbitals                  8
      Number of secondary orbitals             172
      Spin quantum number                      0.0
      State symmetry                             1
--
 
++    Orbital specifications:
      -----------------------
 
      Symmetry species                           1
                                                 a
      Frozen orbitals                            0
      Inactive orbitals                         29
      Active orbitals                            8
      RAS1 orbitals                              0
      RAS2 orbitals                              8
      RAS3 orbitals                              0
      Secondary orbitals                       172
      Deleted orbitals                           3
      Number of basis functions                212
--
 
++    CI expansion specifications:
      ----------------------------
 
      Number of CSFs                           336
      Number of determinants                   406
      Number of root(s) required                 7
      Root chosen for geometry opt.              7
      CI roots used                              1     2     3     4     5     6     7
      weights                                0.143 0.143 0.143 0.143 0.143 0.143 0.143
      highest root included in the CI            7
      max. size of the explicit Hamiltonian    200
--
 
++    Optimization specifications:
      ----------------------------
 
      RASSCF algorithm: Conventional
      Maximum number of macro iterations        64
      Maximum number of SX iterations           25
      Threshold for RASSCF energy            0.100E-07
      Threshold for max MO rotation          0.100E+00
      Threshold for max BLB element          0.100E-03
      Level shift parameter                  0.300E+00
      Make Quasi-Newton update
--
 
      The MO-coefficients are taken from the file:
      /home/pcaah4/outputs/cas1_ras12i11_rasorb_files/orca_geometry_optimisation_210_150_BP86_def2-SVP_def2J_scf_cas1_ras12i11.RasOrb                                                                                                                                 
      Title: RASSCF average (pseudo-natural) orbitals                                      
 
      Total molecular charge    0.00
 
      Molecular orbitals exchanged:
        In symmetry  1 :  38 210
        In symmetry  1 :  39 211
        In symmetry  1 :  40 212
 
 
      ************************************************************************************************************************
      *                                                                                                                      *
      *                                            Wave function control section                                             *
      *                                                                                                                      *
      ************************************************************************************************************************
 
 
                                         RASSCF iterations: Energy and convergence statistics
                                         ----------------------------------------------------
 
      Iter CI   SX   CI       RASSCF       Energy    max ROT     max BLB   max BLB  Level Ln srch  Step   QN   Walltime
          iter iter root      energy       change     param      element    value   shift minimum  type update hh:mm:ss
 Nr of preliminary CI iterations:   5
        1   1   25    0  -453.69010957    0.00E+00  -0.46E-01   37  69 1  0.17E-01*  0.14   0.00    SX    NO    0:00:13
        2   5   16    0  -453.70524386   -0.15E-01* -0.16E-01   13 209 1 -0.68E-02*  0.13   0.00    SX    NO    0:00:06
        3   4   10    0  -453.70682537   -0.16E-02* -0.10E-01   26  67 1 -0.49E-02*  0.14   0.00    SX    NO    0:00:06
        4   7    9    0  -453.70753826   -0.71E-03*  0.65E-02   21  97 1  0.13E-02*  0.14   0.00    SX    NO    0:00:06
        5   5    9    0  -453.70769453   -0.16E-03*  0.75E-02   26  67 1 -0.95E-03*  0.14   1.15    QN   YES    0:00:06
        6   6    8    0  -453.70776201   -0.67E-04*  0.38E-02   37  43 1 -0.30E-03*  0.14   1.21    QN   YES    0:00:06
        7   4    8    0  -453.70776962   -0.76E-05* -0.18E-02   26  97 1  0.20E-03*  0.14   1.11    QN   YES    0:00:06
        8   6    7    0  -453.70777109   -0.15E-05* -0.31E-03   37  69 1 -0.56E-04   0.14   0.98    QN   YES    0:00:06
        9   4    7    0  -453.70777134   -0.25E-06* -0.40E-03   21  84 1 -0.63E-04   0.14   1.49    QN   YES    0:00:06
       10   5    6    0  -453.70777139   -0.59E-07* -0.13E-03   26  97 1 -0.27E-04   0.14   0.64    QN   YES    0:00:06
       11   3    6    0  -453.70777143   -0.36E-07*  0.39E-04   21  99 1  0.94E-05   0.14   1.05    QN   YES    0:00:06
       12   1    5    0  -453.70777143   -0.33E-08   0.55E-04   21  84 1 -0.34E-05   0.14   2.37    QN   YES    0:00:06
      Convergence after 12 iterations
       13   1    5    0  -453.70777143   -0.14E-08   0.55E-04   13  70 1  0.13E-05   0.14   2.37    QN   YES    0:00:06
 
      ************************************************************************************************************************
                                                      Wave function printout:
                       occupation of active orbitals, and spin coupling of open shells (u,d: Spin up or down)
      ************************************************************************************************************************
 
      Note: transformation to natural orbitals
      has been made, which may change the order of the CSFs.
 
      printout of CI-coefficients larger than  0.05 for root  1
      energy=    -453.960509
      conf/sym  11111111     Coeff  Weight
             1  22222200  -0.96403 0.92935
             6  22220220   0.08369 0.00700
             7  22222u0d   0.12731 0.01621
            15  22222002   0.07917 0.00627
            64  2u22220d  -0.07867 0.00619
            73  2u222d02  -0.06117 0.00374
            81  u22222d0  -0.09907 0.00982
           175  20222202   0.09953 0.00991
           191  02222220   0.07858 0.00617
 
      printout of CI-coefficients larger than  0.05 for root  2
      energy=    -453.746244
      conf/sym  11111111     Coeff  Weight
            21  222u22d0  -0.08040 0.00646
            24  222u220d  -0.95939 0.92043
            32  222u022d   0.08217 0.00675
            33  222u2d02  -0.09510 0.00904
           125  2u2d2202   0.18347 0.03366
           213  u22u22dd   0.08265 0.00683
           269  022u222d  -0.07912 0.00626
 
      printout of CI-coefficients larger than  0.05 for root  3
      energy=    -453.733633
      conf/sym  11111111     Coeff  Weight
             2  22222ud0  -0.15143 0.02293
             3  2222u2d0   0.08405 0.00706
            21  222u22d0  -0.08834 0.00780
            41  22u222d0   0.93124 0.86721
            43  22u2d220   0.16886 0.02851
            45  22u22dud  -0.06323 0.00400
            47  22u22udd   0.11236 0.01262
            55  22u220d2   0.07742 0.00599
           161  u2d22220  -0.12684 0.01609
           219  2uu222dd   0.06684 0.00447
           222  2uu22dd2   0.05283 0.00279
           294  20u222d2  -0.09707 0.00942
 
      printout of CI-coefficients larger than  0.05 for root  4
      energy=    -453.644409
      conf/sym  11111111     Coeff  Weight
             2  22222ud0  -0.53454 0.28573
             3  2222u2d0   0.76191 0.58051
             7  22222u0d   0.07563 0.00572
            12  2222uudd   0.08181 0.00669
            18  2222u0d2   0.06942 0.00482
            21  222u22d0   0.05379 0.00289
            41  22u222d0  -0.14869 0.02211
            65  2u222dud   0.07105 0.00505
            67  2u222udd  -0.10683 0.01141
            68  2u22u2dd   0.05571 0.00310
            81  u22222d0   0.07306 0.00534
            83  u222d220  -0.19684 0.03874
           176  20222ud2   0.07402 0.00548
           177  2022u2d2  -0.07570 0.00573
 
      printout of CI-coefficients larger than  0.05 for root  5
      energy=    -453.638388
      conf/sym  11111111     Coeff  Weight
             1  22222200   0.08133 0.00662
             2  22222ud0   0.66224 0.43857
             3  2222u2d0   0.41712 0.17399
             7  22222u0d   0.50643 0.25648
            15  22222002  -0.10893 0.01187
            21  222u22d0  -0.08634 0.00745
            41  22u222d0   0.05970 0.00356
            61  2u2222d0   0.05029 0.00253
            65  2u222dud  -0.10716 0.01148
            67  2u222udd   0.14044 0.01972
            73  2u222d02  -0.12957 0.01679
            81  u22222d0   0.05711 0.00326
            83  u222d220  -0.08603 0.00740
            87  u2222udd  -0.05069 0.00257
           175  20222202   0.06002 0.00360
           176  20222ud2  -0.09225 0.00851
 
      printout of CI-coefficients larger than  0.05 for root  6
      energy=    -453.622481
      conf/sym  11111111     Coeff  Weight
             1  22222200  -0.09061 0.00821
             2  22222ud0   0.39827 0.15862
             3  2222u2d0   0.36197 0.13102
             7  22222u0d  -0.75770 0.57410
            14  22220u2d  -0.06838 0.00468
            15  22222002   0.15034 0.02260
            65  2u222dud  -0.06959 0.00484
            67  2u222udd   0.10184 0.01037
            73  2u222d02   0.19649 0.03861
            83  u222d220  -0.09183 0.00843
            87  u2222udd   0.07332 0.00538
           175  20222202  -0.08586 0.00737
           176  20222ud2  -0.06410 0.00411
           193  02222u2d  -0.05637 0.00318
 
      printout of CI-coefficients larger than  0.05 for root  7
      energy=    -453.608736
      conf/sym  11111111     Coeff  Weight
             2  22222ud0  -0.05763 0.00332
             7  22222u0d  -0.08479 0.00719
            21  222u22d0  -0.89062 0.79320
            24  222u220d   0.07268 0.00528
            25  222u2dud  -0.22122 0.04894
            26  222ud2ud   0.05457 0.00298
            27  222u2udd   0.31463 0.09899
            41  22u222d0  -0.09554 0.00913
           210  2u2u2dd2   0.07855 0.00617
           262  202u22d2   0.08220 0.00676
 
      Natural orbitals and occupation numbers for root  1
      sym 1:   1.970338   1.995471   1.999880   1.999841   1.994712   1.956904   0.035040   0.047813
 
      Natural orbitals and occupation numbers for root  2
      sym 1:   1.969771   1.999819   1.999136   1.002244   1.995149   1.999666   0.036020   0.998195
 
      Natural orbitals and occupation numbers for root  3
      sym 1:   1.999868   1.994940   1.007474   1.998409   1.999325   1.955267   0.994488   0.050230
 
      Natural orbitals and occupation numbers for root  4
      sym 1:   1.984984   1.941096   1.999442   1.999488   1.064636   1.975545   0.970239   0.064569
 
      Natural orbitals and occupation numbers for root  5
      sym 1:   1.980500   1.934307   1.999313   1.998552   1.915059   1.076379   0.949286   0.146605
 
      Natural orbitals and occupation numbers for root  6
      sym 1:   1.980137   1.945842   1.999309   1.999016   1.879524   1.108883   0.169356   0.917934
 
      Natural orbitals and occupation numbers for root  7
      sym 1:   1.999742   1.993033   1.995649   1.073542   1.997348   1.928444   0.930941   0.081301
 
      ************************************************************************************************************************
      *                                                                                                                      *
      *                                                    Final results                                                     *
      *                                                                                                                      *
      ************************************************************************************************************************
 
 
++    Wave function specifications:
      -----------------------------
 
      Number of closed shell electrons          58
      Number of electrons in active shells      12
      Max number of holes in RAS1 space          0
      Max nr of electrons in RAS3 space          0
      Number of inactive orbitals               29
      Number of active orbitals                  8
      Number of secondary orbitals             172
      Spin quantum number                      0.0
      State symmetry                             1
--
 
++    Orbital specifications:
      -----------------------
 
      Symmetry species                           1
                                                 a
      Frozen orbitals                            0
      Inactive orbitals                         29
      Active orbitals                            8
      RAS1 orbitals                              0
      RAS2 orbitals                              8
      RAS3 orbitals                              0
      Secondary orbitals                       172
      Deleted orbitals                           3
      Number of basis functions                212
--
 
++    CI expansion specifications:
      ----------------------------
 
      Number of CSFs                           336
      Number of determinants                   406
      Number of root(s) required                 7
      CI roots used                              1     2     3     4     5     6     7
      weights                                0.143 0.143 0.143 0.143 0.143 0.143 0.143
      highest root included in the CI            7
      Root passed to geometry opt.               7
--
 
++    Final optimization conditions:
      ------------------------------
 
      Average CI energy                            -453.70777143
      RASSCF energy for state  7                   -453.60873594
      Super-CI energy                                -0.00000000
      RASSCF energy change                            0.00000000
      Max change in MO coefficients              -0.598E-04
      Max non-diagonal density matrix element     0.554E-04
      Maximum BLB matrix element                  0.134E-05
      (orbital pair  13,  70 in symmetry   1)
      Norm of electronic gradient            0.384E+00
--
 
 
      Final state energy(ies):
      ------------------------
 
::    RASSCF root number  1 Total energy:   -453.96050939
::    RASSCF root number  2 Total energy:   -453.74624448
::    RASSCF root number  3 Total energy:   -453.73363255
::    RASSCF root number  4 Total energy:   -453.64440898
::    RASSCF root number  5 Total energy:   -453.63838788
::    RASSCF root number  6 Total energy:   -453.62248082
::    RASSCF root number  7 Total energy:   -453.60873594
 
++    Molecular orbitals:
      -------------------
 
      Pseudonatural active orbitals and approximate occupation numbers
 
 
 
 
      Molecular orbitals for symmetry species 1: a  
 
 
      Orbital                 1         2         3         4         5         6         7         8         9        10
      Energy           -20.6061  -20.5156  -15.6344  -15.5816  -11.3410  -11.2891  -11.2824  -11.2622  -11.2565   -1.4249
      Occ. No.           2.0000    2.0000    2.0000    2.0000    2.0000    2.0000    2.0000    2.0000    2.0000    2.0000
 
     1 C1     1s         0.0004   -0.0000    0.0003    0.0000    1.0000    0.0002   -0.0000   -0.0000   -0.0037   -0.0392
     2 C1     2s         0.0013   -0.0003    0.0016    0.0002    0.0022   -0.0004    0.0001   -0.0003   -0.0007    0.3521
     3 C1     3s        -0.0002   -0.0003    0.0008    0.0001   -0.0002   -0.0004   -0.0000   -0.0003   -0.0009   -0.0058
     4 C1     4s        -0.0003   -0.0001    0.0002    0.0000    0.0013   -0.0002   -0.0000   -0.0001   -0.0003    0.0033
     5 C1     2px       -0.0013    0.0000    0.0018   -0.0000    0.0012   -0.0002   -0.0003   -0.0002   -0.0004   -0.0415
     6 C1     3px       -0.0008   -0.0001    0.0013   -0.0001    0.0012   -0.0006   -0.0005   -0.0002    0.0001    0.0285
     7 C1     4px        0.0001   -0.0001   -0.0001   -0.0001    0.0004   -0.0004   -0.0001   -0.0000    0.0002   -0.0129
     8 C1     2py        0.0031   -0.0001    0.0003   -0.0001    0.0011   -0.0001   -0.0006   -0.0002   -0.0006    0.0941
     9 C1     3py        0.0021   -0.0002    0.0002   -0.0001    0.0009   -0.0006   -0.0006   -0.0002    0.0002   -0.0704
    10 C1     4py       -0.0004   -0.0000   -0.0000   -0.0000    0.0007   -0.0004   -0.0000   -0.0001    0.0003    0.0232
    11 C1     2pz       -0.0001   -0.0002    0.0001   -0.0000   -0.0000    0.0000    0.0001    0.0000   -0.0000   -0.0030
    12 C1     3pz       -0.0001   -0.0003    0.0001   -0.0001   -0.0000    0.0000    0.0001    0.0000   -0.0001    0.0016
    13 C1     4pz        0.0000   -0.0000    0.0000   -0.0001   -0.0000    0.0000    0.0000    0.0000   -0.0000   -0.0013
    14 C1     3d2-       0.0001   -0.0000    0.0001   -0.0000   -0.0004    0.0000   -0.0000   -0.0000    0.0001   -0.0328
    15 C1     3d1-       0.0000    0.0000    0.0000   -0.0000   -0.0000   -0.0000    0.0000    0.0000    0.0000   -0.0022
    16 C1     3d0       -0.0000   -0.0000    0.0001   -0.0000   -0.0004   -0.0000    0.0000   -0.0000    0.0001   -0.0279
    17 C1     3d1+      -0.0000   -0.0000   -0.0000    0.0000    0.0000    0.0000    0.0000   -0.0000   -0.0000    0.0011
    18 C1     3d2+       0.0001    0.0000   -0.0002    0.0000   -0.0000    0.0000    0.0000    0.0000   -0.0000   -0.0103
    19 C3     1s         0.0001    0.0000    0.0004   -0.0000   -0.0001    0.9986   -0.0437    0.0001    0.0001   -0.0098
    20 C3     2s         0.0006   -0.0000    0.0021   -0.0001    0.0007   -0.0012   -0.0001    0.0007    0.0008    0.0168
    21 C3     3s         0.0003   -0.0001    0.0010   -0.0000    0.0004   -0.0026   -0.0003    0.0004    0.0005   -0.0187
    22 C3     4s         0.0000   -0.0001    0.0001   -0.0001   -0.0000    0.0007   -0.0001    0.0000    0.0001   -0.0017
    23 C3     2px       -0.0002   -0.0001   -0.0002    0.0001    0.0007   -0.0010   -0.0003    0.0002    0.0002   -0.0240
    24 C3     3px        0.0001   -0.0002    0.0002   -0.0001    0.0013   -0.0010   -0.0010   -0.0001    0.0004   -0.0148
    25 C3     4px        0.0002   -0.0001    0.0002   -0.0002    0.0005   -0.0005   -0.0002   -0.0002    0.0001   -0.0073
    26 C3     2py       -0.0002    0.0007   -0.0003   -0.0005    0.0005   -0.0001    0.0000    0.0002   -0.0001   -0.0224
    27 C3     3py       -0.0001    0.0006    0.0002   -0.0004    0.0007    0.0000   -0.0000    0.0003    0.0001   -0.0076
    28 C3     4py        0.0001   -0.0000    0.0002    0.0000    0.0001   -0.0008   -0.0000    0.0001    0.0001   -0.0053
    29 C3     2pz        0.0001   -0.0009   -0.0001    0.0006    0.0000    0.0002   -0.0000   -0.0003    0.0000    0.0015
    30 C3     3pz        0.0001   -0.0008   -0.0002    0.0006   -0.0001    0.0001    0.0002   -0.0003   -0.0000    0.0040
    31 C3     4pz        0.0000    0.0001   -0.0000    0.0001   -0.0001   -0.0000    0.0000   -0.0000   -0.0000    0.0016
    32 C3     3d2-       0.0001    0.0001    0.0000   -0.0000    0.0001   -0.0000   -0.0001   -0.0000    0.0000    0.0034
    33 C3     3d1-      -0.0000   -0.0001    0.0000   -0.0000   -0.0000    0.0000    0.0001    0.0000   -0.0000   -0.0002
    34 C3     3d0       -0.0000   -0.0000    0.0001   -0.0000   -0.0000    0.0000    0.0001   -0.0000   -0.0000   -0.0027
    35 C3     3d1+       0.0000   -0.0001    0.0000   -0.0000    0.0000    0.0001    0.0001   -0.0001    0.0000   -0.0008
    36 C3     3d2+      -0.0000    0.0000    0.0001   -0.0000    0.0000    0.0000    0.0000    0.0001   -0.0000   -0.0004
    37 C4     1s         0.0000    0.0003   -0.0002    0.0003   -0.0001    0.0438    0.9991    0.0004   -0.0000   -0.0002
    38 C4     2s         0.0001    0.0011   -0.0012    0.0011   -0.0010    0.0010    0.0030   -0.0006   -0.0003    0.0308
    39 C4     3s         0.0000   -0.0003   -0.0009    0.0005   -0.0008    0.0003    0.0004   -0.0005   -0.0002    0.0088
    40 C4     4s        -0.0000   -0.0003   -0.0003    0.0001   -0.0003    0.0001    0.0015   -0.0002   -0.0001    0.0032
    41 C4     2px       -0.0001    0.0015    0.0006    0.0007    0.0002   -0.0007    0.0006   -0.0000    0.0001   -0.0049
    42 C4     3px       -0.0001    0.0009    0.0008    0.0005    0.0005    0.0000    0.0003   -0.0007    0.0002   -0.0067
    43 C4     4px        0.0000   -0.0003    0.0002   -0.0001    0.0002    0.0003    0.0004   -0.0005    0.0000   -0.0025
    44 C4     2py       -0.0001   -0.0029   -0.0002    0.0012   -0.0001    0.0002    0.0008   -0.0004   -0.0001   -0.0023
    45 C4     3py       -0.0002   -0.0019   -0.0000    0.0009   -0.0002    0.0004    0.0005   -0.0005   -0.0002    0.0047
    46 C4     4py       -0.0001    0.0004    0.0001   -0.0001   -0.0001    0.0002    0.0000   -0.0001   -0.0001    0.0006
    47 C4     2pz       -0.0001    0.0003    0.0000   -0.0009   -0.0001    0.0006   -0.0003    0.0002   -0.0001    0.0046
    48 C4     3pz       -0.0002    0.0003   -0.0001   -0.0007   -0.0002    0.0003   -0.0002    0.0006   -0.0002    0.0043
    49 C4     4pz       -0.0001   -0.0000   -0.0001    0.0001   -0.0000   -0.0001   -0.0001    0.0003   -0.0000    0.0016
    50 C4     3d2-       0.0000    0.0001    0.0000   -0.0001   -0.0000   -0.0000   -0.0002    0.0000    0.0000   -0.0009
    51 C4     3d1-       0.0000   -0.0000    0.0000    0.0002    0.0000    0.0000   -0.0002   -0.0001    0.0000   -0.0008
    52 C4     3d0        0.0000    0.0000   -0.0001    0.0000    0.0000    0.0000   -0.0002   -0.0000   -0.0000   -0.0009
    53 C4     3d1+      -0.0000   -0.0001   -0.0000    0.0000   -0.0000    0.0000   -0.0001   -0.0000   -0.0000   -0.0001
    54 C4     3d2+       0.0000    0.0001   -0.0000    0.0002    0.0001    0.0001   -0.0003   -0.0000    0.0000   -0.0009
    55 C6     1s         0.0000    0.0001   -0.0000    0.0003   -0.0000    0.0001   -0.0005    0.9997   -0.0000    0.0003
    56 C6     2s         0.0002    0.0006   -0.0002    0.0014   -0.0003    0.0005   -0.0003    0.0001   -0.0001    0.0060
    57 C6     3s         0.0001    0.0004   -0.0003    0.0003   -0.0003    0.0003   -0.0005   -0.0016   -0.0001    0.0052
    58 C6     4s         0.0000    0.0001   -0.0001   -0.0001   -0.0001    0.0000   -0.0003    0.0009   -0.0000    0.0022
    59 C6     2px        0.0000   -0.0002    0.0001   -0.0004    0.0002   -0.0003    0.0003   -0.0001    0.0001   -0.0056
    60 C6     3px        0.0000   -0.0002    0.0001    0.0002    0.0003   -0.0002    0.0004    0.0002    0.0001   -0.0052
    61 C6     4px        0.0000    0.0000   -0.0000    0.0002    0.0000    0.0000    0.0001   -0.0006   -0.0000   -0.0005
    62 C6     2py        0.0000   -0.0002   -0.0000    0.0001   -0.0000    0.0000    0.0002    0.0002    0.0000   -0.0007
    63 C6     3py        0.0000   -0.0001    0.0000    0.0001    0.0000   -0.0000    0.0004   -0.0001    0.0001   -0.0014
    64 C6     4py        0.0000    0.0001    0.0000    0.0000    0.0000   -0.0000    0.0001   -0.0000    0.0000   -0.0007
    65 C6     2pz        0.0001    0.0002   -0.0002    0.0002   -0.0000   -0.0001   -0.0003   -0.0000    0.0000    0.0012
    66 C6     3pz        0.0001    0.0001   -0.0002   -0.0002   -0.0001   -0.0002   -0.0004   -0.0001    0.0000    0.0015
    67 C6     4pz       -0.0000   -0.0000   -0.0000   -0.0001   -0.0000   -0.0000   -0.0001    0.0003   -0.0000    0.0008
    68 C6     3d2-       0.0000   -0.0000   -0.0000    0.0001   -0.0000   -0.0000    0.0001    0.0001    0.0000   -0.0000
    69 C6     3d1-      -0.0000   -0.0000   -0.0000    0.0000    0.0000   -0.0000   -0.0001   -0.0000    0.0000   -0.0000
    70 C6     3d0       -0.0000   -0.0000    0.0000    0.0001   -0.0000    0.0000    0.0000    0.0000   -0.0000    0.0001
    71 C6     3d1+       0.0000   -0.0000    0.0000    0.0001    0.0000   -0.0000   -0.0000    0.0001    0.0000   -0.0002
    72 C6     3d2+      -0.0000    0.0000   -0.0000   -0.0000   -0.0000    0.0000   -0.0000   -0.0001   -0.0000    0.0004
    73 C19    1s         0.0002    0.0000   -0.0000   -0.0000    0.0036    0.0002   -0.0001   -0.0000    0.9999   -0.0146
    74 C19    2s         0.0012    0.0000   -0.0000   -0.0001    0.0005    0.0008   -0.0003   -0.0002    0.0019   -0.0137
    75 C19    3s         0.0008   -0.0000    0.0001   -0.0001    0.0002    0.0003   -0.0002   -0.0002   -0.0005   -0.0395
    76 C19    4s         0.0001   -0.0000    0.0000   -0.0000    0.0001   -0.0000   -0.0001   -0.0001    0.0012   -0.0037
    77 C19    2px        0.0008   -0.0000   -0.0003   -0.0000   -0.0002    0.0002    0.0000   -0.0000   -0.0002   -0.0105
    78 C19    3px        0.0005   -0.0000   -0.0002   -0.0000   -0.0003    0.0002    0.0001   -0.0000   -0.0001   -0.0081
    79 C19    4px       -0.0002   -0.0000    0.0000    0.0000   -0.0000    0.0000    0.0000    0.0000    0.0002    0.0076
    80 C19    2py       -0.0001   -0.0001    0.0004   -0.0000    0.0004    0.0002   -0.0001   -0.0001   -0.0002    0.0209
    81 C19    3py       -0.0002   -0.0001    0.0003   -0.0000   -0.0001    0.0000   -0.0001   -0.0001   -0.0000   -0.0057
    82 C19    4py       -0.0002    0.0000   -0.0001   -0.0000   -0.0001   -0.0001    0.0000   -0.0000    0.0004    0.0057
    83 C19    2pz       -0.0000   -0.0001    0.0000    0.0001   -0.0000    0.0001   -0.0000   -0.0000   -0.0000    0.0000
    84 C19    3pz       -0.0000   -0.0001    0.0000    0.0001   -0.0000    0.0001   -0.0000   -0.0000   -0.0000    0.0011
    85 C19    4pz        0.0000    0.0000   -0.0000    0.0000    0.0000   -0.0000   -0.0000    0.0000   -0.0000   -0.0002
    86 C19    3d2-       0.0001   -0.0000   -0.0000    0.0000    0.0000    0.0001   -0.0000   -0.0000   -0.0001    0.0005
    87 C19    3d1-      -0.0000    0.0000   -0.0000   -0.0000    0.0000   -0.0000    0.0000    0.0000    0.0000   -0.0002
    88 C19    3d0       -0.0001   -0.0000   -0.0001    0.0000    0.0001   -0.0000    0.0000    0.0000    0.0001    0.0015
    89 C19    3d1+      -0.0000    0.0000   -0.0000   -0.0000    0.0000   -0.0000   -0.0000    0.0000    0.0000    0.0000
    90 C19    3d2+       0.0001   -0.0000   -0.0000   -0.0000   -0.0001   -0.0000    0.0000   -0.0000    0.0001   -0.0069
    91 N2     1s         0.0000    0.0000    0.9999   -0.0000   -0.0002    0.0001    0.0000    0.0000    0.0001   -0.0183
    92 N2     2s         0.0002    0.0000    0.0002   -0.0001   -0.0000    0.0014    0.0001    0.0001    0.0007    0.1147
    93 N2     3s         0.0002    0.0001   -0.0013   -0.0000   -0.0002    0.0008    0.0001    0.0001    0.0005   -0.0493
    94 N2     4s         0.0000    0.0001    0.0005   -0.0000    0.0001    0.0003    0.0000    0.0000    0.0001   -0.0118
    95 N2     2px        0.0003   -0.0003    0.0008    0.0002   -0.0003    0.0010    0.0003   -0.0002   -0.0006   -0.0289
    96 N2     3px        0.0004   -0.0005    0.0010    0.0002   -0.0002    0.0010    0.0003   -0.0004   -0.0006    0.0183
    97 N2     4px        0.0001   -0.0001   -0.0001    0.0000   -0.0003    0.0001    0.0000   -0.0001    0.0001   -0.0054
    98 N2     2py       -0.0016    0.0003   -0.0008    0.0000    0.0001    0.0008    0.0003    0.0000   -0.0004    0.0394
    99 N2     3py       -0.0019    0.0003   -0.0002   -0.0000    0.0000    0.0007    0.0003    0.0000   -0.0004    0.0170
   100 N2     4py        0.0000   -0.0000    0.0005   -0.0000   -0.0000    0.0002   -0.0000   -0.0000    0.0001   -0.0053
   101 N2     2pz        0.0000    0.0004   -0.0001   -0.0002    0.0000   -0.0001    0.0000    0.0001    0.0000   -0.0011
   102 N2     3pz        0.0000    0.0005   -0.0001   -0.0002    0.0000   -0.0002   -0.0000    0.0001    0.0001   -0.0015
   103 N2     4pz       -0.0000    0.0001   -0.0001    0.0000    0.0000   -0.0001    0.0000    0.0000    0.0000   -0.0004
   104 N2     3d2-       0.0001    0.0000   -0.0002   -0.0000   -0.0001   -0.0000    0.0000   -0.0000   -0.0000   -0.0028
   105 N2     3d1-       0.0000    0.0000    0.0000   -0.0000    0.0000    0.0000    0.0000    0.0000    0.0000   -0.0002
   106 N2     3d0       -0.0000    0.0000   -0.0000   -0.0000    0.0002    0.0001   -0.0000    0.0000   -0.0001   -0.0029
   107 N2     3d1+      -0.0000    0.0000   -0.0000   -0.0000   -0.0000    0.0000   -0.0000    0.0000   -0.0000    0.0000
   108 N2     3d2+      -0.0000   -0.0000    0.0000   -0.0000    0.0001   -0.0000   -0.0000   -0.0000    0.0000    0.0047
   109 N5     1s         0.0000    0.0001    0.0001    0.9999    0.0001   -0.0000   -0.0003    0.0001    0.0000   -0.0016
   110 N5     2s         0.0000    0.0009    0.0004    0.0005    0.0003    0.0000   -0.0003    0.0017    0.0001   -0.0005
   111 N5     3s         0.0000    0.0006    0.0003   -0.0011    0.0002    0.0000   -0.0004    0.0010    0.0001   -0.0051
   112 N5     4s         0.0000    0.0001    0.0001    0.0006    0.0001   -0.0000    0.0000    0.0004    0.0000   -0.0010
   113 N5     2px       -0.0001   -0.0012   -0.0000   -0.0006    0.0002   -0.0003    0.0004    0.0008    0.0000   -0.0024
   114 N5     3px       -0.0002   -0.0014    0.0000   -0.0003    0.0003   -0.0004    0.0003    0.0008    0.0000   -0.0040
   115 N5     4px       -0.0000    0.0000    0.0000    0.0002    0.0001    0.0000   -0.0002    0.0002    0.0000   -0.0013
   116 N5     2py        0.0001    0.0009   -0.0001    0.0007    0.0000   -0.0002   -0.0002    0.0000    0.0000   -0.0028
   117 N5     3py        0.0001    0.0011   -0.0001    0.0003    0.0000   -0.0001   -0.0001   -0.0002    0.0000   -0.0010
   118 N5     4py       -0.0000    0.0000    0.0000   -0.0004    0.0000    0.0001   -0.0002   -0.0002   -0.0000    0.0000
   119 N5     2pz        0.0000    0.0003    0.0000    0.0001   -0.0002    0.0003    0.0000   -0.0005   -0.0000    0.0044
   120 N5     3pz        0.0001    0.0004   -0.0000    0.0000   -0.0004    0.0004   -0.0001   -0.0003   -0.0001    0.0062
   121 N5     4pz        0.0000   -0.0000   -0.0000    0.0001   -0.0001    0.0000    0.0002   -0.0000   -0.0000    0.0017
   122 N5     3d2-      -0.0000   -0.0000    0.0000   -0.0001   -0.0000    0.0000    0.0000   -0.0000   -0.0000    0.0003
   123 N5     3d1-       0.0000    0.0000   -0.0000    0.0000   -0.0000   -0.0000    0.0000    0.0001    0.0000   -0.0001
   124 N5     3d0       -0.0000   -0.0000   -0.0000   -0.0000   -0.0000   -0.0000    0.0001    0.0000   -0.0000    0.0001
   125 N5     3d1+       0.0000   -0.0001   -0.0000    0.0001    0.0000   -0.0000    0.0001    0.0001    0.0000   -0.0001
   126 N5     3d2+      -0.0000    0.0001   -0.0000   -0.0001   -0.0000   -0.0000   -0.0001    0.0000   -0.0000    0.0001
   127 O7     1s         0.9997    0.0000    0.0000    0.0000   -0.0003   -0.0000    0.0000    0.0000    0.0001   -0.0236
   128 O7     2s        -0.0016    0.0000    0.0001    0.0000    0.0004   -0.0001    0.0002    0.0000    0.0003    0.6931
   129 O7     3s        -0.0014    0.0000    0.0001    0.0000   -0.0000    0.0000    0.0001    0.0000    0.0003   -0.0339
   130 O7     4s         0.0000   -0.0000   -0.0000    0.0000    0.0000    0.0000    0.0000    0.0000    0.0001   -0.0137
   131 O7     2px        0.0001   -0.0000   -0.0003    0.0000    0.0004   -0.0000    0.0001   -0.0000    0.0001    0.0860
   132 O7     3px       -0.0003   -0.0000   -0.0004    0.0000   -0.0000    0.0000    0.0001   -0.0000    0.0001   -0.0262
   133 O7     4px        0.0008   -0.0000   -0.0001    0.0000    0.0001    0.0000    0.0000   -0.0000   -0.0000   -0.0017
   134 O7     2py       -0.0001   -0.0000   -0.0002   -0.0000   -0.0006    0.0000    0.0000   -0.0000   -0.0001   -0.1204
   135 O7     3py        0.0006   -0.0000   -0.0002   -0.0000   -0.0003    0.0000    0.0000   -0.0000   -0.0001    0.0367
   136 O7     4py       -0.0011   -0.0000    0.0001   -0.0000   -0.0003   -0.0000    0.0000   -0.0000    0.0000    0.0001
   137 O7     2pz        0.0000    0.0000   -0.0000    0.0000    0.0000    0.0000   -0.0000    0.0000    0.0000    0.0061
   138 O7     3pz       -0.0000    0.0001   -0.0000    0.0000   -0.0000    0.0000   -0.0001    0.0000    0.0000   -0.0012
   139 O7     4pz        0.0000    0.0000   -0.0000    0.0000    0.0000    0.0000   -0.0000    0.0000    0.0000    0.0001
   140 O7     3d2-       0.0001   -0.0000    0.0000   -0.0000   -0.0002    0.0000   -0.0000    0.0000   -0.0000   -0.0181
   141 O7     3d1-       0.0000   -0.0000   -0.0000    0.0000   -0.0000    0.0000   -0.0000    0.0000   -0.0000   -0.0010
   142 O7     3d0       -0.0000    0.0000   -0.0001    0.0000   -0.0001   -0.0000    0.0000    0.0000   -0.0000   -0.0106
   143 O7     3d1+      -0.0000    0.0000   -0.0000   -0.0000    0.0000    0.0000   -0.0000    0.0000   -0.0000    0.0007
   144 O7     3d2+       0.0000   -0.0000   -0.0001    0.0000   -0.0001   -0.0000    0.0000    0.0000   -0.0000   -0.0067
   145 O8     1s        -0.0000    0.9997   -0.0000    0.0000    0.0000    0.0000   -0.0002   -0.0000    0.0000   -0.0014
   146 O8     2s        -0.0001   -0.0014   -0.0002    0.0002    0.0002    0.0001    0.0007   -0.0003    0.0001    0.0211
   147 O8     3s        -0.0001   -0.0014   -0.0002    0.0002    0.0002    0.0001    0.0002   -0.0001    0.0001   -0.0031
   148 O8     4s        -0.0001    0.0001   -0.0001    0.0000    0.0001    0.0000    0.0001   -0.0000    0.0000   -0.0009
   149 O8     2px        0.0001   -0.0001    0.0001   -0.0002   -0.0001    0.0000   -0.0002   -0.0000   -0.0001   -0.0023
   150 O8     3px        0.0001    0.0002    0.0001   -0.0002   -0.0002    0.0001   -0.0002   -0.0001   -0.0001    0.0020
   151 O8     4px        0.0000   -0.0006   -0.0000    0.0001   -0.0000    0.0000   -0.0001   -0.0000   -0.0000    0.0001
   152 O8     2py        0.0001    0.0002   -0.0000   -0.0001    0.0001    0.0001    0.0008   -0.0001    0.0000    0.0030
   153 O8     3py        0.0001   -0.0005   -0.0000   -0.0002    0.0000    0.0000    0.0002   -0.0000   -0.0000   -0.0032
   154 O8     4py        0.0000    0.0012   -0.0000   -0.0001   -0.0000   -0.0000    0.0001    0.0000   -0.0000    0.0000
   155 O8     2pz       -0.0000   -0.0000   -0.0000    0.0002    0.0000   -0.0001   -0.0000    0.0000    0.0000   -0.0001
   156 O8     3pz       -0.0000   -0.0000   -0.0001    0.0002    0.0000   -0.0001    0.0000   -0.0000    0.0001   -0.0002
   157 O8     4pz       -0.0000   -0.0001   -0.0000    0.0000    0.0000   -0.0000    0.0000   -0.0000    0.0000   -0.0001
   158 O8     3d2-      -0.0000    0.0001    0.0000   -0.0000   -0.0000   -0.0000   -0.0002   -0.0000   -0.0000   -0.0005
   159 O8     3d1-      -0.0000   -0.0000    0.0000    0.0000   -0.0000   -0.0000   -0.0000    0.0000    0.0000   -0.0000
   160 O8     3d0       -0.0000    0.0000    0.0000   -0.0000   -0.0000   -0.0000   -0.0001   -0.0000   -0.0000   -0.0003
   161 O8     3d1+       0.0000   -0.0001    0.0000   -0.0000   -0.0000   -0.0000    0.0001   -0.0000   -0.0000    0.0001
   162 O8     3d2+      -0.0000    0.0001   -0.0000    0.0000    0.0000   -0.0000   -0.0002    0.0000    0.0000   -0.0002
   163 H9     1s         0.0001    0.0001    0.0001   -0.0001    0.0000   -0.0004   -0.0001   -0.0000    0.0003    0.0136
   164 H9     2s         0.0001    0.0001    0.0001   -0.0000    0.0000   -0.0003   -0.0001   -0.0000   -0.0002    0.0032
   165 H9     2px       -0.0000    0.0000    0.0000   -0.0000    0.0000   -0.0000   -0.0000   -0.0000   -0.0000    0.0009
   166 H9     2py       -0.0001    0.0000   -0.0000    0.0000    0.0000   -0.0000   -0.0000    0.0000    0.0000    0.0011
   167 H9     2pz       -0.0000   -0.0000    0.0000    0.0000   -0.0000    0.0000    0.0000    0.0000    0.0001   -0.0007
   168 H10    1s         0.0001   -0.0002    0.0002   -0.0000    0.0000   -0.0002   -0.0001   -0.0001    0.0003    0.0148
   169 H10    2s         0.0001   -0.0002    0.0001   -0.0000    0.0000   -0.0001   -0.0001   -0.0000   -0.0003    0.0037
   170 H10    2px       -0.0000   -0.0000    0.0001    0.0000    0.0000   -0.0000   -0.0000   -0.0000   -0.0000    0.0009
   171 H10    2py       -0.0001   -0.0000   -0.0000   -0.0000    0.0000   -0.0000   -0.0000    0.0000    0.0000    0.0011
   172 H10    2pz        0.0000   -0.0000   -0.0000   -0.0000    0.0000   -0.0000   -0.0000   -0.0000   -0.0001    0.0006
   173 H11    1s        -0.0004   -0.0001    0.0005   -0.0000    0.0003   -0.0001   -0.0001   -0.0001    0.0004    0.0210
   174 H11    2s        -0.0002   -0.0001    0.0004   -0.0000    0.0002   -0.0001   -0.0001   -0.0001   -0.0002    0.0064
   175 H11    2px       -0.0000    0.0000   -0.0001   -0.0000   -0.0000    0.0000    0.0000    0.0000    0.0001   -0.0001
   176 H11    2py       -0.0000   -0.0000    0.0000   -0.0000    0.0001   -0.0000    0.0000   -0.0000   -0.0000    0.0019
   177 H11    2pz       -0.0000    0.0000    0.0000   -0.0000   -0.0000   -0.0000    0.0000    0.0000   -0.0000   -0.0000
   178 H12    1s        -0.0012    0.0005   -0.0010    0.0000    0.0000   -0.0002    0.0001   -0.0000   -0.0005    0.0361
   179 H12    2s        -0.0007    0.0004   -0.0007    0.0000   -0.0000   -0.0001    0.0001   -0.0000   -0.0003   -0.0023
   180 H12    2px        0.0001   -0.0000    0.0002    0.0000   -0.0001    0.0000   -0.0000    0.0000    0.0001   -0.0047
   181 H12    2py       -0.0000    0.0001   -0.0004    0.0000   -0.0000    0.0000    0.0000   -0.0000   -0.0000    0.0040
   182 H12    2pz       -0.0000   -0.0000   -0.0000   -0.0000    0.0000    0.0000    0.0000   -0.0000    0.0000    0.0002
   183 H13    1s         0.0001   -0.0005   -0.0004    0.0005   -0.0004    0.0007   -0.0003   -0.0001    0.0001    0.0144
   184 H13    2s         0.0001   -0.0003   -0.0002    0.0004   -0.0002   -0.0000   -0.0002   -0.0001    0.0001   -0.0009
   185 H13    2px        0.0000   -0.0000    0.0000   -0.0000   -0.0000    0.0000    0.0001    0.0000   -0.0000   -0.0004
   186 H13    2py        0.0000   -0.0000    0.0000   -0.0001    0.0000   -0.0001    0.0000   -0.0000   -0.0000   -0.0011
   187 H13    2pz        0.0000   -0.0000    0.0000    0.0000   -0.0000   -0.0000   -0.0000   -0.0000   -0.0000    0.0010
   188 H14    1s         0.0002    0.0008   -0.0006   -0.0002   -0.0007    0.0009   -0.0002   -0.0002   -0.0001    0.0119
   189 H14    2s         0.0001    0.0005   -0.0003   -0.0002   -0.0005    0.0001   -0.0001   -0.0001   -0.0001    0.0025
   190 H14    2px        0.0000   -0.0000    0.0000   -0.0000    0.0001    0.0000    0.0001   -0.0000   -0.0000   -0.0005
   191 H14    2py       -0.0000   -0.0000    0.0001    0.0000    0.0000   -0.0000   -0.0000    0.0000   -0.0000   -0.0004
   192 H14    2pz       -0.0000   -0.0000    0.0000    0.0000    0.0001    0.0000   -0.0000    0.0000    0.0000   -0.0011
   193 H15    1s        -0.0002   -0.0014    0.0001   -0.0008   -0.0000    0.0001    0.0003   -0.0001   -0.0001    0.0059
   194 H15    2s        -0.0001   -0.0008    0.0001   -0.0006   -0.0000    0.0001    0.0001   -0.0000   -0.0001    0.0028
   195 H15    2px       -0.0000   -0.0000    0.0000   -0.0003   -0.0000    0.0000   -0.0000    0.0000   -0.0000    0.0006
   196 H15    2py        0.0000    0.0001   -0.0000    0.0004    0.0000   -0.0000   -0.0001    0.0000    0.0000   -0.0007
   197 H15    2pz       -0.0000   -0.0000    0.0000   -0.0000    0.0000    0.0000    0.0001   -0.0000    0.0000   -0.0000
   198 H16    1s         0.0001    0.0003   -0.0002   -0.0005   -0.0001   -0.0002   -0.0004    0.0005    0.0000    0.0019
   199 H16    2s         0.0001    0.0002   -0.0001   -0.0002   -0.0001   -0.0001   -0.0003   -0.0001   -0.0000    0.0017
   200 H16    2px       -0.0000   -0.0000   -0.0000    0.0000    0.0000   -0.0000   -0.0000   -0.0000    0.0000    0.0000
   201 H16    2py       -0.0000   -0.0000    0.0000    0.0000   -0.0000    0.0000    0.0000   -0.0000   -0.0000    0.0000
   202 H16    2pz        0.0000    0.0000   -0.0000   -0.0000   -0.0000   -0.0000   -0.0001   -0.0000    0.0000    0.0001
   203 H17    1s        -0.0000    0.0003    0.0001   -0.0005   -0.0001    0.0001   -0.0004    0.0005   -0.0001    0.0037
   204 H17    2s        -0.0000    0.0002    0.0001   -0.0002   -0.0001    0.0001   -0.0003   -0.0001   -0.0001    0.0025
   205 H17    2px        0.0000   -0.0000   -0.0000    0.0000    0.0000   -0.0000    0.0000   -0.0000    0.0000   -0.0002
   206 H17    2py        0.0000   -0.0000    0.0000    0.0000    0.0000   -0.0000    0.0000    0.0000    0.0000   -0.0004
   207 H17    2pz        0.0000    0.0000    0.0000   -0.0000    0.0000    0.0000    0.0000    0.0000    0.0000   -0.0002
   208 H18    1s        -0.0001   -0.0000   -0.0002   -0.0001   -0.0002    0.0001   -0.0000    0.0010    0.0000    0.0038
   209 H18    2s        -0.0000    0.0001   -0.0001   -0.0000   -0.0001    0.0001    0.0001    0.0001    0.0000    0.0023
   210 H18    2px        0.0000    0.0000    0.0000   -0.0000    0.0000   -0.0000   -0.0000   -0.0001   -0.0000   -0.0001
   211 H18    2py       -0.0000    0.0000   -0.0000    0.0000   -0.0000    0.0000   -0.0000    0.0001   -0.0000    0.0006
   212 H18    2pz       -0.0000    0.0000    0.0000   -0.0000    0.0000    0.0000    0.0000    0.0000   -0.0000    0.0000
 
 
      Orbital                11        12        13        14        15        16        17        18        19        20
      Energy            -1.3597   -1.2538   -1.2128   -1.0287   -0.9716   -0.9143   -0.8188   -0.7765   -0.7186   -0.6937
      Occ. No.           2.0000    2.0000    2.0000    2.0000    2.0000    2.0000    2.0000    2.0000    2.0000    2.0000
 
     1 C1     1s         0.0044   -0.0091    0.0023   -0.0154    0.0000    0.0065    0.0132    0.0023    0.0069   -0.0029
     2 C1     2s         0.0143    0.1303    0.0095    0.2866   -0.0361   -0.0917   -0.3756   -0.0419   -0.2664    0.0546
     3 C1     3s         0.0193   -0.0008    0.0134   -0.0117   -0.0003    0.0094    0.0022    0.0035    0.0071   -0.0176
     4 C1     4s         0.0055    0.0007    0.0043   -0.0036   -0.0010    0.0042    0.0021    0.0013    0.0038   -0.0029
     5 C1     2px        0.0326    0.1540    0.0155   -0.0080    0.1038   -0.0966   -0.1340   -0.0063    0.1600   -0.2501
     6 C1     3px        0.0177   -0.0366    0.0273   -0.0504   -0.0310    0.0405    0.0237   -0.0067   -0.0719    0.0504
     7 C1     4px        0.0090    0.0285    0.0050   -0.0102    0.0104   -0.0062   -0.0098   -0.0021    0.0058   -0.0175
     8 C1     2py        0.0049   -0.0373    0.0194   -0.1576    0.0614    0.0020   -0.0565    0.0339    0.0490    0.1626
     9 C1     3py        0.0231    0.0446    0.0216    0.0141   -0.0493    0.0415    0.0065   -0.0026   -0.0006   -0.0664
    10 C1     4py        0.0002   -0.0059    0.0039   -0.0247    0.0066    0.0041   -0.0080    0.0017   -0.0023    0.0089
    11 C1     2pz        0.0016   -0.0037   -0.0030    0.0104    0.0004   -0.0047   -0.0029   -0.0011    0.0020   -0.0035
    12 C1     3pz        0.0012   -0.0097   -0.0043    0.0048    0.0051   -0.0086   -0.0049   -0.0004    0.0025    0.0027
    13 C1     4pz       -0.0001   -0.0014   -0.0012    0.0027    0.0007   -0.0025   -0.0000    0.0004    0.0011    0.0005
    14 C1     3d2-       0.0033    0.0144   -0.0001    0.0082   -0.0091    0.0069   -0.0128    0.0069    0.0174   -0.0052
    15 C1     3d1-       0.0001    0.0006    0.0000   -0.0007    0.0007   -0.0003    0.0005    0.0001    0.0009   -0.0008
    16 C1     3d0        0.0008   -0.0066    0.0000   -0.0117   -0.0003    0.0050    0.0134    0.0012    0.0062   -0.0021
    17 C1     3d1+       0.0000   -0.0009    0.0001   -0.0001    0.0008   -0.0003    0.0002    0.0001    0.0003    0.0007
    18 C1     3d2+       0.0030    0.0278   -0.0010    0.0029    0.0152   -0.0133   -0.0103   -0.0005    0.0159   -0.0164
    19 C3     1s        -0.0167   -0.0298   -0.0063    0.0340    0.0265   -0.0219    0.0099   -0.0058    0.0002    0.0003
    20 C3     2s         0.0268    0.1748    0.0152   -0.2900   -0.2414    0.3087   -0.1051    0.0706   -0.0298   -0.0469
    21 C3     3s        -0.0413   -0.0472   -0.0172    0.0583    0.0452   -0.0181    0.0225   -0.0123    0.0023    0.0006
    22 C3     4s        -0.0054   -0.0095   -0.0018    0.0159    0.0107   -0.0052    0.0058   -0.0045    0.0020    0.0021
    23 C3     2px        0.0187   -0.0555    0.0255   -0.0304   -0.0697    0.0023    0.0504   -0.1425   -0.2492   -0.1161
    24 C3     3px        0.0020    0.0044    0.0169   -0.0271    0.0230    0.0165   -0.0115    0.0228    0.0381    0.0153
    25 C3     4px        0.0095   -0.0085    0.0068   -0.0049    0.0020   -0.0022    0.0029   -0.0076   -0.0024   -0.0030
    26 C3     2py       -0.0368   -0.0999    0.0097    0.0083   -0.0332   -0.0344   -0.1467    0.0118   -0.0216   -0.2294
    27 C3     3py       -0.0025    0.0064   -0.0043   -0.0364    0.0115   -0.0267    0.0110    0.0091    0.0063    0.0346
    28 C3     4py        0.0047   -0.0027    0.0025   -0.0138   -0.0080    0.0047   -0.0079    0.0081   -0.0026   -0.0093
    29 C3     2pz        0.0032    0.0007   -0.0180    0.0121    0.0257    0.0345    0.0050    0.0568    0.0437    0.0567
    30 C3     3pz        0.0137    0.0039   -0.0015   -0.0057   -0.0162    0.0216   -0.0012   -0.0115   -0.0070   -0.0079
    31 C3     4pz       -0.0043    0.0070   -0.0005   -0.0046   -0.0038    0.0121   -0.0006    0.0012   -0.0016   -0.0001
    32 C3     3d2-      -0.0011    0.0188    0.0044   -0.0027    0.0077   -0.0020    0.0030    0.0061    0.0198    0.0220
    33 C3     3d1-       0.0045   -0.0022   -0.0018    0.0003   -0.0018    0.0008    0.0019   -0.0036   -0.0082   -0.0013
    34 C3     3d0       -0.0031   -0.0122    0.0017    0.0061   -0.0015   -0.0030   -0.0059   -0.0027   -0.0057   -0.0118
    35 C3     3d1+      -0.0009   -0.0038   -0.0030    0.0048    0.0077    0.0012   -0.0056    0.0097    0.0109   -0.0005
    36 C3     3d2+       0.0008   -0.0083    0.0024   -0.0002   -0.0094   -0.0035   -0.0160   -0.0096   -0.0080   -0.0169
    37 C4     1s        -0.0401    0.0069   -0.0059    0.0084    0.0147    0.0078    0.0035    0.0162    0.0029    0.0023
    38 C4     2s         0.3593    0.0023    0.1199   -0.1048   -0.2248   -0.0546   -0.0155   -0.4030   -0.0715   -0.0349
    39 C4     3s        -0.0084    0.0153    0.0073    0.0153    0.0113    0.0176    0.0115    0.0080    0.0041    0.0041
    40 C4     4s         0.0017    0.0045    0.0023    0.0048    0.0038    0.0056    0.0027    0.0049    0.0033    0.0025
    41 C4     2px        0.0661   -0.0481    0.0405    0.0666    0.1104   -0.0329   -0.0180   -0.0490    0.1604    0.0795
    42 C4     3px       -0.0203    0.0027    0.0488   -0.0313    0.0368    0.0866   -0.0055   -0.0040   -0.0675   -0.0378
    43 C4     4px        0.0172   -0.0117    0.0129    0.0066    0.0199    0.0054   -0.0040   -0.0063    0.0032   -0.0005
    44 C4     2py       -0.0727    0.0066    0.1536   -0.0310   -0.0772   -0.0691   -0.0197   -0.0936    0.0287   -0.0300
    45 C4     3py        0.0602   -0.0331   -0.0448    0.0202    0.0352    0.0252   -0.0180    0.0227   -0.0151    0.0044
    46 C4     4py       -0.0214   -0.0020    0.0288   -0.0020   -0.0079   -0.0053   -0.0095   -0.0032    0.0021   -0.0018
    47 C4     2pz       -0.0096    0.0143   -0.0826   -0.0301   -0.0375    0.0388    0.0140    0.0521   -0.1202   -0.0424
    48 C4     3pz       -0.0146   -0.0029   -0.0163    0.0120   -0.0228   -0.0746    0.0058   -0.0060    0.0466    0.0246
    49 C4     4pz       -0.0028    0.0035   -0.0193   -0.0043   -0.0074   -0.0028    0.0026    0.0049   -0.0041    0.0001
    50 C4     3d2-      -0.0249    0.0052    0.0233    0.0011    0.0002   -0.0085    0.0073   -0.0099    0.0104    0.0127
    51 C4     3d1-      -0.0114    0.0009   -0.0149   -0.0002    0.0050    0.0135   -0.0025    0.0096   -0.0077   -0.0063
    52 C4     3d0       -0.0226    0.0041    0.0051    0.0014    0.0044    0.0015    0.0020    0.0019    0.0017    0.0028
    53 C4     3d1+      -0.0040   -0.0026   -0.0105    0.0076    0.0097   -0.0032   -0.0002    0.0171    0.0010   -0.0020
    54 C4     3d2+      -0.0228    0.0077   -0.0009   -0.0067    0.0002    0.0158   -0.0012   -0.0051   -0.0011    0.0025
    55 C6     1s        -0.0092    0.0051   -0.0345   -0.0134   -0.0370   -0.0431    0.0055    0.0077    0.0054    0.0057
    56 C6     2s         0.0283    0.0112    0.1576    0.0834    0.2463    0.3743   -0.0267   -0.1103   -0.0470   -0.0424
    57 C6     3s        -0.0137    0.0225   -0.0598   -0.0211   -0.0714   -0.0698    0.0171    0.0134    0.0142    0.0164
    58 C6     4s        -0.0004    0.0066   -0.0098   -0.0035   -0.0157   -0.0141    0.0046    0.0036    0.0037    0.0044
    59 C6     2px       -0.0203   -0.0039   -0.0936   -0.0216   -0.0140    0.0318   -0.0294   -0.1013   -0.0672   -0.1087
    60 C6     3px        0.0033   -0.0109    0.0173    0.0033    0.0188    0.0031   -0.0019    0.0088    0.0121    0.0168
    61 C6     4px       -0.0033   -0.0007   -0.0012    0.0038    0.0119    0.0180   -0.0033   -0.0093   -0.0033   -0.0049
    62 C6     2py       -0.0058    0.0023    0.0029   -0.0018    0.0083    0.0129    0.0094    0.1172   -0.0925   -0.0503
    63 C6     3py       -0.0010    0.0014    0.0015   -0.0024    0.0074    0.0120   -0.0030   -0.0038    0.0083    0.0037
    64 C6     4py       -0.0004    0.0001    0.0023    0.0001    0.0020    0.0005    0.0024    0.0063   -0.0052   -0.0024
    65 C6     2pz        0.0133    0.0038    0.0495    0.0065    0.0022   -0.0194    0.0102    0.0092    0.0689    0.0740
    66 C6     3pz       -0.0008    0.0092   -0.0100   -0.0066   -0.0156   -0.0025    0.0011   -0.0019   -0.0091   -0.0113
    67 C6     4pz        0.0019    0.0012   -0.0002   -0.0017   -0.0080   -0.0097    0.0009    0.0025    0.0035    0.0033
    68 C6     3d2-       0.0000    0.0001   -0.0021   -0.0010   -0.0021   -0.0014   -0.0014   -0.0095    0.0024   -0.0003
    69 C6     3d1-      -0.0003    0.0002    0.0016   -0.0003   -0.0001   -0.0002    0.0010    0.0084   -0.0049   -0.0021
    70 C6     3d0       -0.0009    0.0003   -0.0039   -0.0013   -0.0025   -0.0006   -0.0003   -0.0023   -0.0036   -0.0036
    71 C6     3d1+      -0.0041    0.0008   -0.0167   -0.0036   -0.0045    0.0021   -0.0023   -0.0047   -0.0109   -0.0129
    72 C6     3d2+       0.0032   -0.0004    0.0164    0.0031    0.0036   -0.0025    0.0028    0.0127    0.0042    0.0086
    73 C19    1s         0.0007   -0.0101    0.0014   -0.0559    0.0433   -0.0214   -0.0134   -0.0040   -0.0092   -0.0026
    74 C19    2s         0.0047   -0.0004    0.0073    0.2986   -0.2758    0.1591    0.0703    0.0409    0.0986    0.0039
    75 C19    3s         0.0067   -0.0285    0.0100   -0.1103    0.0815   -0.0363   -0.0370   -0.0077   -0.0167   -0.0130
    76 C19    4s         0.0029   -0.0033    0.0037   -0.0235    0.0183   -0.0079   -0.0101   -0.0024   -0.0051   -0.0037
    77 C19    2px        0.0027    0.0234   -0.0016    0.0556    0.0008   -0.0278   -0.0434   -0.0272   -0.0548   -0.1374
    78 C19    3px       -0.0006   -0.0025   -0.0018    0.0053    0.0059   -0.0028    0.0025    0.0046    0.0130    0.0127
    79 C19    4px       -0.0012    0.0002   -0.0007   -0.0075    0.0126   -0.0087   -0.0011   -0.0034   -0.0060   -0.0032
    80 C19    2py        0.0045    0.0090    0.0071    0.0456   -0.0123   -0.0145   -0.0605   -0.0390   -0.2110    0.0393
    81 C19    3py        0.0063   -0.0018    0.0080   -0.0314    0.0176   -0.0014    0.0102   -0.0000    0.0218   -0.0109
    82 C19    4py        0.0005    0.0014    0.0003   -0.0125    0.0140   -0.0093   -0.0129   -0.0022   -0.0089    0.0011
    83 C19    2pz        0.0028   -0.0005    0.0001   -0.0029    0.0000    0.0035    0.0022   -0.0001    0.0099    0.0007
    84 C19    3pz        0.0026    0.0009    0.0005   -0.0006   -0.0018    0.0036    0.0002   -0.0024   -0.0017    0.0002
    85 C19    4pz       -0.0000    0.0005    0.0003    0.0001   -0.0010    0.0009    0.0008    0.0001    0.0002   -0.0001
    86 C19    3d2-       0.0005    0.0059   -0.0001    0.0110   -0.0022   -0.0027   -0.0070   -0.0033   -0.0142   -0.0006
    87 C19    3d1-      -0.0001    0.0002    0.0000   -0.0009    0.0004   -0.0000    0.0004    0.0003    0.0013    0.0003
    88 C19    3d0       -0.0001   -0.0008    0.0001   -0.0088    0.0038    0.0006    0.0033    0.0026    0.0081    0.0090
    89 C19    3d1+      -0.0003   -0.0001    0.0001   -0.0006    0.0000    0.0001    0.0005    0.0003    0.0003    0.0004
    90 C19    3d2+       0.0006    0.0024   -0.0001   -0.0071    0.0049   -0.0010    0.0029    0.0021    0.0142   -0.0038
    91 N2     1s        -0.0067   -0.0413    0.0004   -0.0042   -0.0040    0.0011   -0.0038    0.0000    0.0023    0.0009
    92 N2     2s         0.0648    0.5844   -0.0205   -0.0162    0.2075   -0.1203    0.1578   -0.0070    0.1232    0.0588
    93 N2     3s        -0.0148   -0.0792   -0.0013   -0.0106    0.0044   -0.0052   -0.0060    0.0003    0.0111    0.0022
    94 N2     4s        -0.0039   -0.0255    0.0001   -0.0010   -0.0012    0.0000   -0.0026   -0.0001   -0.0000   -0.0002
    95 N2     2px        0.0219   -0.0374    0.0053   -0.1441   -0.0370    0.1235    0.3621    0.0072   -0.1007    0.2674
    96 N2     3px        0.0143   -0.0196    0.0098    0.0334    0.0507   -0.0602   -0.1150   -0.0064   -0.0025   -0.0630
    97 N2     4px        0.0055    0.0006    0.0023   -0.0059    0.0070   -0.0042    0.0010   -0.0009   -0.0022   -0.0062
    98 N2     2py       -0.0024   -0.0032    0.0022   -0.1170   -0.0456    0.1091   -0.2251    0.1427    0.2392    0.2276
    99 N2     3py       -0.0112   -0.0458   -0.0053    0.0421    0.0460   -0.0547    0.0309   -0.0373   -0.0544   -0.0323
   100 N2     4py        0.0003   -0.0117   -0.0001   -0.0006    0.0047   -0.0048   -0.0084   -0.0024   -0.0016   -0.0049
   101 N2     2pz       -0.0074    0.0049    0.0008    0.0089    0.0063   -0.0088    0.0062    0.0090    0.0119    0.0044
   102 N2     3pz       -0.0079    0.0107    0.0011   -0.0032   -0.0039   -0.0033    0.0093    0.0043   -0.0011   -0.0001
   103 N2     4pz       -0.0018    0.0009    0.0001    0.0001    0.0003   -0.0005    0.0017    0.0015   -0.0007   -0.0005
   104 N2     3d2-       0.0011    0.0067    0.0003   -0.0022   -0.0083    0.0091   -0.0066    0.0043    0.0068    0.0042
   105 N2     3d1-      -0.0002   -0.0008   -0.0001    0.0008    0.0006   -0.0003    0.0001    0.0005   -0.0003   -0.0002
   106 N2     3d0       -0.0023   -0.0170    0.0008    0.0014   -0.0042    0.0013   -0.0005   -0.0005   -0.0018    0.0001
   107 N2     3d1+      -0.0005   -0.0003    0.0003    0.0001   -0.0001   -0.0002   -0.0003    0.0003    0.0006    0.0001
   108 N2     3d2+       0.0011    0.0057    0.0004    0.0101    0.0057   -0.0113   -0.0182   -0.0052   -0.0033   -0.0143
   109 N5     1s        -0.0201    0.0014   -0.0423   -0.0017    0.0011    0.0028   -0.0016   -0.0024    0.0022    0.0016
   110 N5     2s         0.1338   -0.0352    0.5762    0.0428   -0.0159   -0.2232    0.0566    0.1743    0.0848    0.0997
   111 N5     3s        -0.0502    0.0024   -0.0788   -0.0034   -0.0040   -0.0150    0.0006    0.0032    0.0120    0.0098
   112 N5     4s        -0.0119    0.0017   -0.0263   -0.0018   -0.0022   -0.0018    0.0003   -0.0014    0.0013    0.0008
   113 N5     2px        0.0160   -0.0199   -0.0104    0.0519    0.1366    0.1358   -0.0084   -0.0181    0.0923    0.1218
   114 N5     3px        0.0141   -0.0238   -0.0268   -0.0106   -0.0458   -0.0837   -0.0074    0.0085   -0.0164   -0.0264
   115 N5     4px       -0.0074   -0.0040   -0.0063    0.0019    0.0019   -0.0043   -0.0022   -0.0038    0.0011   -0.0010
   116 N5     2py       -0.0367    0.0094   -0.0067    0.0115    0.0471    0.0320    0.0537    0.3748   -0.2133   -0.0990
   117 N5     3py        0.0103   -0.0017    0.0277    0.0040    0.0064    0.0053   -0.0026   -0.0972    0.0352    0.0188
   118 N5     4py       -0.0015   -0.0016    0.0098    0.0042    0.0037   -0.0003    0.0004    0.0063   -0.0017   -0.0018
   119 N5     2pz        0.0090    0.0122    0.0148   -0.0318   -0.1027   -0.0883   -0.0075   -0.1457    0.0270   -0.0245
   120 N5     3pz       -0.0135    0.0176    0.0036    0.0177    0.0215    0.0424    0.0095    0.0338   -0.0034    0.0078
   121 N5     4pz        0.0043    0.0031   -0.0010    0.0012   -0.0026    0.0016    0.0021   -0.0005    0.0001    0.0011
   122 N5     3d2-       0.0014   -0.0000    0.0031   -0.0020   -0.0047   -0.0012   -0.0023   -0.0168    0.0042    0.0009
   123 N5     3d1-      -0.0045    0.0012   -0.0104    0.0009    0.0049    0.0071    0.0014    0.0098   -0.0037   -0.0002
   124 N5     3d0       -0.0014    0.0009   -0.0057   -0.0014   -0.0017    0.0020   -0.0009   -0.0059    0.0003   -0.0002
   125 N5     3d1+      -0.0008    0.0001   -0.0149   -0.0008   -0.0018   -0.0028    0.0004    0.0025   -0.0012   -0.0016
   126 N5     3d2+      -0.0041    0.0017    0.0015    0.0010    0.0062    0.0115    0.0003    0.0032   -0.0019    0.0016
   127 O7     1s         0.0011    0.0026   -0.0005   -0.0044    0.0023    0.0005    0.0131    0.0000    0.0153   -0.0212
   128 O7     2s        -0.0691   -0.3050    0.0022   -0.2090    0.0573    0.0306    0.3418   -0.0078    0.2574   -0.3442
   129 O7     3s        -0.0006   -0.0091   -0.0018   -0.0200    0.0102    0.0002    0.0416   -0.0004    0.0424   -0.0600
   130 O7     4s         0.0004   -0.0002   -0.0005   -0.0034    0.0026   -0.0007    0.0082   -0.0003    0.0084   -0.0127
   131 O7     2px       -0.0074   -0.0021   -0.0025   -0.0006    0.0294   -0.0326   -0.1701    0.0093   -0.1106    0.2250
   132 O7     3px       -0.0019   -0.0014   -0.0024   -0.0057    0.0053    0.0022    0.0226   -0.0016    0.0100   -0.0189
   133 O7     4px       -0.0003   -0.0003   -0.0003   -0.0002    0.0005    0.0009    0.0020    0.0001    0.0007   -0.0009
   134 O7     2py        0.0108    0.0392   -0.0010   -0.0323    0.0254    0.0027    0.1543    0.0061    0.2901   -0.4013
   135 O7     3py       -0.0033   -0.0013   -0.0008    0.0144    0.0009   -0.0037   -0.0227   -0.0042   -0.0342    0.0429
   136 O7     4py       -0.0008   -0.0019   -0.0002   -0.0001    0.0012    0.0006   -0.0024   -0.0008   -0.0041    0.0066
   137 O7     2pz       -0.0007    0.0005    0.0006    0.0016   -0.0004   -0.0003   -0.0059   -0.0003   -0.0126    0.0166
   138 O7     3pz       -0.0001    0.0018    0.0015   -0.0010   -0.0005    0.0004    0.0023    0.0002    0.0006   -0.0016
   139 O7     4pz        0.0000    0.0005    0.0005   -0.0000   -0.0001   -0.0001    0.0006   -0.0000   -0.0000   -0.0003
   140 O7     3d2-       0.0014    0.0035    0.0000    0.0007   -0.0023    0.0026    0.0118   -0.0000    0.0106   -0.0178
   141 O7     3d1-       0.0001    0.0004    0.0000   -0.0000    0.0001   -0.0001    0.0003   -0.0000    0.0008   -0.0013
   142 O7     3d0        0.0010    0.0042   -0.0002    0.0014    0.0000   -0.0002    0.0049   -0.0003    0.0069   -0.0118
   143 O7     3d1+      -0.0000   -0.0001    0.0001    0.0001    0.0001   -0.0002   -0.0004   -0.0000   -0.0005    0.0008
   144 O7     3d2+       0.0008    0.0051   -0.0001   -0.0023    0.0045   -0.0028   -0.0010    0.0008    0.0118   -0.0117
   145 O8     1s        -0.0233    0.0025    0.0039    0.0010    0.0030   -0.0000    0.0002    0.0125    0.0018   -0.0017
   146 O8     2s         0.6641   -0.1490   -0.3334    0.1116    0.1525    0.0037   -0.0218    0.3511    0.0346   -0.0526
   147 O8     3s        -0.0282   -0.0040   -0.0110    0.0074    0.0138   -0.0008   -0.0027    0.0471    0.0061   -0.0061
   148 O8     4s        -0.0127   -0.0005   -0.0004    0.0006    0.0015   -0.0006   -0.0015    0.0098    0.0013   -0.0013
   149 O8     2px       -0.0549    0.0010    0.0354    0.0177    0.0102   -0.0276   -0.0201    0.0479    0.0874    0.0083
   150 O8     3px        0.0187   -0.0026   -0.0044    0.0026   -0.0107   -0.0075   -0.0001   -0.0116   -0.0035    0.0023
   151 O8     4px        0.0005   -0.0006   -0.0025    0.0017   -0.0002   -0.0003   -0.0003   -0.0009   -0.0011   -0.0001
   152 O8     2py        0.1292   -0.0270   -0.0304    0.0018   -0.0178   -0.0184   -0.0187   -0.1795    0.0285    0.0513
   153 O8     3py       -0.0384    0.0025    0.0023    0.0045    0.0061    0.0023   -0.0013    0.0265    0.0026   -0.0041
   154 O8     4py       -0.0009   -0.0005    0.0014   -0.0001   -0.0014    0.0015   -0.0023    0.0035    0.0004   -0.0010
   155 O8     2pz       -0.0096    0.0101   -0.0063   -0.0157   -0.0092    0.0264    0.0156    0.0302   -0.0628   -0.0228
   156 O8     3pz        0.0055    0.0036    0.0039   -0.0038    0.0015    0.0075    0.0001   -0.0019    0.0020    0.0007
   157 O8     4pz        0.0009    0.0015    0.0015   -0.0012    0.0001    0.0009    0.0004    0.0001    0.0010    0.0004
[...]
AIVX     1  Mu1.0001  In1.025 Se1.046               0.26294287      0.00000023      0.00022091      0.00000000
AIVX     1  Mu1.0001  In1.026 Se1.046               0.23694690     -0.00000321     -0.00029346      0.00000000
AIVX     1  Mu1.0001  In1.027 Se1.046               0.01049327      0.00010374     -0.00016774     -0.00000002
AIVX     1  Mu1.0001  In1.028 Se1.046               0.05628043     -0.00000266      0.00001342     -0.00000000
AIVX     1  Mu1.0001  In1.018 Se1.047               0.27964428      0.00022949     -0.00029682     -0.00000007
AIVX     1  Mu1.0001  In1.021 Se1.047               0.21336668      0.00002198     -0.00005003     -0.00000000
AIVX     1  Mu1.0001  In1.022 Se1.047               0.12336782      0.00003103     -0.00010313     -0.00000000
AIVX     1  Mu1.0001  In1.023 Se1.047               0.23871849      0.00009512     -0.00019794     -0.00000002
AIVX     1  Mu1.0001  In1.024 Se1.047               0.14525303     -0.00011593      0.00021237     -0.00000002
AIVX     1  Mu1.0001  In1.025 Se1.047               0.29428329     -0.00043266      0.00068385     -0.00000030
AIVX     1  Mu1.0001  In1.026 Se1.047               0.26828732     -0.00017707      0.00039102     -0.00000007
AIVX     1  Mu1.0001  In1.027 Se1.047               0.04183369     -0.00004722      0.00011216     -0.00000001
AIVX     1  Mu1.0001  In1.028 Se1.047               0.08762085      0.00005078     -0.00006365     -0.00000000
AIVX     1  Mu1.0001  In1.021 Se1.048               0.23836008      0.00014103     -0.00015814     -0.00000002
AIVX     1  Mu1.0001  In1.022 Se1.048               0.14836122     -0.00010729      0.00039763     -0.00000004
AIVX     1  Mu1.0001  In1.023 Se1.048               0.26371189      0.00026214     -0.00038805     -0.00000010
AIVX     1  Mu1.0001  In1.024 Se1.048               0.17024643      0.00007936     -0.00012970     -0.00000001
AIVX     1  Mu1.0001  In1.026 Se1.048               0.29328072     -0.00045003      0.00042396     -0.00000019
AIVX     1  Mu1.0001  In1.027 Se1.048               0.06682709      0.00025393     -0.00028490     -0.00000007
AIVX     1  Mu1.0001  In1.028 Se1.048               0.11261425      0.00018089     -0.00032327     -0.00000006
AIVX     1  Mu1.0001  In1.022 Se1.049               0.24852232     -0.00010498      0.00013816     -0.00000001
AIVX     1  Mu1.0001  In1.024 Se1.049               0.27040753     -0.00002046      0.00006335     -0.00000000
AIVX     1  Mu1.0001  In1.027 Se1.049               0.16698820     -0.00000557     -0.00006750      0.00000000
AIVX     1  Mu1.0001  In1.028 Se1.049               0.21277536     -0.00019727      0.00019209     -0.00000004
AIVX     1  Mu1.0001  In1.021 Se1.050               0.27286873     -0.00047818      0.00062784     -0.00000030
AIVX     1  Mu1.0001  In1.022 Se1.050               0.18286986     -0.00002935     -0.00001835      0.00000000
AIVX     1  Mu1.0001  In1.023 Se1.050               0.29822053      0.00055599     -0.00107134     -0.00000060
AIVX     1  Mu1.0001  In1.024 Se1.050               0.20475507      0.00003336     -0.00010930     -0.00000000
AIVX     1  Mu1.0001  In1.027 Se1.050               0.10133573     -0.00003078     -0.00008105      0.00000000
AIVX     1  Mu1.0001  In1.028 Se1.050               0.14712289     -0.00029577      0.00037402     -0.00000011
AIVX     1  Mu1.0001  In1.021 Se1.051               0.29003543      0.00020820     -0.00037008     -0.00000008
AIVX     1  Mu1.0001  In1.022 Se1.051               0.20003656     -0.00002422     -0.00009888      0.00000000
AIVX     1  Mu1.0001  In1.024 Se1.051               0.22192177     -0.00003066      0.00005367     -0.00000000
AIVX     1  Mu1.0001  In1.027 Se1.051               0.11850244      0.00009279     -0.00036599     -0.00000003
AIVX     1  Mu1.0001  In1.028 Se1.051               0.16428960      0.00007290     -0.00016140     -0.00000001
AIVX     1  Mu1.0001  In1.022 Se1.052               0.23121370      0.00000718     -0.00012252     -0.00000000
AIVX     1  Mu1.0001  In1.024 Se1.052               0.25309891      0.00006755     -0.00004076     -0.00000000
AIVX     1  Mu1.0001  In1.027 Se1.052               0.14967957      0.00020296     -0.00034388     -0.00000007
AIVX     1  Mu1.0001  In1.028 Se1.052               0.19546673      0.00020570     -0.00021658     -0.00000004
AIVX     1  Mu1.0001  In1.022 Se1.053               0.23834264      0.00028690     -0.00042571     -0.00000012
AIVX     1  Mu1.0001  In1.024 Se1.053               0.26022785      0.00009019     -0.00001851     -0.00000000
AIVX     1  Mu1.0001  In1.027 Se1.053               0.15680851      0.00004279     -0.00009042     -0.00000000
AIVX     1  Mu1.0001  In1.028 Se1.053               0.20259567     -0.00008597      0.00016028     -0.00000001
AIVX     1  Mu1.0001  In1.022 Se1.054               0.26235907     -0.00049410      0.00068694     -0.00000034
AIVX     1  Mu1.0001  In1.024 Se1.054               0.28424428      0.00006478     -0.00002627     -0.00000000
AIVX     1  Mu1.0001  In1.027 Se1.054               0.18082495     -0.00009880      0.00018220     -0.00000002
AIVX     1  Mu1.0001  In1.028 Se1.054               0.22661211      0.00017935     -0.00039673     -0.00000007
AIVX     1  Mu1.0001  In1.022 Se1.055               0.29755011     -0.00028493      0.00053440     -0.00000015
AIVX     1  Mu1.0001  In1.027 Se1.055               0.21601599      0.00029497     -0.00023682     -0.00000007
AIVX     1  Mu1.0001  In1.028 Se1.055               0.26180315      0.00019555     -0.00035180     -0.00000007
AIVX     1  Mu1.0001  In1.022 Se1.056               0.27505236     -0.00049724      0.00058501     -0.00000029
AIVX     1  Mu1.0001  In1.024 Se1.056               0.29693757      0.00000079      0.00000892      0.00000000
AIVX     1  Mu1.0001  In1.027 Se1.056               0.19351823      0.00001650     -0.00023307     -0.00000000
AIVX     1  Mu1.0001  In1.028 Se1.056               0.23930539      0.00027630     -0.00046452     -0.00000013
AIVX     1  Mu1.0001  In1.027 Se1.057               0.24908771      0.00021267     -0.00033565     -0.00000007
AIVX     1  Mu1.0001  In1.028 Se1.057               0.29487488      0.00029534     -0.00034989     -0.00000010
AIVX     1  Mu1.0001  In1.027 Se1.058               0.23122456     -0.00005110     -0.00019891      0.00000001
AIVX     1  Mu1.0001  In1.028 Se1.058               0.27701172      0.00030092     -0.00047195     -0.00000014
AIVX     1  Mu1.0001  In1.027 Se1.059               0.28579863      0.00008720     -0.00004192     -0.00000000
AIVX     1  Mu1.0001  In1.027 Se1.062               0.27898644      0.00012067     -0.00022079     -0.00000003
AIVX     1  Mu1.0001  In1.027 Se1.063               0.29402256     -0.00009877      0.00011243     -0.00000001
AIVX     1  Mu1.0001  In1.022 Se1.208               0.28136220      0.00016214     -0.00002063     -0.00000000
AIVX     1  Mu1.0001  In1.027 Se1.208               0.19982807      0.00016297     -0.00004132     -0.00000001
AIVX     1  Mu1.0001  In1.028 Se1.208               0.24561524     -0.00008082      0.00005130     -0.00000000
AIVX     1  Mu1.0001  In1.018 Se1.209               0.25242286      0.00037513     -0.00053957     -0.00000020
AIVX     1  Mu1.0001  In1.020 Se1.209               0.29882131      0.00030458     -0.00152350     -0.00000046
AIVX     1  Mu1.0001  In1.021 Se1.209               0.18614526      0.00037135     -0.00075013     -0.00000028
AIVX     1  Mu1.0001  In1.022 Se1.209               0.09614640      0.00013623      0.00016201      0.00000002
AIVX     1  Mu1.0001  In1.023 Se1.209               0.21149707     -0.00065555      0.00124325     -0.00000082
AIVX     1  Mu1.0001  In1.024 Se1.209               0.11803161      0.00010767     -0.00014007     -0.00000002
AIVX     1  Mu1.0001  In1.025 Se1.209               0.26706187      0.00013718     -0.00009934     -0.00000001
AIVX     1  Mu1.0001  In1.026 Se1.209               0.24106590      0.00037976     -0.00098359     -0.00000037
AIVX     1  Mu1.0001  In1.027 Se1.209               0.01461227      0.00010169     -0.00010812     -0.00000001
AIVX     1  Mu1.0001  In1.028 Se1.209               0.06039943      0.00006689     -0.00032454     -0.00000002
--
 
   (Skipping property calculation,
    use PROP keyword to activate)
--
 
  Total CASPT2 energies:
::    CASPT2 Root  1     Total energy:   -455.23218496
::    CASPT2 Root  2     Total energy:   -455.03632619
::    CASPT2 Root  3     Total energy:   -455.03438088
::    CASPT2 Root  4     Total energy:   -454.96791392
::    CASPT2 Root  5     Total energy:   -454.96199910
::    CASPT2 Root  6     Total energy:   -454.95806838
::    CASPT2 Root  7     Total energy:   -454.93235859
 
++ Multi-State CASPT2 section:
********************************************************************************
  MULTI-STATE CASPT2 SECTION
--------------------------------------------------------------------------------
 
  Output diagonal energies have been shifted. Add   -455.000000000000     
 
  Effective Hamiltonian matrix (Symmetric):
 
                1               2               3               4               5
   1        -0.23218496
   2         0.00012330     -0.03632619
   3        -0.00042172     -0.00047686     -0.03438088
   4         0.00816161     -0.00010673     -0.00034560      0.03208608
   5         0.01368950     -0.00113395      0.00025225     -0.00221875      0.03800090
   6        -0.00789773      0.00023247      0.00068847     -0.00197304      0.00983781
   7        -0.00281244     -0.00038297     -0.00123394      0.00077729     -0.00004051
 
                6               7
   6         0.04193162
   7        -0.00215440      0.06764141
 
       Total MS-CASPT2 energies:
::    MS-CASPT2 Root  1     Total energy:   -455.23341488
::    MS-CASPT2 Root  2     Total energy:   -455.03645913
::    MS-CASPT2 Root  3     Total energy:   -455.03428976
::    MS-CASPT2 Root  4     Total energy:   -454.96916601
::    MS-CASPT2 Root  5     Total energy:   -454.96811320
::    MS-CASPT2 Root  6     Total energy:   -454.94970366
::    MS-CASPT2 Root  7     Total energy:   -454.93208537
 
       Eigenvectors:
            0.99767638      0.00143185     -0.00227148     -0.05840497      0.03383805
           -0.00095024      0.97348195     -0.22814689      0.01472327     -0.00303348
            0.00207822      0.22809746      0.97351348      0.00336527     -0.00360070
           -0.03090142      0.00271868      0.00446049      0.02904874      0.98700288
           -0.05167597      0.01471302     -0.00542068     -0.76127800      0.11973838
            0.03031198     -0.00635419     -0.00721588      0.64416237      0.10078919
            0.00961726      0.00617761      0.01067649      0.03205588     -0.01274342
 
            0.00427008     -0.00776115
           -0.00657984     -0.00342441
            0.00713791     -0.01278629
           -0.15242114      0.02769656
            0.63378829     -0.03891874
            0.75128175     -0.09726693
            0.10268134      0.99399292
 
--
 
  THE ORIGINAL CI ARRAYS ARE NOW MIXED AS LINEAR
  COMBINATIONS, GIVEN BY THE EIGENVECTORS.
  A NEW JOBIPH FILE NAMED 'JOBMIX' IS PREPARED.
********************************************************************************
 
++ Mixed CI coefficients:
  The CI coefficients for the MIXED state nr.   1
--------------------------------------------------------------------------------
 CI COEFFICIENTS LARGER THAN  0.50D-01
  Occupation of active orbitals, and spin coupling
  of open shells. (u,d: Spin up or down).
  SGUGA info is (Midvert:IsyUp:UpperWalk/LowerWalk)
        Conf  SGUGA info        Occupation    Coefficient         Weight
           1  ( 1:1:   1/   1)   22222200       -0.969660       0.940241
           6  ( 1:1:   6/   1)   22220220        0.086570       0.007494
           7  ( 1:1:   7/   1)   22222u0d        0.074699       0.005580
          15  ( 1:1:  15/   1)   22222002        0.089766       0.008058
          64  ( 2:1:   4/   3)   2u22220d       -0.078906       0.006226
          81  ( 2:1:   1/   4)   u22222d0       -0.104934       0.011011
         175  ( 3:1:   5/   8)   20222202        0.093333       0.008711
         191  ( 3:1:   1/  10)   02222220        0.076854       0.005907
 
  The CI coefficients for the MIXED state nr.   2
--------------------------------------------------------------------------------
 CI COEFFICIENTS LARGER THAN  0.50D-01
  Occupation of active orbitals, and spin coupling
  of open shells. (u,d: Spin up or down).
  SGUGA info is (Midvert:IsyUp:UpperWalk/LowerWalk)
        Conf  SGUGA info        Occupation    Coefficient         Weight
          21  ( 2:1:   1/   1)   222u22d0       -0.105340       0.011097
          24  ( 2:1:   4/   1)   222u220d       -0.926177       0.857803
          32  ( 2:1:  12/   1)   222u022d        0.079381       0.006301
          33  ( 2:1:  13/   1)   222u2d02       -0.091682       0.008406
          41  ( 2:1:   1/   2)   22u222d0        0.234694       0.055081
         125  ( 3:1:   5/   3)   2u2d2202        0.177137       0.031377
         213  ( 4:1:   1/   3)   u22u22dd        0.079857       0.006377
         269  ( 5:1:   1/   9)   022u222d       -0.076501       0.005852
 
  The CI coefficients for the MIXED state nr.   3
--------------------------------------------------------------------------------
 CI COEFFICIENTS LARGER THAN  0.50D-01
  Occupation of active orbitals, and spin coupling
  of open shells. (u,d: Spin up or down).
  SGUGA info is (Midvert:IsyUp:UpperWalk/LowerWalk)
        Conf  SGUGA info        Occupation    Coefficient         Weight
           2  ( 1:1:   2/   1)   22222ud0       -0.156939       0.024630
           3  ( 1:1:   3/   1)   2222u2d0        0.080069       0.006411
          21  ( 2:1:   1/   1)   222u22d0       -0.076803       0.005899
          24  ( 2:1:   4/   1)   222u220d        0.249476       0.062238
          41  ( 2:1:   1/   2)   22u222d0        0.899055       0.808300
          43  ( 2:1:   3/   2)   22u2d220        0.162936       0.026548
          45  ( 2:1:   5/   2)   22u22dud       -0.060775       0.003694
          47  ( 2:1:   7/   2)   22u22udd        0.108859       0.011850
          55  ( 2:1:  15/   2)   22u220d2        0.074805       0.005596
         161  ( 3:1:   1/   7)   u2d22220       -0.122409       0.014984
         219  ( 4:1:   1/   4)   2uu222dd        0.064641       0.004178
         222  ( 4:1:   4/   4)   2uu22dd2        0.050992       0.002600
         294  ( 5:1:   2/  15)   20u222d2       -0.093702       0.008780
 
  The CI coefficients for the MIXED state nr.   4
--------------------------------------------------------------------------------
 CI COEFFICIENTS LARGER THAN  0.50D-01
  Occupation of active orbitals, and spin coupling
  of open shells. (u,d: Spin up or down).
  SGUGA info is (Midvert:IsyUp:UpperWalk/LowerWalk)
        Conf  SGUGA info        Occupation    Coefficient         Weight
           1  ( 1:1:   1/   1)   22222200       -0.063706       0.004058
           2  ( 1:1:   2/   1)   22222ud0       -0.265665       0.070578
           3  ( 1:1:   3/   1)   2222u2d0       -0.062304       0.003882
           7  ( 1:1:   7/   1)   22222u0d       -0.881379       0.776828
          14  ( 1:1:  14/   1)   22220u2d       -0.079499       0.006320
          15  ( 1:1:  15/   1)   22222002        0.175505       0.030802
          21  ( 2:1:   1/   1)   222u22d0        0.067257       0.004524
          73  ( 2:1:  13/   3)   2u222d02        0.228807       0.052353
          81  ( 2:1:   1/   4)   u22222d0       -0.054115       0.002928
          85  ( 2:1:   5/   4)   u2222dud       -0.055388       0.003068
          87  ( 2:1:   7/   4)   u2222udd        0.086116       0.007416
         175  ( 3:1:   5/   8)   20222202       -0.106963       0.011441
         193  ( 3:1:   3/  10)   02222u2d       -0.072274       0.005224
 
  The CI coefficients for the MIXED state nr.   5
--------------------------------------------------------------------------------
 CI COEFFICIENTS LARGER THAN  0.50D-01
  Occupation of active orbitals, and spin coupling
  of open shells. (u,d: Spin up or down).
  SGUGA info is (Midvert:IsyUp:UpperWalk/LowerWalk)
        Conf  SGUGA info        Occupation    Coefficient         Weight
           2  ( 1:1:   2/   1)   22222ud0       -0.406769       0.165461
           3  ( 1:1:   3/   1)   2222u2d0        0.838433       0.702969
           7  ( 1:1:   7/   1)   22222u0d        0.064280       0.004132
          12  ( 1:1:  12/   1)   2222uudd        0.086543       0.007490
          18  ( 1:1:  18/   1)   2222u0d2        0.075425       0.005689
          21  ( 2:1:   1/   1)   222u22d0        0.059501       0.003540
          41  ( 2:1:   1/   2)   22u222d0       -0.138803       0.019266
          67  ( 2:1:   7/   3)   2u222udd       -0.078033       0.006089
          68  ( 2:1:   8/   3)   2u22u2dd        0.061229       0.003749
          81  ( 2:1:   1/   4)   u22222d0        0.072710       0.005287
          83  ( 2:1:   3/   4)   u222d220       -0.215316       0.046361
         176  ( 3:1:   6/   8)   20222ud2        0.055376       0.003066
         177  ( 3:1:   7/   8)   2022u2d2       -0.083784       0.007020
         191  ( 3:1:   1/  10)   02222220        0.051939       0.002698
 
  The CI coefficients for the MIXED state nr.   6
--------------------------------------------------------------------------------
 CI COEFFICIENTS LARGER THAN  0.50D-01
  Occupation of active orbitals, and spin coupling
  of open shells. (u,d: Spin up or down).
  SGUGA info is (Midvert:IsyUp:UpperWalk/LowerWalk)
        Conf  SGUGA info        Occupation    Coefficient         Weight
           2  ( 1:1:   2/   1)   22222ud0        0.793425       0.629523
           3  ( 1:1:   3/   1)   2222u2d0        0.422488       0.178496
           7  ( 1:1:   7/   1)   22222u0d       -0.268078       0.071866
          21  ( 2:1:   1/   1)   222u22d0       -0.119234       0.014217
          41  ( 2:1:   1/   2)   22u222d0        0.080428       0.006469
          65  ( 2:1:   5/   3)   2u222dud       -0.130056       0.016915
          67  ( 2:1:   7/   3)   2u222udd        0.180721       0.032660
          73  ( 2:1:  13/   3)   2u222d02        0.070295       0.004941
          83  ( 2:1:   3/   4)   u222d220       -0.094521       0.008934
         176  ( 3:1:   6/   8)   20222ud2       -0.117074       0.013706
 
  The CI coefficients for the MIXED state nr.   7
--------------------------------------------------------------------------------
 CI COEFFICIENTS LARGER THAN  0.50D-01
  Occupation of active orbitals, and spin coupling
  of open shells. (u,d: Spin up or down).
  SGUGA info is (Midvert:IsyUp:UpperWalk/LowerWalk)
        Conf  SGUGA info        Occupation    Coefficient         Weight
           2  ( 1:1:   2/   1)   22222ud0       -0.134688       0.018141
          21  ( 2:1:   1/   1)   222u22d0       -0.883601       0.780750
          24  ( 2:1:   4/   1)   222u220d        0.075604       0.005716
          25  ( 2:1:   5/   1)   222u2dud       -0.220466       0.048605
          26  ( 2:1:   6/   1)   222ud2ud        0.054347       0.002954
          27  ( 2:1:   7/   1)   222u2udd        0.313419       0.098231
          41  ( 2:1:   1/   2)   22u222d0       -0.116376       0.013543
         210  ( 4:1:   4/   2)   2u2u2dd2        0.078265       0.006125
         262  ( 5:1:   2/   7)   202u22d2        0.081604       0.006659
 
--
 
--- Stop Module: caspt2 at Wed Nov 13 20:56:43 2024 /rc=_RC_ALL_IS_WELL_ ---
*** files: xmldump
    saved to directory /home/pcaah4
--- Module caspt2 spent 6 minutes 55 seconds ---

.##################.
.# Happy landing! #.
.##################.

    Timing: Wall=663.99 User=578.61 System=76.53
******************************************************
*** WorkDir at /srv/COMMUNAL_SCRATCH/10401 cleaned ***
******************************************************
