   This run of MOLCAS is using the pymolcas driver

                             OPE
                             OPE          NMOL  CASOP  ENMOLC A   SO
                 OPE        NMOLC        AS  OP EN  MO LC     AS  OP
                OPENM       OL CA        SO  PE NM  OL CA     SOP EN
                OP EN      MO   LC       AS  OP ENMOL  CASO   PENMOL
                OP  EN     MO   LC       AS  OP EN     MO     LC ASO
               OP   E  NMOL  C  AS       OP  EN MO     LC     AS  OP
               OP  E   NMO   LC AS        OPEN  MO     LCASOP EN   M
               O  PEN   MO  LCA  SO
            OPE   NMO   L   CAS    OP
        OPENMOL  CASOP     ENMOL   CASOPE
     OPENMOLCA   SOPENMOLCASOPEN   MOLCASOPE
    OPENMOLCAS   OP           EN   MOL    CAS
    OPENMOLCAS       OP  ENM        O     LCA
    OPENMOLCAS    OPEN  MOLCASO     P  E  NMO
    OPENMOLCAS     OP               E  N  MOL
    OPENMOLCA   SO           PENM   O  L  CAS    OPEN    MO    LCAS
    OPENMOLCA   SOP           ENM   O  L  CAS   OP  EN  MOLC  AS   O
    OPENMOLCA   SOPE           NM      O  LCA   S      OP  EN MO
    OPENMOLC                AS         O  PEN   M      OL  CA  SOPE
    OPENMO        LCASOPE  NMOL        C  ASO   P      ENMOLC     AS
    OPE     NMO      LCA  SO     P     E   NM   OL  CA SO  PE N   MO
          OPENMOLCA            SOPE   NMO        LCAS  O    P  ENMO
     OPENMOLCASOPENMOLCASOPENMOLCASOPENMOLCA
        OPENMOLCASOPENMOLCASOPENMOLCASOPE
            OPENMOLCASOPENMOLCASOPENM
               OPENMOLCASOPENMOLCA        version: v23.06
                   OPENMOLCASO
                       OPE                tag:

 OpenMolcas is free software; you can redistribute it and/or modify it
 under the terms of the GNU Lesser General Public License version 2.1.
 OpenMolcas is distributed in the hope that it will be useful, but it
 is provided "as is" and without any express or implied warranties.
 For more details see the full text of the license in the file
 LICENSE or in <http://www.gnu.org/licenses/>.

                 Copyright (C) The OpenMolcas Authors
           For the author list and the recommended citation,
                   consult the file CONTRIBUTORS.md

           *************************************************
           * pymolcas version py2.24                       *
           *   build 4567b286dd94b1984b333a4ddf893180      *
           *   (after the EMIL interpreter by V. Veryazov) *
           *************************************************

configuration info
------------------
Host name: loginchem01.nottingham.ac.uk (Linux)
C Compiler ID: Intel
C flags: -std=gnu99 -gcc-sys -qopenmp
Fortran Compiler ID: Intel
Fortran flags: -fpp -i8 -heap-arrays -qopenmp
Definitions: _MOLCAS_;_I8_;_LINUX_
Parallel: OFF (GA=OFF)


   ------------------------------------------------------------------------------------------------------------
  |
  |              Project: orca_geometry_optimisation_210_165_BP86_def2-SVP_def2J_scf_cas1_ras12i11_cas2_ras12i8
  |       Submitted from: /home/pcaah4
  |         Scratch area: /srv/COMMUNAL_SCRATCH/10409
  |      Save outputs to: /home/pcaah4
  |               Molcas: /software/chemistry/openmolcas/openmolcas-23.06-openmp
  |
  | Scratch area is empty
  |
  |       MOLCAS_DRIVER = /software/chemistry/openmolcas/openmolcas-23.06-openmp/sbin/pymolcas
  | MOLCAS_KEEP_WORKDIR = NO
  |       MOLCAS_NPROCS = 1
  |       MOLCAS_SOURCE = /software/chemistry/openmolcas/openmolcas-23.06-openmp
  |    MOLCAS_STRUCTURE = 0
  |
   ------------------------------------------------------------------------------------------------------------

++ ---------   Input file   ---------

&SEWARD
TITLE
orca_geometry_optimisation_210_165_BP86_def2-SVP_def2J_scf_cas1_ras12i11
MULTIPOLES
2
SDIPOLE
ANGMOM
0 0 0
BASIS SET
C.ANO-S...4S3P1D.
C1            0.027179   -0.015897    0.095921 /Angstrom
C3            2.138425    1.240289   -0.014582 /Angstrom
C4            3.479817    0.953603   -0.706615 /Angstrom
C6            5.447385    1.992942   -1.792890 /Angstrom
C19          -0.599109   -1.406390    0.123366 /Angstrom
END OF BASIS
BASIS SET
N.ANO-S...4S3P1D.
N2            1.399487    0.008378    0.103192 /Angstrom
N5            4.137474    2.059109   -1.170157 /Angstrom
END OF BASIS
BASIS SET
O.ANO-S...4S3P1D.
O7           -0.648384    1.014338    0.078971 /Angstrom
O8            3.919272   -0.195161   -0.799105 /Angstrom
END OF BASIS
BASIS SET
H.ANO-S...2S1P.
H9           -1.231962   -1.494087    1.029017 /Angstrom
H10          -1.272422   -1.510198   -0.750613 /Angstrom
H11           0.137602   -2.233368    0.116412 /Angstrom
H12           1.967229   -0.839796   -0.003561 /Angstrom
H13           1.521128    1.982920   -0.565876 /Angstrom
H14           2.353324    1.698277    0.982197 /Angstrom
H15           3.682789    2.968312   -1.071729 /Angstrom
H16           5.424113    2.378620   -2.834097 /Angstrom
H17           6.204869    2.569051   -1.219610 /Angstrom
H18           5.748004    0.928619   -1.813842 /Angstrom
END OF BASIS
END OF INPUT

&RASSCF
TITLE
orca_geometry_optimisation_210_165_BP86_def2-SVP_def2J_scf_cas1_ras12i11
LUMORB
SPIN
1
SYMMETRY
1
NACTEL
12  0  0
INACTIVE
29
DELETED  ! delete Rydberg orbitals from an initial CAS(12,11) if done
3
FROZEN
0
RAS2
8
ITERATIONS
64 25
CIROOT
7 7
1 2 3 4 5 6 7
1 1 1 1 1 1 1
LEVSHFT
0.3
CIMX
20
FILEorb = /home/pcaah4/outputs/cas1_ras12i11_rasorb_files/orca_geometry_optimisation_210_165_BP86_def2-SVP_def2J_scf_cas1_ras12i11.RasOrb
ALTEr
3
 1 38 210
 1 39 211
 1 40 212
END OF INPUT

&RASSI
NROF JOBIPH
    1 7
    1 2 3 5 4 6 7
TOFILE
TRDI
TDMN
1.0D-6
END OF INPUT

&CASPT2
TITLE
orca_geometry_optimisation_210_165_BP86_def2-SVP_def2J_scf_cas1_ras12i11
MULTISTATE
7 1 2 3 4 5 6 7
SHIFT
0.35
MAXITER
50
END OF INPUT

-- ----------------------------------

--- Start Module: seward at Wed Nov 13 21:15:34 2024 ---
 
()()()()()()()()()()()()()()()()()()()()()()()()()()()()()()()()()()()()()()()()()()()()()()()()()()

                                              &SEWARD

                                   only a single process is used
                       available to each process: 2.0 GB of memory, 1 thread
                                            pid: 1819981
()()()()()()()()()()()()()()()()()()()()()()()()()()()()()()()()()()()()()()()()()()()()()()()()()()
 
               SEWARD will generate:
                  Multipole Moment integrals up to order  2
                  Kinetic Energy integrals
                  Nuclear Attraction integrals (point charge)
                  One-Electron Hamiltonian integrals
                  Velocity integrals
                  Orbital angular momentum around ( 0.0000  0.0000  0.0000 )
                  Velocity quadrupole around ( 4.0752  1.1873 -0.8742 )
                  Two-Electron Repulsion integrals
 
 Title:
            orca_geometry_optimisation_210_165_BP86_def2-SVP_def2J_scf_cas1_ras12i11    
 
 
                   Integrals are discarded if absolute value <: 0.10E-13
                   Integral cutoff threshold is set to       <: 0.10E-15
 
++    Symmetry information:
      ---------------------
 
                    Character Table for C1 
 
                             E  
                    a        1  x, y, xy, Rz, z, xz, Ry, yz, Rx, I
--
 
 
++    Basis set information:
      ----------------------
 
 
      Basis set label: C.ANO-S...4S3P1D......
 
      Electronic valence basis set:
      ------------------
      Associated Effective Charge   6.000000 au
      Associated Actual Charge      6.000000 au
      Nuclear Model: Point charge
 
      Shell  nPrim  nBasis  Cartesian Spherical Contaminant
         s      10       4        X                  
         p       6       3        X                  
         d       3       1                 X         
 
 
      Basis set label: N.ANO-S...4S3P1D......
 
      Electronic valence basis set:
      ------------------
      Associated Effective Charge   7.000000 au
      Associated Actual Charge      7.000000 au
      Nuclear Model: Point charge
 
      Shell  nPrim  nBasis  Cartesian Spherical Contaminant
         s      10       4        X                  
         p       6       3        X                  
         d       3       1                 X         
 
 
      Basis set label: O.ANO-S...4S3P1D......
 
      Electronic valence basis set:
      ------------------
      Associated Effective Charge   8.000000 au
      Associated Actual Charge      8.000000 au
      Nuclear Model: Point charge
 
      Shell  nPrim  nBasis  Cartesian Spherical Contaminant
         s      10       4        X                  
         p       6       3        X                  
         d       3       1                 X         
 
 
      Basis set label: H.ANO-S...2S1P......
 
      Electronic valence basis set:
      ------------------
      Associated Effective Charge   1.000000 au
      Associated Actual Charge      1.000000 au
      Nuclear Model: Point charge
 
      Shell  nPrim  nBasis  Cartesian Spherical Contaminant
         s       7       2        X                  
         p       3       1        X                  
--
 
 
++    Molecular structure info:
      -------------------------
 
                    ************************************************ 
                    **** Cartesian Coordinates / Bohr, Angstrom **** 
                    ************************************************ 
 
     Center  Label                x              y              z                     x              y              z
        1      C1               0.051361      -0.030041       0.181264              0.027179      -0.015897       0.095921
        2      C3               4.041038       2.343807      -0.027556              2.138425       1.240289      -0.014582
        3      C4               6.575901       1.802049      -1.335309              3.479817       0.953603      -0.706615
        4      C6              10.294066       3.766115      -3.388071              5.447385       1.992942      -1.792890
        5      C19             -1.132152      -2.657692       0.233128             -0.599109      -1.406390       0.123366
        6      N2               2.644647       0.015832       0.195005              1.399487       0.008378       0.103192
        7      N5               7.818693       3.891152      -2.211276              4.137474       2.059109      -1.170157
        8      O7              -1.225268       1.916821       0.149234             -0.648384       1.014338       0.078971
        9      O8               7.406351      -0.368801      -1.510090              3.919272      -0.195161      -0.799105
       10      H9              -2.328071      -2.823415       1.944560             -1.231962      -1.494087       1.029017
       11      H10             -2.404529      -2.853861      -1.418453             -1.272422      -1.510198      -0.750613
       12      H11              0.260030      -4.220454       0.219987              0.137602      -2.233368       0.116412
       13      H12              3.717524      -1.586984      -0.006729              1.967229      -0.839796      -0.003561
       14      H13              2.874515       3.747176      -1.069351              1.521128       1.982920      -0.565876
       15      H14              4.447138       3.209278       1.856083              2.353324       1.698277       0.982197
       16      H15              6.959463       5.609297      -2.025274              3.682789       2.968312      -1.071729
       17      H16             10.250088       4.494940      -5.355667              5.424113       2.378620      -2.834097
       18      H17             11.725503       4.854803      -2.304729              6.204869       2.569051      -1.219610
       19      H18             10.862153       1.754836      -3.427665              5.748004       0.928619      -1.813842
 
                    ************************************************* 
                    **** InterNuclear Distances / Bohr, Angstrom **** 
                    ************************************************* 
 
     Atom centers         Bohr        Angstrom
   16 H15       7 N5      1.929999        1.021311
   13 H12       6 N2      1.939274        1.026219
   19 H18       4 C6      2.090343        1.106162
   12 H11       5 C19     2.092981        1.107558
   11 H10       5 C19     2.094074        1.108136
   10 H9        5 C19     2.094442        1.108331
   17 H16       4 C6      2.098703        1.110586
   18 H17       4 C6      2.099496        1.111006
   14 H13       2 C3      2.101322        1.111972
   15 H14       2 C3      2.112358        1.117812
    8 O7        1 C1      2.328321        1.232094
    9 O8        3 C4      2.330833        1.233424
    7 N5        3 C4      2.583835        1.367307
    6 N2        1 C1      2.593728        1.372542
    6 N2        2 C3      2.723767        1.441355
    7 N5        4 C6      2.743711        1.451910
    5 C19       1 C1      2.882350        1.525274
    3 C4        2 C3      2.903317        1.536369
   11 H10      10 H9      3.364020        1.780163
   15 H14      14 H13     3.364616        1.780478
   19 H18      17 H16     3.405876        1.802312
   18 H17      17 H16     3.408016        1.803445
   19 H18      18 H17     3.408248        1.803567
   12 H11      10 H9      3.409419        1.804187
   12 H11      11 H10     3.413493        1.806343
   16 H15       3 C4      3.888227        2.057561
   19 H18       7 N5      3.912301        2.070301
   13 H12       2 C3      3.944136        2.087147
   14 H13       6 N2      3.946436        2.088364
   13 H12       1 C1      3.987501        2.110095
   17 H16       7 N5      4.020378        2.127492
   18 H17       7 N5      4.024987        2.129932
   15 H14       6 N2      4.025699        2.130308
   16 H15       4 C6      4.046494        2.141312
   11 H10       1 C1      4.069945        2.153722
   10 H9        1 C1      4.071099        2.154333
   15 H14       3 C4      4.086186        2.162316
   13 H12       9 O8      4.165514        2.204295
   14 H13       3 C4      4.189810        2.217152
   12 H11       1 C1      4.195784        2.220313
    8 O7        6 N2      4.311856        2.281736
    9 O8        7 N5      4.336921        2.295000
   13 H12      12 H11     4.352106        2.303035
   19 H18       9 O8      4.486591        2.374202
    9 O8        2 C3      4.569625        2.418142
    8 O7        5 C19     4.576230        2.421636
    6 N2        3 C4      4.581177        2.424255
   16 H15      14 H13     4.589998        2.428922
    6 N2        5 C19     4.627461        2.448747
   13 H12       3 C4      4.628281        2.449181
    7 N5        2 C3      4.629643        2.449901
    2 C3        1 C1      4.647180        2.459182
   14 H13       8 O7      4.652244        2.461861
    4 C6        3 C4      4.679331        2.476195
   19 H18       3 C4      4.769920        2.524133
   17 H16      16 H15     4.812642        2.546740
   16 H15       2 C3      4.813679        2.547289
   18 H17      16 H15     4.833477        2.557766
   12 H11       6 N2      4.861393        2.572538
   14 H13       1 C1      4.878689        2.581691
   13 H12       5 C19     4.972253        2.631203
    9 O8        6 N2      5.072387        2.684192
   14 H13       7 N5      5.076378        2.686304
   11 H10       8 O7      5.158265        2.729636
   10 H9        8 O7      5.187409        2.745059
   15 H14      13 H12     5.196782        2.750019
   16 H15      15 H14     5.209299        2.756643
    8 O7        2 C3      5.286544        2.797519
   15 H14       7 N5      5.326889        2.818868
    9 O8        4 C6      5.381750        2.847900
   14 H13      13 H12     5.503916        2.912547
   19 H18      16 H15     5.661675        2.996029
--
 
 
            Nuclear Potential Energy            446.89366393 au
 
 
      Basis set specifications :
      Symmetry species         a  
      Basis functions          212
 
 
      Input file to MOLDEN was generated!
 
--- Stop Module: seward at Wed Nov 13 21:17:22 2024 /rc=_RC_ALL_IS_WELL_ ---
*** files: orca_geometry_optimisation_210_165_BP86_def2-SVP_def2J_scf_cas1_ras12i11_cas2_ras12i8.GssOrb
           orca_geometry_optimisation_210_165_BP86_def2-SVP_def2J_scf_cas1_ras12i11_cas2_ras12i8.guessorb.molden xmldump
    saved to directory /home/pcaah4
--- Module seward spent 1 minute 47 seconds ---

*** symbolic link created: INPORB -> orca_geometry_optimisation_210_165_BP86_def2-SVP_def2J_scf_cas1_ras12i11_cas2_ras12i8.GssOrb
--- Start Module: rasscf at Wed Nov 13 21:17:22 2024 ---
 
()()()()()()()()()()()()()()()()()()()()()()()()()()()()()()()()()()()()()()()()()()()()()()()()()()

                                              &RASSCF

                                   only a single process is used
                       available to each process: 2.0 GB of memory, 1 thread
                                            pid: 1820173
()()()()()()()()()()()()()()()()()()()()()()()()()()()()()()()()()()()()()()()()()()()()()()()()()()
 
 
      Header of the ONEINT file:
      --------------------------
      orca_geometry_optimisation_210_165_BP86_def2-SVP_def2J_scf_cas1_ras12i11
      Integrals generated by Gateway/Seward, Wed Nov 13 21:15:35 2024
 
 
      OrdInt status: non-squared
 
 
      Cartesian coordinates in Angstrom:
      -----------------------------------------------------
      No.  Label        X            Y            Z        
      -----------------------------------------------------
       1   C1         0.02717900  -0.01589700   0.09592100
       2   C3         2.13842500   1.24028900  -0.01458200
       3   C4         3.47981700   0.95360300  -0.70661500
       4   C6         5.44738500   1.99294200  -1.79289000
       5   C19       -0.59910900  -1.40639000   0.12336600
       6   N2         1.39948700   0.00837800   0.10319200
       7   N5         4.13747400   2.05910900  -1.17015700
       8   O7        -0.64838400   1.01433800   0.07897100
       9   O8         3.91927200  -0.19516100  -0.79910500
      10   H9        -1.23196200  -1.49408700   1.02901700
      11   H10       -1.27242200  -1.51019800  -0.75061300
      12   H11        0.13760200  -2.23336800   0.11641200
      13   H12        1.96722900  -0.83979600  -0.00356100
      14   H13        1.52112800   1.98292000  -0.56587600
      15   H14        2.35332400   1.69827700   0.98219700
      16   H15        3.68278900   2.96831200  -1.07172900
      17   H16        5.42411300   2.37862000  -2.83409700
      18   H17        6.20486900   2.56905100  -1.21961000
      19   H18        5.74800400   0.92861900  -1.81384200
      -----------------------------------------------------
      Nuclear repulsion energy =  446.89366393
 
++    Wave function specifications:
      -----------------------------
 
      Number of closed shell electrons          58
      Number of electrons in active shells      12
      Max number of holes in RAS1 space          0
      Max nr of electrons in RAS3 space          0
      Number of inactive orbitals               29
      Number of active orbitals                  8
      Number of secondary orbitals             172
      Spin quantum number                      0.0
      State symmetry                             1
--
 
++    Orbital specifications:
      -----------------------
 
      Symmetry species                           1
                                                 a
      Frozen orbitals                            0
      Inactive orbitals                         29
      Active orbitals                            8
      RAS1 orbitals                              0
      RAS2 orbitals                              8
      RAS3 orbitals                              0
      Secondary orbitals                       172
      Deleted orbitals                           3
      Number of basis functions                212
--
 
++    CI expansion specifications:
      ----------------------------
 
      Number of CSFs                           336
      Number of determinants                   406
      Number of root(s) required                 7
      Root chosen for geometry opt.              7
      CI roots used                              1     2     3     4     5     6     7
      weights                                0.143 0.143 0.143 0.143 0.143 0.143 0.143
      highest root included in the CI            7
      max. size of the explicit Hamiltonian    200
--
 
++    Optimization specifications:
      ----------------------------
 
      RASSCF algorithm: Conventional
      Maximum number of macro iterations        64
      Maximum number of SX iterations           25
      Threshold for RASSCF energy            0.100E-07
      Threshold for max MO rotation          0.100E+00
      Threshold for max BLB element          0.100E-03
      Level shift parameter                  0.300E+00
      Make Quasi-Newton update
--
 
      The MO-coefficients are taken from the file:
      /home/pcaah4/outputs/cas1_ras12i11_rasorb_files/orca_geometry_optimisation_210_165_BP86_def2-SVP_def2J_scf_cas1_ras12i11.RasOrb                                                                                                                                 
      Title: RASSCF average (pseudo-natural) orbitals                                      
 
      Total molecular charge    0.00
 
      Molecular orbitals exchanged:
        In symmetry  1 :  38 210
        In symmetry  1 :  39 211
        In symmetry  1 :  40 212
 
 
      ************************************************************************************************************************
      *                                                                                                                      *
      *                                            Wave function control section                                             *
      *                                                                                                                      *
      ************************************************************************************************************************
 
 
                                         RASSCF iterations: Energy and convergence statistics
                                         ----------------------------------------------------
 
      Iter CI   SX   CI       RASSCF       Energy    max ROT     max BLB   max BLB  Level Ln srch  Step   QN   Walltime
          iter iter root      energy       change     param      element    value   shift minimum  type update hh:mm:ss
 Nr of preliminary CI iterations:   4
        1   1   21    0  -453.70496410    0.00E+00  -0.52E-01   34 142 1 -0.16E-01*  0.20   0.00    SX    NO    0:00:13
        2   1   10    0  -453.70781209   -0.28E-02* -0.29E-01   34 142 1 -0.27E-02*  0.20   0.00    SX    NO    0:00:06
        3   3    9    0  -453.70835925   -0.55E-03* -0.25E-01   36 100 1 -0.10E-02*  0.20   0.00    SX    NO    0:00:07
        4   6    8    0  -453.70855134   -0.19E-03* -0.16E-01   36  51 1 -0.61E-03*  0.20   0.00    SX    NO    0:00:06
        5   4    8    0  -453.70862307   -0.72E-04* -0.21E-01   36  51 1 -0.43E-03*  0.20   2.46    LS   YES    0:00:06
        6   6    8    0  -453.70866662   -0.44E-04* -0.58E-02   18  78 1 -0.27E-03*  0.20   1.19    QN   YES    0:00:06
        7   3    7    0  -453.70867192   -0.53E-05* -0.13E-02   18  78 1  0.14E-03*  0.20   1.15    QN   YES    0:00:06
        8   5    7    0  -453.70867332   -0.14E-05* -0.10E-02   36  41 1 -0.72E-04   0.20   1.34    QN   YES    0:00:06
        9   4    6    0  -453.70867369   -0.37E-06*  0.42E-03   36  41 1 -0.40E-04   0.20   1.23    QN   YES    0:00:06
       10   3    6    0  -453.70867377   -0.81E-07* -0.35E-03   36  41 1 -0.22E-04   0.20   1.55    QN   YES    0:00:06
       11   1    5    0  -453.70867381   -0.36E-07* -0.14E-03   36  41 1 -0.75E-05   0.20   1.33    QN   YES    0:00:06
       12   1    5    0  -453.70867382   -0.80E-08   0.59E-04   36  42 1 -0.32E-05   0.20   1.31    QN   YES    0:00:06
      Convergence after 12 iterations
       13   1    5    0  -453.70867382   -0.18E-08   0.59E-04   36  42 1 -0.16E-05   0.20   1.31    QN   YES    0:00:06
 
      ************************************************************************************************************************
                                                      Wave function printout:
                       occupation of active orbitals, and spin coupling of open shells (u,d: Spin up or down)
      ************************************************************************************************************************
 
      Note: transformation to natural orbitals
      has been made, which may change the order of the CSFs.
 
      printout of CI-coefficients larger than  0.05 for root  1
      energy=    -453.958988
      conf/sym  11111111     Coeff  Weight
             1  22222200   0.96513 0.93148
             6  22220220  -0.07583 0.00575
             7  22222u0d   0.12500 0.01563
            15  22222002  -0.08022 0.00643
            64  2u22220d   0.07912 0.00626
            73  2u222d02  -0.06331 0.00401
            81  u22222d0   0.10124 0.01025
           175  20222202  -0.10045 0.01009
           191  02222220  -0.07824 0.00612
 
      printout of CI-coefficients larger than  0.05 for root  2
      energy=    -453.746092
      conf/sym  11111111     Coeff  Weight
            21  222u22d0  -0.05944 0.00353
            24  222u220d  -0.96173 0.92493
            32  222u022d   0.07480 0.00559
            33  222u2d02   0.09958 0.00992
           125  2u2d2202   0.18550 0.03441
           213  u22u22dd   0.08533 0.00728
           269  022u222d  -0.07888 0.00622
 
      printout of CI-coefficients larger than  0.05 for root  3
      energy=    -453.725593
      conf/sym  11111111     Coeff  Weight
             2  22222ud0   0.09359 0.00876
            21  222u22d0  -0.10512 0.01105
            41  22u222d0   0.94314 0.88952
            43  22u2d220   0.15536 0.02414
            45  22u22dud   0.06466 0.00418
            47  22u22udd  -0.11612 0.01348
            55  22u220d2   0.07779 0.00605
           161  u2d22220  -0.12732 0.01621
           219  2uu222dd   0.06857 0.00470
           222  2uu22dd2  -0.05606 0.00314
           294  20u222d2  -0.09968 0.00994
 
      printout of CI-coefficients larger than  0.05 for root  4
      energy=    -453.650846
      conf/sym  11111111     Coeff  Weight
             2  22222ud0  -0.73102 0.53440
             3  2222u2d0  -0.60059 0.36070
            12  2222uudd   0.07174 0.00515
            18  2222u0d2  -0.05680 0.00323
            41  22u222d0   0.08834 0.00780
            65  2u222dud   0.10135 0.01027
            67  2u222udd  -0.14791 0.02188
            81  u22222d0  -0.05201 0.00271
            83  u222d220   0.14753 0.02176
           176  20222ud2   0.10270 0.01055
           177  2022u2d2   0.05961 0.00355
 
      printout of CI-coefficients larger than  0.05 for root  5
      energy=    -453.639029
      conf/sym  11111111     Coeff  Weight
             1  22222200  -0.06224 0.00387
             2  22222ud0   0.56151 0.31530
             3  2222u2d0  -0.65658 0.43110
             7  22222u0d   0.37098 0.13763
            15  22222002   0.07817 0.00611
            18  2222u0d2  -0.05319 0.00283
            21  222u22d0   0.07664 0.00587
            65  2u222dud  -0.09682 0.00937
            67  2u222udd   0.12602 0.01588
            68  2u22u2dd  -0.05072 0.00257
            73  2u222d02  -0.09403 0.00884
            81  u22222d0  -0.05256 0.00276
            83  u222d220   0.14337 0.02055
           176  20222ud2  -0.08170 0.00667
           177  2022u2d2   0.06979 0.00487
 
      printout of CI-coefficients larger than  0.05 for root  6
      energy=    -453.624124
      conf/sym  11111111     Coeff  Weight
             1  22222200  -0.09794 0.00959
             2  22222ud0  -0.22469 0.05049
             3  2222u2d0   0.31832 0.10133
             7  22222u0d   0.78209 0.61167
            14  22220u2d   0.06427 0.00413
            15  22222002   0.15420 0.02378
            21  222u22d0   0.30286 0.09172
            25  222u2dud  -0.07590 0.00576
            27  222u2udd   0.10918 0.01192
            67  2u222udd  -0.06169 0.00381
            73  2u222d02  -0.20243 0.04098
            83  u222d220  -0.07924 0.00628
            87  u2222udd  -0.07726 0.00597
           175  20222202  -0.08988 0.00808
           193  02222u2d   0.05901 0.00348
 
      printout of CI-coefficients larger than  0.05 for root  7
      energy=    -453.616044
      conf/sym  11111111     Coeff  Weight
             3  2222u2d0  -0.07306 0.00534
             7  22222u0d  -0.31216 0.09745
            15  22222002  -0.06871 0.00472
            21  222u22d0   0.84547 0.71482
            24  222u220d  -0.05308 0.00282
            25  222u2dud  -0.20507 0.04206
            27  222u2udd   0.29385 0.08635
            41  22u222d0   0.09356 0.00875
            73  2u222d02   0.07896 0.00623
           210  2u2u2dd2   0.07234 0.00523
           262  202u22d2  -0.07821 0.00612
 
      Natural orbitals and occupation numbers for root  1
      sym 1:   1.974413   1.995623   1.999890   1.999827   1.994776   1.955932   0.030927   0.048614
 
      Natural orbitals and occupation numbers for root  2
      sym 1:   1.973715   1.999950   1.999674   1.000242   1.995182   1.999765   0.031507   0.999965
 
      Natural orbitals and occupation numbers for root  3
      sym 1:   1.999896   1.995281   1.006673   1.998595   1.999597   1.953818   0.995151   0.050989
 
      Natural orbitals and occupation numbers for root  4
      sym 1:   1.987959   1.929434   1.999767   1.999590   1.976804   1.061940   0.970566   0.073940
 
      Natural orbitals and occupation numbers for root  5
      sym 1:   1.976597   1.937682   1.999813   1.999095   1.880917   1.109351   0.931339   0.165206
 
      Natural orbitals and occupation numbers for root  6
      sym 1:   1.979669   1.952708   1.999628   1.987735   1.819983   1.178445   0.224813   0.857019
 
      Natural orbitals and occupation numbers for root  7
      sym 1:   1.995423   1.978230   1.999320   1.254550   1.992869   1.833294   0.756210   0.190105
 
      ************************************************************************************************************************
      *                                                                                                                      *
      *                                                    Final results                                                     *
      *                                                                                                                      *
      ************************************************************************************************************************
 
 
++    Wave function specifications:
      -----------------------------
 
      Number of closed shell electrons          58
      Number of electrons in active shells      12
      Max number of holes in RAS1 space          0
      Max nr of electrons in RAS3 space          0
      Number of inactive orbitals               29
      Number of active orbitals                  8
      Number of secondary orbitals             172
      Spin quantum number                      0.0
      State symmetry                             1
--
 
++    Orbital specifications:
      -----------------------
 
      Symmetry species                           1
                                                 a
      Frozen orbitals                            0
      Inactive orbitals                         29
      Active orbitals                            8
      RAS1 orbitals                              0
      RAS2 orbitals                              8
      RAS3 orbitals                              0
      Secondary orbitals                       172
      Deleted orbitals                           3
      Number of basis functions                212
--
 
++    CI expansion specifications:
      ----------------------------
 
      Number of CSFs                           336
      Number of determinants                   406
      Number of root(s) required                 7
      CI roots used                              1     2     3     4     5     6     7
      weights                                0.143 0.143 0.143 0.143 0.143 0.143 0.143
      highest root included in the CI            7
      Root passed to geometry opt.               7
--
 
++    Final optimization conditions:
      ------------------------------
 
      Average CI energy                            -453.70867382
      RASSCF energy for state  7                   -453.61604437
      Super-CI energy                                -0.00000000
      RASSCF energy change                            0.00000000
      Max change in MO coefficients               0.548E-04
      Max non-diagonal density matrix element     0.586E-04
      Maximum BLB matrix element                 -0.158E-05
      (orbital pair  36,  42 in symmetry   1)
      Norm of electronic gradient            0.319E+00
--
 
 
      Final state energy(ies):
      ------------------------
 
::    RASSCF root number  1 Total energy:   -453.95898778
::    RASSCF root number  2 Total energy:   -453.74609248
::    RASSCF root number  3 Total energy:   -453.72559341
::    RASSCF root number  4 Total energy:   -453.65084572
::    RASSCF root number  5 Total energy:   -453.63902942
::    RASSCF root number  6 Total energy:   -453.62412355
::    RASSCF root number  7 Total energy:   -453.61604437
 
++    Molecular orbitals:
      -------------------
 
      Pseudonatural active orbitals and approximate occupation numbers
 
 
 
 
      Molecular orbitals for symmetry species 1: a  
 
 
      Orbital                 1         2         3         4         5         6         7         8         9        10
      Energy           -20.6037  -20.5361  -15.6333  -15.5866  -11.3397  -11.2913  -11.2888  -11.2642  -11.2558   -1.4234
      Occ. No.           2.0000    2.0000    2.0000    2.0000    2.0000    2.0000    2.0000    2.0000    2.0000    2.0000
 
     1 C1     1s         0.0003   -0.0001    0.0003    0.0001    1.0000    0.0000    0.0002   -0.0000   -0.0037   -0.0393
     2 C1     2s         0.0012   -0.0005    0.0016    0.0004    0.0023    0.0000   -0.0004   -0.0003   -0.0006    0.3513
     3 C1     3s        -0.0003   -0.0004    0.0008    0.0003   -0.0001   -0.0000   -0.0004   -0.0002   -0.0009   -0.0068
     4 C1     4s        -0.0003   -0.0001    0.0002    0.0001    0.0013   -0.0000   -0.0002   -0.0001   -0.0003    0.0030
     5 C1     2px       -0.0013   -0.0001    0.0018    0.0001    0.0012   -0.0003   -0.0002   -0.0002   -0.0004   -0.0424
     6 C1     3px       -0.0008   -0.0002    0.0014    0.0001    0.0012   -0.0005   -0.0006   -0.0002    0.0001    0.0271
     7 C1     4px        0.0002   -0.0001   -0.0001   -0.0000    0.0004   -0.0001   -0.0004   -0.0000    0.0002   -0.0131
     8 C1     2py        0.0030   -0.0001    0.0003   -0.0002    0.0012   -0.0005   -0.0001   -0.0002   -0.0005    0.0933
     9 C1     3py        0.0020   -0.0002    0.0002   -0.0002    0.0010   -0.0007   -0.0006   -0.0002    0.0002   -0.0711
    10 C1     4py       -0.0004   -0.0000   -0.0000   -0.0000    0.0007   -0.0001   -0.0004   -0.0001    0.0003    0.0229
    11 C1     2pz        0.0000   -0.0002    0.0000   -0.0000    0.0000    0.0001    0.0000    0.0000   -0.0000   -0.0021
    12 C1     3pz        0.0000   -0.0002    0.0001   -0.0001   -0.0000    0.0001    0.0000    0.0000   -0.0000   -0.0008
    13 C1     4pz        0.0000   -0.0000    0.0000   -0.0001    0.0000    0.0000   -0.0000    0.0000   -0.0000   -0.0007
    14 C1     3d2-       0.0001   -0.0000    0.0001   -0.0000   -0.0004   -0.0000    0.0000   -0.0000    0.0001   -0.0327
    15 C1     3d1-       0.0000   -0.0000    0.0000   -0.0000   -0.0000    0.0000   -0.0000    0.0000    0.0000   -0.0009
    16 C1     3d0       -0.0000   -0.0000    0.0001   -0.0000   -0.0004    0.0000   -0.0000   -0.0000    0.0001   -0.0279
    17 C1     3d1+       0.0000   -0.0000   -0.0000    0.0000   -0.0000    0.0000    0.0000   -0.0000   -0.0000    0.0003
    18 C1     3d2+       0.0001    0.0000   -0.0002    0.0000   -0.0000    0.0000    0.0000    0.0000   -0.0000   -0.0101
    19 C3     1s         0.0001   -0.0000    0.0004   -0.0001   -0.0001    0.1152    0.9929    0.0001    0.0001   -0.0100
    20 C3     2s         0.0006   -0.0003    0.0023   -0.0005    0.0007    0.0000   -0.0012    0.0008    0.0008    0.0182
    21 C3     3s         0.0003   -0.0003    0.0011   -0.0003    0.0004   -0.0005   -0.0025    0.0004    0.0005   -0.0189
    22 C3     4s         0.0001   -0.0002    0.0001   -0.0001   -0.0000    0.0000    0.0007    0.0000    0.0001   -0.0017
    23 C3     2px       -0.0002    0.0001   -0.0003   -0.0002    0.0008   -0.0005   -0.0012    0.0003    0.0003   -0.0260
    24 C3     3px        0.0001   -0.0001    0.0001   -0.0004    0.0015   -0.0012   -0.0012    0.0001    0.0006   -0.0175
    25 C3     4px        0.0002   -0.0002    0.0002   -0.0002    0.0005   -0.0003   -0.0005   -0.0001    0.0002   -0.0076
    26 C3     2py       -0.0002    0.0006   -0.0005   -0.0003    0.0006   -0.0001   -0.0003    0.0003   -0.0000   -0.0245
    27 C3     3py       -0.0001    0.0005    0.0001   -0.0003    0.0008   -0.0001   -0.0002    0.0004    0.0002   -0.0087
    28 C3     4py        0.0001   -0.0001    0.0002   -0.0000    0.0001   -0.0001   -0.0008    0.0001    0.0001   -0.0054
    29 C3     2pz        0.0002   -0.0006   -0.0001    0.0004    0.0000   -0.0000    0.0003   -0.0002    0.0001   -0.0015
    30 C3     3pz        0.0002   -0.0005   -0.0001    0.0005   -0.0001    0.0002    0.0002   -0.0002    0.0001    0.0005
    31 C3     4pz        0.0000    0.0001   -0.0000    0.0001   -0.0001    0.0000    0.0000    0.0000   -0.0000    0.0016
    32 C3     3d2-       0.0001    0.0001    0.0000   -0.0000    0.0001   -0.0001   -0.0000   -0.0000    0.0000    0.0034
    33 C3     3d1-      -0.0000   -0.0001    0.0000    0.0000   -0.0000    0.0000    0.0000    0.0000    0.0000   -0.0003
    34 C3     3d0       -0.0000   -0.0000    0.0001   -0.0000   -0.0000    0.0001    0.0000   -0.0000   -0.0000   -0.0029
    35 C3     3d1+       0.0000   -0.0001    0.0000   -0.0000    0.0000    0.0001    0.0001   -0.0001    0.0000   -0.0009
    36 C3     3d2+      -0.0000    0.0000    0.0001   -0.0000    0.0000    0.0000   -0.0000    0.0001   -0.0000   -0.0004
    37 C4     1s         0.0000    0.0004   -0.0002    0.0003   -0.0001    0.9934   -0.1151    0.0003   -0.0000   -0.0008
    38 C4     2s         0.0002    0.0013   -0.0015    0.0012   -0.0008    0.0030    0.0006   -0.0006   -0.0003    0.0338
    39 C4     3s         0.0001   -0.0002   -0.0011    0.0005   -0.0007    0.0004    0.0003   -0.0005   -0.0002    0.0080
    40 C4     4s        -0.0000   -0.0003   -0.0003    0.0001   -0.0003    0.0014   -0.0001   -0.0002   -0.0001    0.0031
    41 C4     2px       -0.0002    0.0012    0.0008    0.0009    0.0002    0.0007   -0.0008   -0.0001    0.0001   -0.0042
    42 C4     3px       -0.0001    0.0008    0.0010    0.0007    0.0005    0.0005    0.0000   -0.0007    0.0001   -0.0068
    43 C4     4px        0.0000   -0.0002    0.0002   -0.0001    0.0002    0.0005    0.0003   -0.0005    0.0000   -0.0025
    44 C4     2py       -0.0000   -0.0029   -0.0003    0.0013    0.0000    0.0008    0.0000   -0.0004   -0.0001   -0.0045
    45 C4     3py       -0.0002   -0.0019   -0.0001    0.0010   -0.0001    0.0006    0.0003   -0.0005   -0.0001    0.0039
    46 C4     4py       -0.0001    0.0004    0.0001   -0.0001   -0.0001    0.0001    0.0002   -0.0001   -0.0000   -0.0001
    47 C4     2pz       -0.0001   -0.0002   -0.0001   -0.0006   -0.0001   -0.0000    0.0006    0.0001   -0.0001    0.0046
    48 C4     3pz       -0.0002   -0.0001   -0.0002   -0.0004   -0.0002   -0.0001    0.0003    0.0005   -0.0002    0.0049
    49 C4     4pz       -0.0001    0.0000   -0.0001    0.0001   -0.0000   -0.0001   -0.0001    0.0003   -0.0000    0.0014
    50 C4     3d2-       0.0000    0.0001    0.0000   -0.0001   -0.0000   -0.0001   -0.0000    0.0000   -0.0000   -0.0009
    51 C4     3d1-       0.0000   -0.0000    0.0000    0.0001   -0.0000   -0.0001    0.0000   -0.0000   -0.0000   -0.0001
    52 C4     3d0       -0.0000    0.0000   -0.0000    0.0001    0.0000   -0.0003    0.0001   -0.0001   -0.0000   -0.0012
    53 C4     3d1+      -0.0000   -0.0001   -0.0000    0.0000   -0.0000   -0.0001    0.0000   -0.0000   -0.0000   -0.0004
    54 C4     3d2+       0.0000    0.0001   -0.0000    0.0002    0.0001   -0.0004    0.0001   -0.0000    0.0000   -0.0015
    55 C6     1s         0.0000    0.0001    0.0000    0.0003   -0.0001   -0.0003    0.0002    0.9997   -0.0000    0.0004
    56 C6     2s         0.0002    0.0006    0.0001    0.0014   -0.0004   -0.0002    0.0008    0.0001   -0.0002    0.0075
    57 C6     3s         0.0001    0.0004   -0.0001    0.0003   -0.0004   -0.0004    0.0006   -0.0016   -0.0002    0.0062
    58 C6     4s         0.0000    0.0001   -0.0001   -0.0001   -0.0002   -0.0002    0.0001    0.0009   -0.0001    0.0025
    59 C6     2px        0.0000   -0.0002    0.0000   -0.0004    0.0003    0.0003   -0.0003   -0.0000    0.0001   -0.0062
    60 C6     3px        0.0000   -0.0002    0.0000    0.0002    0.0003    0.0004   -0.0003    0.0002    0.0001   -0.0057
    61 C6     4px        0.0000    0.0000   -0.0000    0.0002    0.0000    0.0001    0.0000   -0.0006   -0.0000   -0.0006
    62 C6     2py       -0.0000   -0.0002    0.0001    0.0002    0.0000    0.0003    0.0000    0.0002    0.0000   -0.0009
    63 C6     3py        0.0000   -0.0001    0.0001    0.0002    0.0001    0.0004   -0.0000   -0.0001    0.0000   -0.0016
    64 C6     4py        0.0000    0.0001    0.0000    0.0000    0.0000    0.0001   -0.0000   -0.0000    0.0000   -0.0007
    65 C6     2pz        0.0001    0.0001   -0.0001    0.0002   -0.0001   -0.0003   -0.0000   -0.0000    0.0000    0.0011
    66 C6     3pz        0.0001    0.0001   -0.0002   -0.0001   -0.0001   -0.0004   -0.0001   -0.0001    0.0000    0.0012
    67 C6     4pz        0.0000   -0.0000   -0.0000   -0.0001   -0.0000   -0.0001   -0.0000    0.0003   -0.0000    0.0006
    68 C6     3d2-       0.0000    0.0000   -0.0000    0.0001   -0.0000    0.0001   -0.0000    0.0001    0.0000   -0.0001
    69 C6     3d1-       0.0000   -0.0000    0.0000   -0.0000    0.0000   -0.0000    0.0000   -0.0000    0.0000   -0.0001
    70 C6     3d0       -0.0000   -0.0000    0.0000    0.0001   -0.0000   -0.0000    0.0000    0.0000   -0.0000    0.0000
    71 C6     3d1+       0.0000   -0.0000    0.0000    0.0001    0.0000   -0.0000   -0.0000    0.0001    0.0000   -0.0003
    72 C6     3d2+      -0.0000    0.0000   -0.0000   -0.0000   -0.0000   -0.0000    0.0000   -0.0001   -0.0000    0.0004
    73 C19    1s         0.0002    0.0000   -0.0000   -0.0000    0.0036   -0.0000    0.0002   -0.0000    0.9999   -0.0146
    74 C19    2s         0.0012    0.0001   -0.0000   -0.0001    0.0005   -0.0002    0.0007   -0.0001    0.0019   -0.0137
    75 C19    3s         0.0007    0.0000    0.0001   -0.0001    0.0002   -0.0002    0.0003   -0.0002   -0.0005   -0.0398
    76 C19    4s         0.0001   -0.0000    0.0000   -0.0000    0.0001   -0.0001   -0.0001   -0.0001    0.0012   -0.0039
    77 C19    2px        0.0008   -0.0000   -0.0003   -0.0000   -0.0002    0.0000    0.0002    0.0000   -0.0002   -0.0105
    78 C19    3px        0.0005   -0.0000   -0.0002   -0.0000   -0.0003    0.0001    0.0002    0.0000   -0.0001   -0.0081
    79 C19    4px       -0.0002   -0.0000    0.0000    0.0000   -0.0000    0.0000   -0.0000    0.0000    0.0002    0.0076
    80 C19    2py       -0.0001   -0.0001    0.0004   -0.0000    0.0005   -0.0001    0.0001   -0.0001   -0.0002    0.0204
    81 C19    3py       -0.0002   -0.0001    0.0003    0.0000   -0.0001   -0.0001   -0.0000   -0.0001   -0.0000   -0.0063
    82 C19    4py       -0.0001   -0.0000   -0.0001    0.0000   -0.0001    0.0000   -0.0001    0.0000    0.0004    0.0057
    83 C19    2pz       -0.0000   -0.0001    0.0001    0.0001    0.0000   -0.0000    0.0001   -0.0000   -0.0000    0.0001
    84 C19    3pz       -0.0000   -0.0001    0.0000    0.0001    0.0000   -0.0000    0.0001   -0.0000   -0.0000    0.0007
    85 C19    4pz        0.0000    0.0000   -0.0000    0.0000   -0.0000   -0.0000   -0.0000    0.0000   -0.0000   -0.0001
    86 C19    3d2-       0.0001   -0.0000   -0.0000    0.0000    0.0000    0.0000    0.0001   -0.0000   -0.0001    0.0005
    87 C19    3d1-      -0.0000    0.0000   -0.0000   -0.0000    0.0000   -0.0000   -0.0000    0.0000    0.0000   -0.0001
    88 C19    3d0       -0.0001   -0.0000   -0.0001    0.0000    0.0001    0.0000   -0.0000   -0.0000    0.0001    0.0015
    89 C19    3d1+      -0.0000    0.0000   -0.0000   -0.0000   -0.0000   -0.0000   -0.0000    0.0000    0.0000    0.0001
    90 C19    3d2+       0.0001   -0.0000   -0.0000   -0.0000   -0.0001    0.0000   -0.0000   -0.0000    0.0001   -0.0069
    91 N2     1s         0.0000    0.0000    0.9998   -0.0000   -0.0002    0.0000    0.0001    0.0000    0.0001   -0.0184
    92 N2     2s         0.0002    0.0002   -0.0000   -0.0001   -0.0001    0.0002    0.0014    0.0001    0.0007    0.1168
    93 N2     3s         0.0002    0.0002   -0.0014    0.0000   -0.0002    0.0001    0.0007    0.0001    0.0005   -0.0497
    94 N2     4s         0.0000    0.0001    0.0005    0.0000    0.0001    0.0000    0.0003    0.0000    0.0001   -0.0120
    95 N2     2px        0.0003   -0.0003    0.0008    0.0004   -0.0003    0.0004    0.0010   -0.0002   -0.0006   -0.0292
    96 N2     3px        0.0003   -0.0005    0.0011    0.0006   -0.0002    0.0005    0.0010   -0.0003   -0.0006    0.0180
    97 N2     4px        0.0001   -0.0001   -0.0001    0.0000   -0.0003    0.0001    0.0001   -0.0001    0.0001   -0.0054
    98 N2     2py       -0.0015    0.0004   -0.0008    0.0001    0.0000    0.0003    0.0007    0.0000   -0.0004    0.0388
    99 N2     3py       -0.0018    0.0004   -0.0003    0.0001   -0.0000    0.0003    0.0006    0.0000   -0.0004    0.0161
   100 N2     4py        0.0000   -0.0000    0.0005   -0.0000   -0.0000    0.0000    0.0002   -0.0000    0.0001   -0.0052
   101 N2     2pz       -0.0000    0.0003   -0.0002   -0.0002   -0.0000   -0.0000   -0.0002    0.0001   -0.0000   -0.0005
   102 N2     3pz       -0.0001    0.0005   -0.0001   -0.0002   -0.0000   -0.0001   -0.0003    0.0001    0.0000    0.0028
   103 N2     4pz       -0.0000    0.0000   -0.0002   -0.0000    0.0000   -0.0000   -0.0001    0.0000    0.0000   -0.0003
   104 N2     3d2-       0.0001    0.0000   -0.0002   -0.0000   -0.0001    0.0000   -0.0000   -0.0000   -0.0000   -0.0028
   105 N2     3d1-       0.0000   -0.0000    0.0000   -0.0000    0.0000   -0.0000    0.0000    0.0000    0.0000   -0.0005
   106 N2     3d0       -0.0000    0.0000   -0.0000   -0.0000    0.0002   -0.0000    0.0001    0.0000   -0.0001   -0.0029
   107 N2     3d1+      -0.0000    0.0000   -0.0000   -0.0000   -0.0000   -0.0000    0.0000    0.0000   -0.0000   -0.0000
   108 N2     3d2+      -0.0000   -0.0000    0.0000   -0.0000    0.0001   -0.0000   -0.0000   -0.0000    0.0000    0.0046
   109 N5     1s         0.0000    0.0001    0.0001    0.9999    0.0000   -0.0003    0.0000    0.0001    0.0000   -0.0018
   110 N5     2s         0.0000    0.0009    0.0004    0.0005    0.0003   -0.0003    0.0000    0.0017    0.0002    0.0006
   111 N5     3s         0.0000    0.0006    0.0003   -0.0011    0.0002   -0.0004    0.0000    0.0010    0.0001   -0.0054
   112 N5     4s         0.0000    0.0001    0.0001    0.0006    0.0000    0.0000   -0.0000    0.0004    0.0000   -0.0010
   113 N5     2px       -0.0001   -0.0011   -0.0003   -0.0006    0.0002    0.0003   -0.0006    0.0009    0.0001   -0.0033
   114 N5     3px       -0.0002   -0.0013   -0.0003   -0.0003    0.0004    0.0001   -0.0007    0.0008    0.0002   -0.0054
   115 N5     4px       -0.0000    0.0001    0.0000    0.0001    0.0001   -0.0002   -0.0000    0.0002    0.0000   -0.0017
   116 N5     2py        0.0001    0.0010   -0.0001    0.0008    0.0000   -0.0003   -0.0003    0.0000    0.0000   -0.0036
   117 N5     3py        0.0001    0.0012   -0.0001    0.0003    0.0000   -0.0001   -0.0001   -0.0002    0.0000   -0.0011
   118 N5     4py       -0.0000    0.0000    0.0000   -0.0004   -0.0000   -0.0001    0.0001   -0.0002   -0.0000    0.0001
   119 N5     2pz        0.0000    0.0004    0.0001    0.0002   -0.0002    0.0001    0.0003   -0.0004   -0.0001    0.0041
   120 N5     3pz        0.0001    0.0005    0.0001    0.0001   -0.0004   -0.0000    0.0005   -0.0004   -0.0002    0.0059
   121 N5     4pz        0.0000   -0.0000   -0.0000   -0.0000   -0.0001    0.0001    0.0000   -0.0001   -0.0000    0.0017
   122 N5     3d2-      -0.0000   -0.0000    0.0000   -0.0001   -0.0000    0.0000    0.0000   -0.0000   -0.0000    0.0003
   123 N5     3d1-       0.0000    0.0000   -0.0000    0.0000   -0.0000    0.0000   -0.0000    0.0000    0.0000   -0.0002
   124 N5     3d0       -0.0000   -0.0000   -0.0000   -0.0000   -0.0000    0.0001   -0.0000    0.0001   -0.0000    0.0001
   125 N5     3d1+       0.0000   -0.0001   -0.0000    0.0001    0.0000    0.0001   -0.0001    0.0001    0.0000   -0.0001
   126 N5     3d2+      -0.0000    0.0001   -0.0000   -0.0001   -0.0000   -0.0001   -0.0000    0.0000   -0.0000    0.0001
   127 O7     1s         0.9997    0.0000    0.0000    0.0000   -0.0003    0.0000   -0.0000    0.0000    0.0000   -0.0235
   128 O7     2s        -0.0016    0.0000    0.0001    0.0001    0.0003    0.0001   -0.0001    0.0000    0.0003    0.6916
   129 O7     3s        -0.0014    0.0000    0.0001    0.0000   -0.0001    0.0001    0.0000    0.0000    0.0003   -0.0338
   130 O7     4s         0.0000    0.0000   -0.0000    0.0000    0.0000    0.0000    0.0000    0.0000    0.0001   -0.0137
   131 O7     2px        0.0001    0.0000   -0.0003   -0.0000    0.0004    0.0001   -0.0000   -0.0000    0.0001    0.0861
   132 O7     3px       -0.0003    0.0000   -0.0004   -0.0000   -0.0000    0.0001    0.0000   -0.0000    0.0001   -0.0261
   133 O7     4px        0.0008    0.0000   -0.0001    0.0000    0.0001    0.0000    0.0000   -0.0000   -0.0000   -0.0016
   134 O7     2py       -0.0001   -0.0000   -0.0002   -0.0000   -0.0006    0.0000    0.0000   -0.0000   -0.0001   -0.1203
   135 O7     3py        0.0006   -0.0000   -0.0002   -0.0000   -0.0003    0.0000   -0.0000   -0.0000   -0.0001    0.0366
   136 O7     4py       -0.0011   -0.0000    0.0001   -0.0000   -0.0003    0.0000   -0.0000   -0.0000    0.0000    0.0001
   137 O7     2pz       -0.0000    0.0000   -0.0000    0.0000    0.0000   -0.0000    0.0000    0.0000    0.0000    0.0033
   138 O7     3pz       -0.0000    0.0000   -0.0000    0.0000   -0.0000   -0.0001    0.0000   -0.0000    0.0000    0.0000
   139 O7     4pz        0.0000    0.0000   -0.0000    0.0000   -0.0000   -0.0000    0.0000   -0.0000    0.0000    0.0003
   140 O7     3d2-       0.0001   -0.0000    0.0000   -0.0000   -0.0002   -0.0000    0.0000    0.0000   -0.0000   -0.0181
   141 O7     3d1-       0.0000   -0.0000    0.0000    0.0000   -0.0000   -0.0000    0.0000   -0.0000   -0.0000   -0.0005
   142 O7     3d0       -0.0000    0.0000   -0.0001    0.0000   -0.0001    0.0000   -0.0000    0.0000   -0.0000   -0.0105
   143 O7     3d1+      -0.0000    0.0000   -0.0000   -0.0000    0.0000   -0.0000    0.0000    0.0000   -0.0000    0.0003
   144 O7     3d2+       0.0000   -0.0000   -0.0001   -0.0000   -0.0001    0.0000   -0.0000    0.0000   -0.0000   -0.0067
   145 O8     1s        -0.0000    0.9997   -0.0000    0.0000    0.0000   -0.0002    0.0000   -0.0000    0.0000   -0.0017
   146 O8     2s        -0.0001   -0.0015   -0.0002    0.0002    0.0002    0.0007   -0.0001   -0.0003    0.0001    0.0295
   147 O8     3s        -0.0001   -0.0014   -0.0001    0.0001    0.0002    0.0001    0.0000   -0.0001    0.0001   -0.0034
   148 O8     4s        -0.0001    0.0000   -0.0000    0.0000    0.0001    0.0001   -0.0000   -0.0000    0.0000   -0.0011
   149 O8     2px        0.0001   -0.0001    0.0001   -0.0002   -0.0001   -0.0000    0.0001   -0.0000   -0.0001   -0.0027
   150 O8     3px        0.0001    0.0002    0.0000   -0.0002   -0.0002   -0.0001    0.0001   -0.0000   -0.0001    0.0015
   151 O8     4px        0.0000   -0.0005   -0.0000    0.0001   -0.0000   -0.0001    0.0000   -0.0000   -0.0000   -0.0001
   152 O8     2py        0.0001    0.0002   -0.0000   -0.0001    0.0001    0.0008   -0.0001   -0.0001   -0.0000    0.0050
   153 O8     3py        0.0001   -0.0005   -0.0000   -0.0002    0.0000    0.0002   -0.0000   -0.0000   -0.0000   -0.0034
   154 O8     4py        0.0000    0.0013   -0.0000   -0.0001   -0.0000    0.0001   -0.0001    0.0000   -0.0000    0.0001
   155 O8     2pz       -0.0000   -0.0000   -0.0000    0.0001    0.0000    0.0002   -0.0001    0.0000    0.0001    0.0010
   156 O8     3pz       -0.0000   -0.0001   -0.0001    0.0001    0.0000    0.0000   -0.0001    0.0000    0.0001   -0.0010
   157 O8     4pz       -0.0000    0.0001   -0.0000   -0.0000    0.0000    0.0000   -0.0000   -0.0000    0.0000   -0.0001
   158 O8     3d2-      -0.0000    0.0001    0.0000   -0.0000   -0.0000   -0.0001    0.0000   -0.0000   -0.0000   -0.0006
   159 O8     3d1-      -0.0000   -0.0000    0.0000    0.0000    0.0000    0.0000   -0.0000    0.0000    0.0000    0.0002
   160 O8     3d0       -0.0000    0.0000    0.0000   -0.0000   -0.0000   -0.0001   -0.0000   -0.0000   -0.0000   -0.0004
   161 O8     3d1+       0.0000   -0.0000    0.0000   -0.0000   -0.0000    0.0000   -0.0000   -0.0000   -0.0000   -0.0000
   162 O8     3d2+      -0.0000    0.0001   -0.0000    0.0000   -0.0000   -0.0002    0.0000    0.0000    0.0000   -0.0005
   163 H9     1s         0.0002    0.0000    0.0001   -0.0001    0.0000   -0.0002   -0.0004   -0.0000    0.0003    0.0138
   164 H9     2s         0.0001    0.0000    0.0000   -0.0000    0.0000   -0.0001   -0.0003   -0.0000   -0.0002    0.0033
   165 H9     2px       -0.0000    0.0000    0.0000   -0.0000    0.0000   -0.0000   -0.0000   -0.0000   -0.0000    0.0009
   166 H9     2py       -0.0001    0.0000   -0.0000    0.0000    0.0001   -0.0000   -0.0000    0.0000    0.0000    0.0012
   167 H9     2pz       -0.0000    0.0000    0.0000    0.0000   -0.0000    0.0000    0.0000    0.0000    0.0001   -0.0006
   168 H10    1s         0.0001   -0.0003    0.0002    0.0001    0.0001   -0.0001   -0.0002   -0.0000    0.0003    0.0140
   169 H10    2s         0.0001   -0.0002    0.0001    0.0000    0.0001   -0.0001   -0.0001   -0.0000   -0.0003    0.0031
   170 H10    2px       -0.0000   -0.0000    0.0001    0.0000    0.0000   -0.0000   -0.0000   -0.0000   -0.0000    0.0009
   171 H10    2py       -0.0001   -0.0000   -0.0000   -0.0000    0.0000   -0.0000   -0.0000    0.0000    0.0000    0.0011
   172 H10    2pz        0.0000   -0.0000    0.0000    0.0000    0.0000   -0.0000   -0.0000   -0.0000   -0.0001    0.0006
   173 H11    1s        -0.0005   -0.0001    0.0005    0.0000    0.0004   -0.0001   -0.0001   -0.0001    0.0004    0.0206
   174 H11    2s        -0.0003   -0.0001    0.0004    0.0000    0.0002   -0.0001   -0.0001   -0.0001   -0.0002    0.0061
   175 H11    2px       -0.0000    0.0000   -0.0001   -0.0000   -0.0000    0.0000    0.0000    0.0000    0.0001   -0.0001
   176 H11    2py       -0.0000   -0.0000    0.0000    0.0000    0.0001    0.0000   -0.0000   -0.0000   -0.0000    0.0019
   177 H11    2pz       -0.0000    0.0000   -0.0000   -0.0000   -0.0000    0.0000   -0.0000    0.0000   -0.0000    0.0000
   178 H12    1s        -0.0011    0.0007   -0.0009   -0.0001    0.0000    0.0001   -0.0003    0.0000   -0.0005    0.0354
   179 H12    2s        -0.0006    0.0005   -0.0006   -0.0000   -0.0000    0.0000   -0.0001   -0.0000   -0.0003   -0.0032
   180 H12    2px        0.0001   -0.0000    0.0002   -0.0000   -0.0001    0.0000    0.0000    0.0000    0.0001   -0.0047
   181 H12    2py       -0.0000    0.0001   -0.0004    0.0000    0.0000    0.0000    0.0000   -0.0000   -0.0000    0.0039
   182 H12    2pz       -0.0000   -0.0000   -0.0001    0.0000    0.0000    0.0000    0.0000   -0.0000   -0.0000    0.0007
   183 H13    1s         0.0001   -0.0001   -0.0004    0.0004   -0.0004   -0.0002    0.0008   -0.0002    0.0001    0.0137
   184 H13    2s         0.0001   -0.0001   -0.0002    0.0002   -0.0002   -0.0002    0.0000   -0.0001    0.0001   -0.0013
   185 H13    2px        0.0000   -0.0000    0.0000   -0.0000   -0.0000    0.0001    0.0000   -0.0000   -0.0000   -0.0004
   186 H13    2py        0.0000   -0.0000    0.0000   -0.0001    0.0000    0.0000   -0.0001   -0.0000   -0.0000   -0.0010
   187 H13    2pz        0.0000   -0.0000    0.0000    0.0000   -0.0000   -0.0000   -0.0000   -0.0000   -0.0000    0.0012
   188 H14    1s         0.0001    0.0007   -0.0005   -0.0001   -0.0008   -0.0001    0.0009   -0.0002   -0.0002    0.0157
   189 H14    2s         0.0000    0.0005   -0.0002   -0.0001   -0.0005   -0.0001    0.0002   -0.0002   -0.0002    0.0046
   190 H14    2px        0.0000   -0.0000    0.0000   -0.0000    0.0001    0.0001    0.0000   -0.0000   -0.0000   -0.0005
   191 H14    2py       -0.0000   -0.0001    0.0000    0.0000    0.0000    0.0000   -0.0000    0.0000    0.0000   -0.0005
   192 H14    2pz        0.0000   -0.0000   -0.0000    0.0000    0.0001   -0.0000    0.0000    0.0000    0.0000   -0.0013
   193 H15    1s        -0.0002   -0.0014   -0.0001   -0.0008   -0.0001    0.0003    0.0001   -0.0001   -0.0001    0.0073
   194 H15    2s        -0.0001   -0.0008   -0.0000   -0.0006   -0.0001    0.0001    0.0001   -0.0000   -0.0001    0.0035
   195 H15    2px       -0.0000   -0.0000    0.0000   -0.0002   -0.0000   -0.0000    0.0000    0.0000   -0.0000    0.0005
   196 H15    2py        0.0000    0.0001    0.0000    0.0004    0.0000   -0.0002   -0.0000    0.0000    0.0000   -0.0010
   197 H15    2pz       -0.0000    0.0000   -0.0000    0.0001    0.0000    0.0001   -0.0000   -0.0000    0.0000   -0.0001
   198 H16    1s         0.0001    0.0003   -0.0002   -0.0005   -0.0001   -0.0004   -0.0001    0.0005   -0.0000    0.0023
   199 H16    2s         0.0001    0.0002   -0.0001   -0.0002   -0.0001   -0.0004   -0.0001   -0.0001   -0.0000    0.0018
   200 H16    2px       -0.0000   -0.0000   -0.0000    0.0000    0.0000   -0.0000   -0.0000   -0.0000    0.0000    0.0000
   201 H16    2py       -0.0000   -0.0000    0.0000    0.0000    0.0000    0.0000    0.0000    0.0000   -0.0000    0.0000
   202 H16    2pz        0.0000    0.0000   -0.0000   -0.0000   -0.0000   -0.0001   -0.0000   -0.0000   -0.0000    0.0002
   203 H17    1s        -0.0001    0.0003    0.0000   -0.0005   -0.0001   -0.0003    0.0002    0.0005   -0.0001    0.0039
   204 H17    2s        -0.0000    0.0002    0.0000   -0.0002   -0.0001   -0.0002    0.0001   -0.0001   -0.0000    0.0027
   205 H17    2px        0.0000   -0.0000    0.0000    0.0000    0.0000    0.0000   -0.0000   -0.0000    0.0000   -0.0002
   206 H17    2py        0.0000   -0.0000   -0.0000    0.0000    0.0000    0.0000   -0.0000    0.0000    0.0000   -0.0003
   207 H17    2pz        0.0000   -0.0000    0.0000   -0.0000    0.0000    0.0000   -0.0000    0.0000    0.0000   -0.0003
   208 H18    1s        -0.0001   -0.0000   -0.0001   -0.0002   -0.0001   -0.0000    0.0001    0.0010    0.0000    0.0034
   209 H18    2s        -0.0000    0.0000   -0.0001   -0.0000   -0.0001    0.0000    0.0000    0.0001    0.0000    0.0019
   210 H18    2px        0.0000    0.0000    0.0000   -0.0000    0.0000   -0.0000   -0.0000   -0.0001   -0.0000   -0.0001
   211 H18    2py       -0.0000   -0.0000   -0.0000    0.0000   -0.0000   -0.0000    0.0000    0.0001   -0.0000    0.0005
   212 H18    2pz       -0.0000    0.0000    0.0000    0.0000   -0.0000    0.0000    0.0000    0.0000   -0.0000    0.0001
 
 
      Orbital                11        12        13        14        15        16        17        18        19        20
      Energy            -1.3700   -1.2536   -1.2175   -1.0285   -0.9730   -0.9151   -0.8180   -0.7801   -0.7199   -0.6935
      Occ. No.           2.0000    2.0000    2.0000    2.0000    2.0000    2.0000    2.0000    2.0000    2.0000    2.0000
 
     1 C1     1s         0.0048   -0.0091    0.0020   -0.0155    0.0006    0.0064   -0.0135    0.0023    0.0069   -0.0031
     2 C1     2s         0.0077    0.1270    0.0088    0.2842   -0.0434   -0.0946    0.3716   -0.0228   -0.2667    0.0692
     3 C1     3s         0.0185   -0.0019    0.0123   -0.0133    0.0003    0.0077   -0.0035    0.0064    0.0060   -0.0177
     4 C1     4s         0.0052    0.0004    0.0040   -0.0041   -0.0008    0.0037   -0.0024    0.0020    0.0036   -0.0031
     5 C1     2px        0.0306    0.1534    0.0148   -0.0080    0.1016   -0.0996    0.1362   -0.0025    0.1433   -0.2582
     6 C1     3px        0.0162   -0.0377    0.0261   -0.0541   -0.0282    0.0420   -0.0220   -0.0022   -0.0676    0.0524
     7 C1     4px        0.0086    0.0283    0.0051   -0.0104    0.0106   -0.0064    0.0104   -0.0013    0.0047   -0.0178
     8 C1     2py        0.0032   -0.0382    0.0182   -0.1586    0.0653   -0.0005    0.0568    0.0371    0.0538    0.1548
     9 C1     3py        0.0225    0.0432    0.0205    0.0109   -0.0476    0.0418   -0.0051    0.0001   -0.0022   -0.0664
    10 C1     4py       -0.0001   -0.0060    0.0036   -0.0250    0.0073    0.0041    0.0083    0.0022   -0.0017    0.0086
    11 C1     2pz        0.0005   -0.0070   -0.0030    0.0082    0.0023   -0.0058    0.0080    0.0003    0.0032   -0.0011
    12 C1     3pz        0.0003   -0.0095   -0.0044    0.0057    0.0056   -0.0087    0.0043    0.0004    0.0027    0.0019
    13 C1     4pz       -0.0002   -0.0014   -0.0010    0.0023    0.0009   -0.0026    0.0004    0.0003    0.0013    0.0006
    14 C1     3d2-       0.0037    0.0148   -0.0000    0.0082   -0.0089    0.0070    0.0129    0.0070    0.0171   -0.0058
    15 C1     3d1-       0.0001    0.0002    0.0000   -0.0003    0.0004   -0.0001   -0.0001    0.0000    0.0002   -0.0001
    16 C1     3d0        0.0012   -0.0065   -0.0000   -0.0116    0.0001    0.0052   -0.0133    0.0007    0.0063   -0.0024
    17 C1     3d1+      -0.0000   -0.0009    0.0001    0.0003    0.0007   -0.0005    0.0012    0.0003    0.0012   -0.0001
    18 C1     3d2+       0.0028    0.0278   -0.0009    0.0032    0.0148   -0.0140    0.0100   -0.0008    0.0144   -0.0170
    19 C3     1s        -0.0157   -0.0303   -0.0069    0.0345    0.0251   -0.0235   -0.0104   -0.0070   -0.0005    0.0003
    20 C3     2s         0.0246    0.1767    0.0162   -0.2908   -0.2282    0.3089    0.1012    0.0750   -0.0273   -0.0434
    21 C3     3s        -0.0383   -0.0479   -0.0184    0.0591    0.0431   -0.0228   -0.0236   -0.0158    0.0011    0.0005
    22 C3     4s        -0.0047   -0.0094   -0.0020    0.0158    0.0103   -0.0060   -0.0058   -0.0052    0.0018    0.0020
    23 C3     2px        0.0158   -0.0524    0.0280   -0.0406   -0.0750   -0.0006   -0.0468   -0.1350   -0.2540   -0.1030
    24 C3     3px        0.0006    0.0056    0.0158   -0.0346    0.0220    0.0097    0.0147    0.0264    0.0400    0.0118
    25 C3     4px        0.0105   -0.0087    0.0069   -0.0066    0.0016   -0.0037   -0.0024   -0.0066   -0.0021   -0.0029
    26 C3     2py       -0.0375   -0.1019    0.0060    0.0055   -0.0354   -0.0362    0.1480    0.0210   -0.0304   -0.2318
    27 C3     3py       -0.0025    0.0065   -0.0065   -0.0399    0.0099   -0.0303   -0.0108    0.0129    0.0075    0.0336
    28 C3     4py        0.0056   -0.0027    0.0030   -0.0147   -0.0082    0.0043    0.0081    0.0099   -0.0031   -0.0098
    29 C3     2pz       -0.0017    0.0010   -0.0154    0.0096    0.0227    0.0226   -0.0004    0.0535    0.0666    0.0546
    30 C3     3pz        0.0089    0.0003   -0.0034   -0.0053   -0.0158    0.0134    0.0009   -0.0095   -0.0077   -0.0080
    31 C3     4pz       -0.0040    0.0059   -0.0010   -0.0035   -0.0032    0.0095    0.0003    0.0022   -0.0013    0.0000
    32 C3     3d2-      -0.0021    0.0190    0.0044   -0.0025    0.0077   -0.0022   -0.0025    0.0063    0.0207    0.0198
    33 C3     3d1-       0.0035   -0.0026   -0.0021    0.0005   -0.0019    0.0008   -0.0014   -0.0032   -0.0089   -0.0023
    34 C3     3d0       -0.0024   -0.0125    0.0008    0.0063   -0.0011   -0.0029    0.0067   -0.0016   -0.0048   -0.0118
    35 C3     3d1+      -0.0011   -0.0041   -0.0025    0.0051    0.0072    0.0002    0.0051    0.0084    0.0106   -0.0019
    36 C3     3d2+       0.0002   -0.0085    0.0033   -0.0004   -0.0101   -0.0036    0.0160   -0.0095   -0.0096   -0.0166
    37 C4     1s        -0.0400    0.0066   -0.0066    0.0084    0.0153    0.0076   -0.0042    0.0160    0.0034    0.0022
    38 C4     2s         0.3547    0.0072    0.1286   -0.1151   -0.2269   -0.0449    0.0259   -0.4005   -0.0833   -0.0242
    39 C4     3s        -0.0082    0.0161    0.0075    0.0130    0.0132    0.0190   -0.0122    0.0085    0.0051    0.0044
    40 C4     4s         0.0021    0.0049    0.0026    0.0041    0.0041    0.0059   -0.0027    0.0047    0.0037    0.0024
    41 C4     2px        0.0588   -0.0493    0.0595    0.0707    0.1037   -0.0498    0.0214   -0.0641    0.1725    0.0688
    42 C4     3px       -0.0184   -0.0026    0.0426   -0.0235    0.0471    0.0888    0.0014    0.0029   -0.0780   -0.0361
    43 C4     4px        0.0146   -0.0124    0.0166    0.0078    0.0203    0.0038    0.0044   -0.0066    0.0034   -0.0007
    44 C4     2py       -0.0809    0.0062    0.1582   -0.0349   -0.0777   -0.0719    0.0206   -0.0894    0.0279   -0.0398
    45 C4     3py        0.0603   -0.0349   -0.0479    0.0191    0.0397    0.0249    0.0180    0.0237   -0.0158    0.0091
    46 C4     4py       -0.0234   -0.0028    0.0298   -0.0023   -0.0077   -0.0059    0.0103   -0.0021    0.0023   -0.0028
    47 C4     2pz       -0.0161    0.0178   -0.0487   -0.0344   -0.0478    0.0285   -0.0142    0.0283   -0.1050   -0.0322
    48 C4     3pz       -0.0033   -0.0037   -0.0207    0.0135   -0.0180   -0.0589   -0.0043   -0.0034    0.0431    0.0205
    49 C4     4pz       -0.0056    0.0042   -0.0127   -0.0046   -0.0081   -0.0027   -0.0029    0.0035   -0.0030    0.0007
    50 C4     3d2-      -0.0193    0.0039    0.0255    0.0011   -0.0018   -0.0121   -0.0071   -0.0122    0.0124    0.0117
    51 C4     3d1-       0.0007   -0.0009   -0.0130   -0.0002    0.0025    0.0089    0.0026    0.0073   -0.0072   -0.0058
    52 C4     3d0       -0.0252    0.0039   -0.0011    0.0024    0.0071    0.0047   -0.0021    0.0067   -0.0000    0.0014
    53 C4     3d1+      -0.0075   -0.0019   -0.0075    0.0076    0.0091   -0.0037   -0.0005    0.0148    0.0020   -0.0014
    54 C4     3d2+      -0.0277    0.0085    0.0014   -0.0068    0.0009    0.0160    0.0007   -0.0060    0.0000    0.0034
    55 C6     1s        -0.0091    0.0045   -0.0346   -0.0127   -0.0379   -0.0425   -0.0062    0.0070    0.0062    0.0057
    56 C6     2s         0.0242    0.0075    0.1555    0.0987    0.2534    0.3665    0.0269   -0.1163   -0.0519   -0.0405
    57 C6     3s        -0.0136    0.0201   -0.0600   -0.0153   -0.0733   -0.0691   -0.0196    0.0101    0.0162    0.0162
    58 C6     4s        -0.0003    0.0061   -0.0097   -0.0021   -0.0162   -0.0138   -0.0050    0.0029    0.0043    0.0043
    59 C6     2px       -0.0208   -0.0029   -0.0960   -0.0244   -0.0130    0.0347    0.0320   -0.0901   -0.0890   -0.1156
    60 C6     3px        0.0027   -0.0106    0.0179    0.0023    0.0209    0.0040    0.0024    0.0074    0.0155    0.0186
    61 C6     4px       -0.0034   -0.0009   -0.0010    0.0043    0.0128    0.0182    0.0034   -0.0090   -0.0046   -0.0053
    62 C6     2py       -0.0061    0.0010    0.0029   -0.0016    0.0106    0.0122   -0.0157    0.1230   -0.0991   -0.0425
    63 C6     3py       -0.0012   -0.0004    0.0015   -0.0019    0.0091    0.0113    0.0028   -0.0030    0.0075    0.0028
    64 C6     4py       -0.0003   -0.0001    0.0024    0.0004    0.0022    0.0002   -0.0029    0.0070   -0.0055   -0.0023
    65 C6     2pz        0.0107    0.0034    0.0465    0.0070    0.0034   -0.0150   -0.0116    0.0271    0.0522    0.0584
    66 C6     3pz       -0.0001    0.0081   -0.0077   -0.0058   -0.0133    0.0003    0.0003   -0.0024   -0.0078   -0.0102
    67 C6     4pz        0.0019    0.0010    0.0003   -0.0018   -0.0070   -0.0085   -0.0011    0.0033    0.0026    0.0026
    68 C6     3d2-       0.0001    0.0001   -0.0024   -0.0010   -0.0021   -0.0012    0.0019   -0.0113    0.0035    0.0001
    69 C6     3d1-      -0.0002    0.0001    0.0013   -0.0000    0.0006    0.0003   -0.0010    0.0065   -0.0031   -0.0008
    70 C6     3d0       -0.0012    0.0004   -0.0050   -0.0019   -0.0028   -0.0004    0.0004   -0.0004   -0.0063   -0.0051
    71 C6     3d1+      -0.0037    0.0008   -0.0157   -0.0037   -0.0045    0.0019    0.0023   -0.0050   -0.0111   -0.0117
    72 C6     3d2+       0.0031   -0.0005    0.0171    0.0031    0.0035   -0.0030   -0.0032    0.0120    0.0058    0.0094
    73 C19    1s         0.0008   -0.0099    0.0012   -0.0554    0.0436   -0.0223    0.0135   -0.0037   -0.0092   -0.0022
    74 C19    2s         0.0042   -0.0002    0.0061    0.2936   -0.2762    0.1658   -0.0700    0.0379    0.1005   -0.0005
    75 C19    3s         0.0067   -0.0277    0.0088   -0.1104    0.0824   -0.0376    0.0374   -0.0066   -0.0169   -0.0122
    76 C19    4s         0.0027   -0.0032    0.0033   -0.0237    0.0185   -0.0082    0.0102   -0.0020   -0.0053   -0.0035
    77 C19    2px        0.0026    0.0235   -0.0021    0.0549   -0.0009   -0.0278    0.0439   -0.0244   -0.0586   -0.1335
    78 C19    3px       -0.0005   -0.0023   -0.0023    0.0052    0.0057   -0.0029   -0.0027    0.0041    0.0134    0.0117
    79 C19    4px       -0.0013    0.0001   -0.0007   -0.0072    0.0124   -0.0090    0.0010   -0.0033   -0.0063   -0.0030
    80 C19    2py        0.0035    0.0086    0.0066    0.0443   -0.0133   -0.0146    0.0614   -0.0323   -0.2057    0.0510
    81 C19    3py        0.0058   -0.0019    0.0075   -0.0323    0.0182   -0.0018   -0.0094    0.0007    0.0208   -0.0127
    82 C19    4py        0.0004    0.0014    0.0003   -0.0125    0.0140   -0.0096    0.0130   -0.0016   -0.0090    0.0015
    83 C19    2pz        0.0020   -0.0021   -0.0001   -0.0015    0.0004    0.0016    0.0007   -0.0008    0.0061    0.0002
    84 C19    3pz        0.0020   -0.0011    0.0002   -0.0010   -0.0010    0.0023    0.0001   -0.0021   -0.0012   -0.0002
    85 C19    4pz        0.0000    0.0004    0.0002   -0.0001   -0.0009    0.0008   -0.0004   -0.0001    0.0001   -0.0002
    86 C19    3d2-       0.0004    0.0059   -0.0001    0.0109   -0.0025   -0.0027    0.0070   -0.0027   -0.0140    0.0003
    87 C19    3d1-      -0.0000    0.0001    0.0001   -0.0004    0.0001    0.0000   -0.0001    0.0001    0.0007    0.0000
    88 C19    3d0       -0.0001   -0.0008    0.0001   -0.0087    0.0041    0.0006   -0.0033    0.0024    0.0083    0.0084
    89 C19    3d1+      -0.0002    0.0002    0.0001   -0.0004   -0.0001    0.0002   -0.0004    0.0001   -0.0000    0.0005
    90 C19    3d2+       0.0006    0.0024   -0.0001   -0.0071    0.0051   -0.0011   -0.0029    0.0018    0.0139   -0.0046
    91 N2     1s        -0.0065   -0.0413    0.0001   -0.0041   -0.0039    0.0009    0.0032   -0.0001    0.0018    0.0009
    92 N2     2s         0.0554    0.5846   -0.0194   -0.0092    0.2057   -0.1297   -0.1607   -0.0186    0.1221    0.0514
    93 N2     3s        -0.0156   -0.0793   -0.0030   -0.0096    0.0053   -0.0069    0.0043    0.0004    0.0091    0.0019
    94 N2     4s        -0.0040   -0.0256   -0.0003   -0.0008   -0.0010   -0.0004    0.0023    0.0002   -0.0005   -0.0001
    95 N2     2px        0.0208   -0.0369    0.0026   -0.1430   -0.0295    0.1264   -0.3656   -0.0021   -0.0814    0.2694
    96 N2     3px        0.0116   -0.0202    0.0064    0.0345    0.0497   -0.0596    0.1110   -0.0021   -0.0078   -0.0609
    97 N2     4px        0.0055    0.0005    0.0021   -0.0060    0.0069   -0.0039   -0.0010   -0.0008   -0.0024   -0.0060
    98 N2     2py       -0.0045   -0.0013    0.0013   -0.1186   -0.0399    0.1112    0.2226    0.1464    0.2455    0.2195
    99 N2     3py       -0.0116   -0.0443   -0.0064    0.0403    0.0421   -0.0548   -0.0270   -0.0380   -0.0542   -0.0308
   100 N2     4py        0.0008   -0.0111    0.0000   -0.0008    0.0045   -0.0045    0.0081   -0.0026   -0.0019   -0.0047
   101 N2     2pz       -0.0070   -0.0032    0.0024    0.0087   -0.0009   -0.0051    0.0145    0.0096    0.0236    0.0007
   102 N2     3pz       -0.0047    0.0162    0.0017   -0.0031   -0.0059    0.0009   -0.0146    0.0007   -0.0040    0.0005
   103 N2     4pz       -0.0015    0.0006    0.0000   -0.0001   -0.0003    0.0002   -0.0010    0.0009   -0.0006   -0.0004
   104 N2     3d2-       0.0008    0.0068    0.0003   -0.0023   -0.0079    0.0091    0.0062    0.0042    0.0067    0.0043
   105 N2     3d1-       0.0000   -0.0004   -0.0002    0.0016    0.0013   -0.0014   -0.0026   -0.0008   -0.0020   -0.0015
   106 N2     3d0       -0.0020   -0.0169    0.0008    0.0012   -0.0042    0.0013    0.0000   -0.0004   -0.0021    0.0001
   107 N2     3d1+      -0.0006   -0.0008    0.0005    0.0008   -0.0004   -0.0007    0.0030    0.0005    0.0016   -0.0013
   108 N2     3d2+       0.0009    0.0055    0.0005    0.0102    0.0052   -0.0118    0.0182   -0.0046   -0.0046   -0.0142
   109 N5     1s        -0.0195    0.0015   -0.0426   -0.0016    0.0009    0.0029    0.0022   -0.0034    0.0032    0.0017
   110 N5     2s         0.1243   -0.0335    0.5775    0.0439   -0.0191   -0.2208   -0.0595    0.1662    0.1027    0.0973
   111 N5     3s        -0.0493    0.0032   -0.0800   -0.0028   -0.0056   -0.0138    0.0007   -0.0003    0.0151    0.0095
   112 N5     4s        -0.0116    0.0019   -0.0265   -0.0015   -0.0026   -0.0015   -0.0000   -0.0022    0.0017    0.0008
   113 N5     2px        0.0151   -0.0161   -0.0123    0.0501    0.1495    0.1425    0.0060    0.0260    0.0778    0.1147
   114 N5     3px        0.0184   -0.0189   -0.0225   -0.0243   -0.0494   -0.0805    0.0125   -0.0009   -0.0137   -0.0242
   115 N5     4px       -0.0076   -0.0035   -0.0051    0.0007    0.0020   -0.0038    0.0033   -0.0031    0.0012   -0.0014
   116 N5     2py       -0.0397    0.0088   -0.0122    0.0147    0.0537    0.0326   -0.0706    0.3904   -0.2240   -0.0866
   117 N5     3py        0.0100   -0.0023    0.0291    0.0046    0.0061    0.0046    0.0058   -0.1017    0.0365    0.0165
   118 N5     4py       -0.0014   -0.0016    0.0107    0.0045    0.0037   -0.0003   -0.0005    0.0075   -0.0022   -0.0022
   119 N5     2pz        0.0041    0.0098    0.0113   -0.0265   -0.0879   -0.0729    0.0042   -0.0730   -0.0169   -0.0453
   120 N5     3pz       -0.0104    0.0119    0.0074    0.0210    0.0219    0.0375   -0.0080    0.0142    0.0028    0.0096
   121 N5     4pz        0.0035    0.0021    0.0006    0.0021   -0.0015    0.0014   -0.0019    0.0006   -0.0002    0.0010
   122 N5     3d2-       0.0026   -0.0004    0.0064   -0.0021   -0.0061   -0.0034    0.0032   -0.0180    0.0048    0.0002
   123 N5     3d1-      -0.0027    0.0006   -0.0064    0.0012    0.0041    0.0039   -0.0016    0.0091   -0.0024    0.0002
   124 N5     3d0       -0.0024    0.0013   -0.0100   -0.0011   -0.0002    0.0039    0.0005   -0.0025   -0.0009   -0.0003
   125 N5     3d1+      -0.0006    0.0002   -0.0140   -0.0010   -0.0022   -0.0024   -0.0001    0.0006   -0.0008   -0.0014
   126 N5     3d2+      -0.0044    0.0018    0.0016    0.0010    0.0062    0.0121   -0.0001    0.0014   -0.0012    0.0020
   127 O7     1s         0.0014    0.0028   -0.0005   -0.0042    0.0023    0.0006   -0.0130   -0.0008    0.0144   -0.0216
   128 O7     2s        -0.0748   -0.3058    0.0011   -0.2085    0.0610    0.0313   -0.3392   -0.0233    0.2439   -0.3539
   129 O7     3s        -0.0001   -0.0085   -0.0018   -0.0197    0.0103    0.0004   -0.0414   -0.0029    0.0399   -0.0612
   130 O7     4s         0.0006   -0.0000   -0.0005   -0.0033    0.0026   -0.0007   -0.0082   -0.0007    0.0078   -0.0129
   131 O7     2px       -0.0084   -0.0022   -0.0023    0.0003    0.0282   -0.0335    0.1676    0.0154   -0.1045    0.2287
   132 O7     3px       -0.0014   -0.0014   -0.0027   -0.0052    0.0056    0.0020   -0.0221   -0.0025    0.0103   -0.0191
   133 O7     4px       -0.0003   -0.0003   -0.0003   -0.0001    0.0006    0.0008   -0.0020    0.0000    0.0009   -0.0009
   134 O7     2py        0.0119    0.0396   -0.0008   -0.0314    0.0256    0.0016   -0.1515   -0.0031    0.2703   -0.4104
   135 O7     3py       -0.0035   -0.0016   -0.0010    0.0144    0.0006   -0.0044    0.0229   -0.0026   -0.0319    0.0442
   136 O7     4py       -0.0007   -0.0019   -0.0002   -0.0001    0.0012    0.0004    0.0025   -0.0006   -0.0037    0.0068
   137 O7     2pz       -0.0002    0.0008    0.0008    0.0013   -0.0009    0.0003    0.0034   -0.0003   -0.0081    0.0094
   138 O7     3pz        0.0004    0.0026    0.0019   -0.0011   -0.0009    0.0011   -0.0019   -0.0002   -0.0002   -0.0008
   139 O7     4pz        0.0002    0.0008    0.0007   -0.0002   -0.0002    0.0002   -0.0005   -0.0001   -0.0000   -0.0002
   140 O7     3d2-       0.0016    0.0036    0.0000    0.0007   -0.0022    0.0026   -0.0116   -0.0005    0.0100   -0.0181
   141 O7     3d1-       0.0001    0.0002    0.0000   -0.0001    0.0001   -0.0000   -0.0002   -0.0000    0.0003   -0.0006
   142 O7     3d0        0.0011    0.0043   -0.0002    0.0014    0.0000   -0.0002   -0.0048   -0.0006    0.0064   -0.0120
   143 O7     3d1+       0.0000   -0.0000    0.0001    0.0001    0.0001   -0.0001    0.0002   -0.0000   -0.0003    0.0005
   144 O7     3d2+       0.0008    0.0051   -0.0001   -0.0022    0.0045   -0.0030    0.0012    0.0007    0.0110   -0.0122
   145 O8     1s        -0.0234    0.0022    0.0032    0.0012    0.0033   -0.0003   -0.0006    0.0128    0.0020   -0.0025
   146 O8     2s         0.6710   -0.1434   -0.3259    0.1131    0.1505   -0.0009    0.0146    0.3538    0.0375   -0.0678
   147 O8     3s        -0.0295   -0.0043   -0.0119    0.0078    0.0142   -0.0021    0.0012    0.0472    0.0064   -0.0085
   148 O8     4s        -0.0129   -0.0007   -0.0008    0.0007    0.0017   -0.0009    0.0012    0.0100    0.0013   -0.0018
   149 O8     2px       -0.0415   -0.0041    0.0331    0.0192    0.0079   -0.0327    0.0292    0.0302    0.1031    0.0016
   150 O8     3px        0.0150   -0.0021   -0.0041    0.0013   -0.0108   -0.0069   -0.0016   -0.0088   -0.0057    0.0036
   151 O8     4px        0.0003   -0.0008   -0.0027    0.0012   -0.0002   -0.0001   -0.0003   -0.0004   -0.0020    0.0002
   152 O8     2py        0.1355   -0.0275   -0.0292    0.0017   -0.0205   -0.0193    0.0292   -0.1974    0.0338    0.0680
   153 O8     3py       -0.0395    0.0021    0.0016    0.0051    0.0062    0.0027   -0.0006    0.0293    0.0014   -0.0057
   154 O8     4py       -0.0008   -0.0006    0.0015   -0.0002   -0.0016    0.0018    0.0022    0.0039   -0.0002   -0.0012
   155 O8     2pz        0.0153    0.0060   -0.0105   -0.0159   -0.0120    0.0206   -0.0150   -0.0039   -0.0602   -0.0093
   156 O8     3pz       -0.0015    0.0027    0.0032   -0.0025    0.0032    0.0060    0.0017    0.0021    0.0032   -0.0010
   157 O8     4pz        0.0003    0.0011    0.0015   -0.0010    0.0001    0.0007    0.0003    0.0003    0.0014    0.0002
   158 O8     3d2-      -0.0109    0.0010    0.0058    0.0010    0.0006   -0.0029    0.0006    0.0037    0.0059   -0.0005
   159 O8     3d1-       0.0025    0.0002   -0.0016   -0.0013   -0.0011    0.0019   -0.0005   -0.0007   -0.0043   -0.0007
[...]
AIVX     1  Mu1.0001  In1.026 Se1.046               0.23600614      0.00086848     -0.00216670     -0.00000188
AIVX     1  Mu1.0001  In1.027 Se1.046               0.21767686      0.00077337     -0.00120934     -0.00000094
AIVX     1  Mu1.0001  In1.028 Se1.046               0.03178353      0.00014094     -0.00041950     -0.00000006
AIVX     1  Mu1.0001  In1.029 Se1.046               0.06275984     -0.00014252      0.00041669     -0.00000006
AIVX     1  Mu1.0001  In1.018 Se1.047               0.25891136     -0.00002370      0.00057095     -0.00000001
AIVX     1  Mu1.0001  In1.021 Se1.047               0.19356737      0.00122395     -0.00279320     -0.00000342
AIVX     1  Mu1.0001  In1.022 Se1.047               0.11122930     -0.00015386      0.00057313     -0.00000009
AIVX     1  Mu1.0001  In1.023 Se1.047               0.20942944      0.00214364     -0.00434178     -0.00000931
AIVX     1  Mu1.0001  In1.024 Se1.047               0.28542660     -0.00108916      0.00213954     -0.00000233
AIVX     1  Mu1.0001  In1.025 Se1.047               0.12255066      0.00026166     -0.00023944     -0.00000006
AIVX     1  Mu1.0001  In1.026 Se1.047               0.24343826      0.00057471     -0.00148476     -0.00000085
AIVX     1  Mu1.0001  In1.027 Se1.047               0.22510898     -0.00120383      0.00203881     -0.00000245
AIVX     1  Mu1.0001  In1.028 Se1.047               0.03921566     -0.00003811      0.00015206     -0.00000001
AIVX     1  Mu1.0001  In1.029 Se1.047               0.07019196      0.00017316     -0.00051332     -0.00000009
AIVX     1  Mu1.0001  In1.018 Se1.048               0.29858442      0.00001817     -0.00025486     -0.00000000
AIVX     1  Mu1.0001  In1.021 Se1.048               0.23324043     -0.00003152      0.00011241     -0.00000000
AIVX     1  Mu1.0001  In1.022 Se1.048               0.15090236     -0.00024649      0.00026617     -0.00000007
AIVX     1  Mu1.0001  In1.023 Se1.048               0.24910250     -0.00081334      0.00177749     -0.00000145
AIVX     1  Mu1.0001  In1.025 Se1.048               0.16222371     -0.00009019     -0.00003527      0.00000000
AIVX     1  Mu1.0001  In1.026 Se1.048               0.28311132      0.00058218     -0.00080330     -0.00000047
AIVX     1  Mu1.0001  In1.027 Se1.048               0.26478204     -0.00126869      0.00186746     -0.00000237
AIVX     1  Mu1.0001  In1.028 Se1.048               0.07888871      0.00042674     -0.00123484     -0.00000053
AIVX     1  Mu1.0001  In1.029 Se1.048               0.10986502      0.00018340     -0.00054899     -0.00000010
AIVX     1  Mu1.0001  In1.021 Se1.049               0.24951842      0.00100918     -0.00157542     -0.00000159
AIVX     1  Mu1.0001  In1.022 Se1.049               0.16718035      0.00096489     -0.00143328     -0.00000138
AIVX     1  Mu1.0001  In1.023 Se1.049               0.26538049     -0.00011829      0.00028715     -0.00000003
AIVX     1  Mu1.0001  In1.025 Se1.049               0.17850170      0.00005557      0.00002829      0.00000000
AIVX     1  Mu1.0001  In1.026 Se1.049               0.29938931     -0.00047964      0.00077844     -0.00000037
AIVX     1  Mu1.0001  In1.027 Se1.049               0.28106003      0.00174276     -0.00266075     -0.00000464
AIVX     1  Mu1.0001  In1.028 Se1.049               0.09516670      0.00027445     -0.00094006     -0.00000026
AIVX     1  Mu1.0001  In1.029 Se1.049               0.12614301     -0.00005478     -0.00007880      0.00000000
AIVX     1  Mu1.0001  In1.021 Se1.050               0.24214362      0.00002951     -0.00021815     -0.00000001
AIVX     1  Mu1.0001  In1.022 Se1.050               0.15980555     -0.00002427     -0.00011951      0.00000000
AIVX     1  Mu1.0001  In1.023 Se1.050               0.25800569      0.00225373     -0.00371830     -0.00000838
AIVX     1  Mu1.0001  In1.025 Se1.050               0.17112691     -0.00005249      0.00018470     -0.00000001
AIVX     1  Mu1.0001  In1.026 Se1.050               0.29201451     -0.00168700      0.00257439     -0.00000434
AIVX     1  Mu1.0001  In1.027 Se1.050               0.27368523     -0.00147240      0.00222316     -0.00000327
AIVX     1  Mu1.0001  In1.028 Se1.050               0.08779191     -0.00048063      0.00094721     -0.00000046
AIVX     1  Mu1.0001  In1.029 Se1.050               0.11876821     -0.00040669      0.00072499     -0.00000029
AIVX     1  Mu1.0001  In1.021 Se1.051               0.29338405      0.00122832     -0.00205678     -0.00000253
AIVX     1  Mu1.0001  In1.022 Se1.051               0.21104598     -0.00034595      0.00046346     -0.00000016
AIVX     1  Mu1.0001  In1.025 Se1.051               0.22236734      0.00002207      0.00001047      0.00000000
AIVX     1  Mu1.0001  In1.028 Se1.051               0.13903234      0.00047635     -0.00092780     -0.00000044
AIVX     1  Mu1.0001  In1.029 Se1.051               0.17000864      0.00060740     -0.00123466     -0.00000075
AIVX     1  Mu1.0001  In1.021 Se1.052               0.27520171     -0.00134187      0.00202442     -0.00000272
AIVX     1  Mu1.0001  In1.022 Se1.052               0.19286364      0.00008156     -0.00001300     -0.00000000
AIVX     1  Mu1.0001  In1.023 Se1.052               0.29106378     -0.00130269      0.00284491     -0.00000371
AIVX     1  Mu1.0001  In1.025 Se1.052               0.20418499      0.00003774     -0.00020235     -0.00000001
AIVX     1  Mu1.0001  In1.028 Se1.052               0.12084999     -0.00016613      0.00023425     -0.00000004
AIVX     1  Mu1.0001  In1.029 Se1.052               0.15182629     -0.00053105      0.00045907     -0.00000024
AIVX     1  Mu1.0001  In1.022 Se1.053               0.25802784      0.00143028     -0.00215587     -0.00000308
AIVX     1  Mu1.0001  In1.025 Se1.053               0.26934920      0.00015087     -0.00019754     -0.00000003
AIVX     1  Mu1.0001  In1.028 Se1.053               0.18601419      0.00012633     -0.00048975     -0.00000006
AIVX     1  Mu1.0001  In1.029 Se1.053               0.21699050     -0.00049138      0.00114728     -0.00000056
AIVX     1  Mu1.0001  In1.022 Se1.054               0.24475381     -0.00059489      0.00090482     -0.00000054
AIVX     1  Mu1.0001  In1.025 Se1.054               0.25607516     -0.00004812     -0.00009903      0.00000000
AIVX     1  Mu1.0001  In1.028 Se1.054               0.17274016     -0.00067059      0.00102267     -0.00000069
AIVX     1  Mu1.0001  In1.029 Se1.054               0.20371647      0.00005726     -0.00020453     -0.00000001
AIVX     1  Mu1.0001  In1.022 Se1.055               0.27083978      0.00009951      0.00003623      0.00000000
AIVX     1  Mu1.0001  In1.025 Se1.055               0.28216114      0.00012034     -0.00003743     -0.00000000
AIVX     1  Mu1.0001  In1.028 Se1.055               0.19882613     -0.00070179      0.00175458     -0.00000123
AIVX     1  Mu1.0001  In1.029 Se1.055               0.22980244     -0.00041503      0.00066497     -0.00000028
AIVX     1  Mu1.0001  In1.022 Se1.056               0.28397442      0.00168782     -0.00243760     -0.00000411
AIVX     1  Mu1.0001  In1.025 Se1.056               0.29529577     -0.00001359     -0.00024077      0.00000000
AIVX     1  Mu1.0001  In1.028 Se1.056               0.21196077     -0.00068458      0.00154274     -0.00000106
AIVX     1  Mu1.0001  In1.029 Se1.056               0.24293707     -0.00168642      0.00293010     -0.00000494
AIVX     1  Mu1.0001  In1.022 Se1.057               0.29358616      0.00066779     -0.00130225     -0.00000087
AIVX     1  Mu1.0001  In1.028 Se1.057               0.22157251     -0.00039107      0.00038688     -0.00000015
AIVX     1  Mu1.0001  In1.029 Se1.057               0.25254882     -0.00086149      0.00157934     -0.00000136
AIVX     1  Mu1.0001  In1.028 Se1.058               0.26739253     -0.00026880      0.00030751     -0.00000008
AIVX     1  Mu1.0001  In1.029 Se1.058               0.29836883     -0.00038834      0.00026957     -0.00000010
AIVX     1  Mu1.0001  In1.028 Se1.059               0.23963227      0.00065994     -0.00141700     -0.00000094
AIVX     1  Mu1.0001  In1.029 Se1.059               0.27060858      0.00145383     -0.00224752     -0.00000327
AIVX     1  Mu1.0001  In1.028 Se1.060               0.23573671     -0.00011583      0.00056833     -0.00000007
AIVX     1  Mu1.0001  In1.029 Se1.060               0.26671302     -0.00006334      0.00019707     -0.00000001
AIVX     1  Mu1.0001  In1.028 Se1.061               0.29243721      0.00048354     -0.00091551     -0.00000044
AIVX     1  Mu1.0001  In1.022 Se1.209               0.24214795     -0.00016191      0.00028279     -0.00000005
AIVX     1  Mu1.0001  In1.025 Se1.209               0.25346930      0.00013984     -0.00021467     -0.00000003
AIVX     1  Mu1.0001  In1.028 Se1.209               0.17013430     -0.00020175      0.00049235     -0.00000010
AIVX     1  Mu1.0001  In1.029 Se1.209               0.20111060      0.00024488     -0.00003963     -0.00000001
--
 
   (Skipping property calculation,
    use PROP keyword to activate)
--
 
  Total CASPT2 energies:
::    CASPT2 Root  1     Total energy:   -455.21070638
::    CASPT2 Root  2     Total energy:   -455.01602500
::    CASPT2 Root  3     Total energy:   -454.99393150
::    CASPT2 Root  4     Total energy:   -454.94256161
::    CASPT2 Root  5     Total energy:   -454.93709742
::    CASPT2 Root  6     Total energy:   -454.93997898
::    CASPT2 Root  7     Total energy:   -454.91594240
 
++ Multi-State CASPT2 section:
********************************************************************************
  MULTI-STATE CASPT2 SECTION
--------------------------------------------------------------------------------
 
  Output diagonal energies have been shifted. Add   -455.000000000000     
 
  Effective Hamiltonian matrix (Symmetric):
 
                1               2               3               4               5
   1        -0.21070638
   2        -0.00003247     -0.01602500
   3        -0.00034156     -0.00011617      0.00606850
   4         0.00140274      0.00014200      0.00055188      0.05743839
   5         0.00965566      0.00051006     -0.00014140     -0.00805420      0.06290258
   6         0.01237635     -0.00077764      0.00058414      0.00424085     -0.00713010
   7        -0.00975226     -0.00062507      0.00164028     -0.00045724      0.00314051
 
                6               7
   6         0.06002102
   7         0.00839979      0.08405760
 
       Total MS-CASPT2 energies:
::    MS-CASPT2 Root  1     Total energy:   -455.21199634
::    MS-CASPT2 Root  2     Total energy:   -455.01603974
::    MS-CASPT2 Root  3     Total energy:   -454.99397401
::    MS-CASPT2 Root  4     Total energy:   -454.94834990
::    MS-CASPT2 Root  5     Total energy:   -454.94621388
::    MS-CASPT2 Root  6     Total energy:   -454.92655708
::    MS-CASPT2 Root  7     Total energy:   -454.91311236
 
       Eigenvectors:
            0.99758469     -0.00019497     -0.00100937      0.04200070      0.05207589
            0.00018838      0.99990770     -0.00448221      0.00469104     -0.00622973
            0.00141936      0.00463490      0.99970414      0.00570231     -0.00498708
           -0.00549362     -0.00313287     -0.01009299      0.71898861     -0.49040204
           -0.03682300     -0.00613763      0.00159829      0.64868193      0.22424675
           -0.04733836      0.00920495     -0.00643892      0.22520465      0.80625635
            0.03457902      0.00555490     -0.02060693     -0.09864795     -0.23747495
 
            0.00236033     -0.01849884
           -0.00648446     -0.00784885
            0.00641236      0.02167106
            0.49199399      0.01900729
           -0.72585748      0.02568871
            0.46282966      0.28749810
           -0.12950988      0.95679162
 
--
 
  THE ORIGINAL CI ARRAYS ARE NOW MIXED AS LINEAR
  COMBINATIONS, GIVEN BY THE EIGENVECTORS.
  A NEW JOBIPH FILE NAMED 'JOBMIX' IS PREPARED.
********************************************************************************
 
++ Mixed CI coefficients:
  The CI coefficients for the MIXED state nr.   1
--------------------------------------------------------------------------------
 CI COEFFICIENTS LARGER THAN  0.50D-01
  Occupation of active orbitals, and spin coupling
  of open shells. (u,d: Spin up or down).
  SGUGA info is (Midvert:IsyUp:UpperWalk/LowerWalk)
        Conf  SGUGA info        Occupation    Coefficient         Weight
           1  ( 1:1:   1/   1)   22222200        0.971253       0.943332
           6  ( 1:1:   6/   1)   22220220       -0.077846       0.006060
           7  ( 1:1:   7/   1)   22222u0d        0.063007       0.003970
          15  ( 1:1:  15/   1)   22222002       -0.092590       0.008573
          64  ( 2:1:   4/   3)   2u22220d        0.079844       0.006375
          81  ( 2:1:   1/   4)   u22222d0        0.105283       0.011085
         175  ( 3:1:   5/   8)   20222202       -0.093002       0.008649
         191  ( 3:1:   1/  10)   02222220       -0.078010       0.006086
 
  The CI coefficients for the MIXED state nr.   2
--------------------------------------------------------------------------------
 CI COEFFICIENTS LARGER THAN  0.50D-01
  Occupation of active orbitals, and spin coupling
  of open shells. (u,d: Spin up or down).
  SGUGA info is (Midvert:IsyUp:UpperWalk/LowerWalk)
        Conf  SGUGA info        Occupation    Coefficient         Weight
          21  ( 2:1:   1/   1)   222u22d0       -0.052809       0.002789
          24  ( 2:1:   4/   1)   222u220d       -0.961992       0.925428
          32  ( 2:1:  12/   1)   222u022d        0.074813       0.005597
          33  ( 2:1:  13/   1)   222u2d02        0.099599       0.009920
         125  ( 3:1:   5/   3)   2u2d2202        0.185582       0.034441
         213  ( 4:1:   1/   3)   u22u22dd        0.085442       0.007300
         269  ( 5:1:   1/   9)   022u222d       -0.078881       0.006222
 
  The CI coefficients for the MIXED state nr.   3
--------------------------------------------------------------------------------
 CI COEFFICIENTS LARGER THAN  0.50D-01
  Occupation of active orbitals, and spin coupling
  of open shells. (u,d: Spin up or down).
  SGUGA info is (Midvert:IsyUp:UpperWalk/LowerWalk)
        Conf  SGUGA info        Occupation    Coefficient         Weight
           2  ( 1:1:   2/   1)   22222ud0        0.102962       0.010601
          21  ( 2:1:   1/   1)   222u22d0       -0.123754       0.015315
          41  ( 2:1:   1/   2)   22u222d0        0.939659       0.882959
          43  ( 2:1:   3/   2)   22u2d220        0.154944       0.024008
          45  ( 2:1:   5/   2)   22u22dud        0.064393       0.004146
          47  ( 2:1:   7/   2)   22u22udd       -0.115807       0.013411
          55  ( 2:1:  15/   2)   22u220d2        0.077573       0.006018
         161  ( 3:1:   1/   7)   u2d22220       -0.126901       0.016104
         219  ( 4:1:   1/   4)   2uu222dd        0.068262       0.004660
         222  ( 4:1:   4/   4)   2uu22dd2       -0.055841       0.003118
         294  ( 5:1:   2/  15)   20u222d2       -0.099273       0.009855
 
  The CI coefficients for the MIXED state nr.   4
--------------------------------------------------------------------------------
 CI COEFFICIENTS LARGER THAN  0.50D-01
  Occupation of active orbitals, and spin coupling
  of open shells. (u,d: Spin up or down).
  SGUGA info is (Midvert:IsyUp:UpperWalk/LowerWalk)
        Conf  SGUGA info        Occupation    Coefficient         Weight
           2  ( 1:1:   2/   1)   22222ud0       -0.212974       0.045358
           3  ( 1:1:   3/   1)   2222u2d0       -0.779036       0.606898
           6  ( 1:1:   6/   1)   22220220        0.051919       0.002696
           7  ( 1:1:   7/   1)   22222u0d        0.480535       0.230914
          12  ( 1:1:  12/   1)   2222uudd        0.078292       0.006130
          15  ( 1:1:  15/   1)   22222002        0.090683       0.008223
          18  ( 1:1:  18/   1)   2222u0d2       -0.067817       0.004599
          41  ( 2:1:   1/   2)   22u222d0        0.057264       0.003279
          68  ( 2:1:   8/   3)   2u22u2dd       -0.059625       0.003555
          73  ( 2:1:  13/   3)   2u222d02       -0.124921       0.015605
          81  ( 2:1:   1/   4)   u22222d0       -0.075696       0.005730
          83  ( 2:1:   3/   4)   u222d220        0.180643       0.032632
         175  ( 3:1:   5/   8)   20222202       -0.057630       0.003321
         177  ( 3:1:   7/   8)   2022u2d2        0.080665       0.006507
 
  The CI coefficients for the MIXED state nr.   5
--------------------------------------------------------------------------------
 CI COEFFICIENTS LARGER THAN  0.50D-01
  Occupation of active orbitals, and spin coupling
  of open shells. (u,d: Spin up or down).
  SGUGA info is (Midvert:IsyUp:UpperWalk/LowerWalk)
        Conf  SGUGA info        Occupation    Coefficient         Weight
           2  ( 1:1:   2/   1)   22222ud0        0.299065       0.089440
           3  ( 1:1:   3/   1)   2222u2d0        0.420630       0.176929
           7  ( 1:1:   7/   1)   22222u0d        0.775494       0.601392
          14  ( 1:1:  14/   1)   22220u2d        0.066143       0.004375
          15  ( 1:1:  15/   1)   22222002        0.152742       0.023330
          21  ( 2:1:   1/   1)   222u22d0        0.076754       0.005891
          73  ( 2:1:  13/   3)   2u222d02       -0.200973       0.040390
          83  ( 2:1:   3/   4)   u222d220       -0.107445       0.011545
          87  ( 2:1:   7/   4)   u2222udd       -0.075575       0.005712
         175  ( 3:1:   5/   8)   20222202       -0.096218       0.009258
         193  ( 3:1:   3/  10)   02222u2d        0.059380       0.003526
 
  The CI coefficients for the MIXED state nr.   6
--------------------------------------------------------------------------------
 CI COEFFICIENTS LARGER THAN  0.50D-01
  Occupation of active orbitals, and spin coupling
  of open shells. (u,d: Spin up or down).
  SGUGA info is (Midvert:IsyUp:UpperWalk/LowerWalk)
        Conf  SGUGA info        Occupation    Coefficient         Weight
           2  ( 1:1:   2/   1)   22222ud0       -0.872657       0.761530
           3  ( 1:1:   3/   1)   2222u2d0        0.338077       0.114296
           7  ( 1:1:   7/   1)   22222u0d        0.152348       0.023210
          41  ( 2:1:   1/   2)   22u222d0        0.073863       0.005456
          65  ( 2:1:   5/   3)   2u222dud        0.141156       0.019925
          67  ( 2:1:   7/   3)   2u222udd       -0.193972       0.037625
          83  ( 2:1:   3/   4)   u222d220       -0.071130       0.005060
         176  ( 3:1:   6/   8)   20222ud2        0.127982       0.016379
 
  The CI coefficients for the MIXED state nr.   7
--------------------------------------------------------------------------------
 CI COEFFICIENTS LARGER THAN  0.50D-01
  Occupation of active orbitals, and spin coupling
  of open shells. (u,d: Spin up or down).
  SGUGA info is (Midvert:IsyUp:UpperWalk/LowerWalk)
        Conf  SGUGA info        Occupation    Coefficient         Weight
           7  ( 1:1:   7/   1)   22222u0d       -0.065975       0.004353
          21  ( 2:1:   1/   1)   222u22d0        0.895619       0.802134
          25  ( 2:1:   5/   1)   222u2dud       -0.218333       0.047669
          27  ( 2:1:   7/   1)   222u2udd        0.312880       0.097894
          41  ( 2:1:   1/   2)   22u222d0        0.124650       0.015538
         210  ( 4:1:   4/   2)   2u2u2dd2        0.077216       0.005962
         262  ( 5:1:   2/   7)   202u22d2       -0.083244       0.006930
 
--
 
--- Stop Module: caspt2 at Wed Nov 13 21:27:14 2024 /rc=_RC_ALL_IS_WELL_ ---
*** files: xmldump
    saved to directory /home/pcaah4
--- Module caspt2 spent 7 minutes 27 seconds ---

.##################.
.# Happy landing! #.
.##################.

    Timing: Wall=696.58 User=611.23 System=75.36
******************************************************
*** WorkDir at /srv/COMMUNAL_SCRATCH/10409 cleaned ***
******************************************************
