   This run of MOLCAS is using the pymolcas driver

                             OPE
                             OPE          NMOL  CASOP  ENMOLC A   SO
                 OPE        NMOLC        AS  OP EN  MO LC     AS  OP
                OPENM       OL CA        SO  PE NM  OL CA     SOP EN
                OP EN      MO   LC       AS  OP ENMOL  CASO   PENMOL
                OP  EN     MO   LC       AS  OP EN     MO     LC ASO
               OP   E  NMOL  C  AS       OP  EN MO     LC     AS  OP
               OP  E   NMO   LC AS        OPEN  MO     LCASOP EN   M
               O  PEN   MO  LCA  SO
            OPE   NMO   L   CAS    OP
        OPENMOL  CASOP     ENMOL   CASOPE
     OPENMOLCA   SOPENMOLCASOPEN   MOLCASOPE
    OPENMOLCAS   OP           EN   MOL    CAS
    OPENMOLCAS       OP  ENM        O     LCA
    OPENMOLCAS    OPEN  MOLCASO     P  E  NMO
    OPENMOLCAS     OP               E  N  MOL
    OPENMOLCA   SO           PENM   O  L  CAS    OPEN    MO    LCAS
    OPENMOLCA   SOP           ENM   O  L  CAS   OP  EN  MOLC  AS   O
    OPENMOLCA   SOPE           NM      O  LCA   S      OP  EN MO
    OPENMOLC                AS         O  PEN   M      OL  CA  SOPE
    OPENMO        LCASOPE  NMOL        C  ASO   P      ENMOLC     AS
    OPE     NMO      LCA  SO     P     E   NM   OL  CA SO  PE N   MO
          OPENMOLCA            SOPE   NMO        LCAS  O    P  ENMO
     OPENMOLCASOPENMOLCASOPENMOLCASOPENMOLCA
        OPENMOLCASOPENMOLCASOPENMOLCASOPE
            OPENMOLCASOPENMOLCASOPENM
               OPENMOLCASOPENMOLCA        version: v23.06
                   OPENMOLCASO
                       OPE                tag:

 OpenMolcas is free software; you can redistribute it and/or modify it
 under the terms of the GNU Lesser General Public License version 2.1.
 OpenMolcas is distributed in the hope that it will be useful, but it
 is provided "as is" and without any express or implied warranties.
 For more details see the full text of the license in the file
 LICENSE or in <http://www.gnu.org/licenses/>.

                 Copyright (C) The OpenMolcas Authors
           For the author list and the recommended citation,
                   consult the file CONTRIBUTORS.md

           *************************************************
           * pymolcas version py2.24                       *
           *   build 4567b286dd94b1984b333a4ddf893180      *
           *   (after the EMIL interpreter by V. Veryazov) *
           *************************************************

configuration info
------------------
Host name: loginchem01.nottingham.ac.uk (Linux)
C Compiler ID: Intel
C flags: -std=gnu99 -gcc-sys -qopenmp
Fortran Compiler ID: Intel
Fortran flags: -fpp -i8 -heap-arrays -qopenmp
Definitions: _MOLCAS_;_I8_;_LINUX_
Parallel: OFF (GA=OFF)


   ------------------------------------------------------------------------------------------------------------
  |
  |              Project: orca_geometry_optimisation_210_135_BP86_def2-SVP_def2J_scf_cas1_ras12i11_cas2_ras12i8
  |       Submitted from: /home/pcaah4
  |         Scratch area: /srv/COMMUNAL_SCRATCH/10391
  |      Save outputs to: /home/pcaah4
  |               Molcas: /software/chemistry/openmolcas/openmolcas-23.06-openmp
  |
  | Scratch area is empty
  |
  |       MOLCAS_DRIVER = /software/chemistry/openmolcas/openmolcas-23.06-openmp/sbin/pymolcas
  | MOLCAS_KEEP_WORKDIR = NO
  |       MOLCAS_NPROCS = 1
  |       MOLCAS_SOURCE = /software/chemistry/openmolcas/openmolcas-23.06-openmp
  |    MOLCAS_STRUCTURE = 0
  |
   ------------------------------------------------------------------------------------------------------------

++ ---------   Input file   ---------

&SEWARD
TITLE
orca_geometry_optimisation_210_135_BP86_def2-SVP_def2J_scf_cas1_ras12i11
MULTIPOLES
2
SDIPOLE
ANGMOM
0 0 0
BASIS SET
C.ANO-S...4S3P1D.
C1            0.010607   -0.024974    0.029748 /Angstrom
C3            2.145004    1.216892   -0.022120 /Angstrom
C4            3.471121    0.945584   -0.743240 /Angstrom
C6            5.078099    1.799154   -2.421340 /Angstrom
C19          -0.625886   -1.408403    0.117468 /Angstrom
END OF BASIS
BASIS SET
N.ANO-S...4S3P1D.
N2            1.383946   -0.013028    0.025192 /Angstrom
N5            3.835764    1.879057   -1.674440 /Angstrom
END OF BASIS
BASIS SET
O.ANO-S...4S3P1D.
O7           -0.658109    1.007052   -0.039791 /Angstrom
O8            4.126668   -0.068009   -0.491437 /Angstrom
END OF BASIS
BASIS SET
H.ANO-S...2S1P.
H9           -1.248375   -1.455881    1.033341 /Angstrom
H10          -1.310460   -1.539478   -0.743805 /Angstrom
H11           0.103452   -2.241866    0.132479 /Angstrom
H12           1.936029   -0.870758    0.113620 /Angstrom
H13           1.514746    1.989461   -0.508293 /Angstrom
H14           2.387825    1.595071    1.000773 /Angstrom
H15           3.211899    2.671685   -1.831864 /Angstrom
H16           4.892152    1.758609   -3.515378 /Angstrom
H17           5.743855    2.662512   -2.207764 /Angstrom
H18           5.587670    0.867659   -2.110233 /Angstrom
END OF BASIS
END OF INPUT

&RASSCF
TITLE
orca_geometry_optimisation_210_135_BP86_def2-SVP_def2J_scf_cas1_ras12i11
LUMORB
SPIN
1
SYMMETRY
1
NACTEL
12  0  0
INACTIVE
29
DELETED  ! delete Rydberg orbitals from an initial CAS(12,11) if done
3
FROZEN
0
RAS2
8
ITERATIONS
64 25
CIROOT
7 7
1 2 3 4 5 6 7
1 1 1 1 1 1 1
LEVSHFT
0.3
CIMX
20
FILEorb = /home/pcaah4/outputs/cas1_ras12i11_rasorb_files/orca_geometry_optimisation_210_135_BP86_def2-SVP_def2J_scf_cas1_ras12i11.RasOrb
ALTEr
3
 1 38 210
 1 39 211
 1 40 212
END OF INPUT

&RASSI
NROF JOBIPH
    1 7
    1 2 3 5 4 6 7
TOFILE
TRDI
TDMN
1.0D-6
END OF INPUT

&CASPT2
TITLE
orca_geometry_optimisation_210_135_BP86_def2-SVP_def2J_scf_cas1_ras12i11
MULTISTATE
7 1 2 3 4 5 6 7
SHIFT
0.35
MAXITER
50
END OF INPUT

-- ----------------------------------

--- Start Module: seward at Wed Nov 13 20:15:36 2024 ---
 
()()()()()()()()()()()()()()()()()()()()()()()()()()()()()()()()()()()()()()()()()()()()()()()()()()

                                              &SEWARD

                                   only a single process is used
                       available to each process: 2.0 GB of memory, 1 thread
                                            pid: 1792041
()()()()()()()()()()()()()()()()()()()()()()()()()()()()()()()()()()()()()()()()()()()()()()()()()()
 
               SEWARD will generate:
                  Multipole Moment integrals up to order  2
                  Kinetic Energy integrals
                  Nuclear Attraction integrals (point charge)
                  One-Electron Hamiltonian integrals
                  Velocity integrals
                  Orbital angular momentum around ( 0.0000  0.0000  0.0000 )
                  Velocity quadrupole around ( 3.9591  1.1182 -1.1153 )
                  Two-Electron Repulsion integrals
 
 Title:
            orca_geometry_optimisation_210_135_BP86_def2-SVP_def2J_scf_cas1_ras12i11    
 
 
                   Integrals are discarded if absolute value <: 0.10E-13
                   Integral cutoff threshold is set to       <: 0.10E-15
 
++    Symmetry information:
      ---------------------
 
                    Character Table for C1 
 
                             E  
                    a        1  x, y, xy, Rz, z, xz, Ry, yz, Rx, I
--
 
 
++    Basis set information:
      ----------------------
 
 
      Basis set label: C.ANO-S...4S3P1D......
 
      Electronic valence basis set:
      ------------------
      Associated Effective Charge   6.000000 au
      Associated Actual Charge      6.000000 au
      Nuclear Model: Point charge
 
      Shell  nPrim  nBasis  Cartesian Spherical Contaminant
         s      10       4        X                  
         p       6       3        X                  
         d       3       1                 X         
 
 
      Basis set label: N.ANO-S...4S3P1D......
 
      Electronic valence basis set:
      ------------------
      Associated Effective Charge   7.000000 au
      Associated Actual Charge      7.000000 au
      Nuclear Model: Point charge
 
      Shell  nPrim  nBasis  Cartesian Spherical Contaminant
         s      10       4        X                  
         p       6       3        X                  
         d       3       1                 X         
 
 
      Basis set label: O.ANO-S...4S3P1D......
 
      Electronic valence basis set:
      ------------------
      Associated Effective Charge   8.000000 au
      Associated Actual Charge      8.000000 au
      Nuclear Model: Point charge
 
      Shell  nPrim  nBasis  Cartesian Spherical Contaminant
         s      10       4        X                  
         p       6       3        X                  
         d       3       1                 X         
 
 
      Basis set label: H.ANO-S...2S1P......
 
      Electronic valence basis set:
      ------------------
      Associated Effective Charge   1.000000 au
      Associated Actual Charge      1.000000 au
      Nuclear Model: Point charge
 
      Shell  nPrim  nBasis  Cartesian Spherical Contaminant
         s       7       2        X                  
         p       3       1        X                  
--
 
 
++    Molecular structure info:
      -------------------------
 
                    ************************************************ 
                    **** Cartesian Coordinates / Bohr, Angstrom **** 
                    ************************************************ 
 
     Center  Label                x              y              z                     x              y              z
        1      C1               0.020044      -0.047194       0.056216              0.010607      -0.024974       0.029748
        2      C3               4.053470       2.299593      -0.041801              2.145004       1.216892      -0.022120
        3      C4               6.559468       1.786895      -1.404520              3.471121       0.945584      -0.743240
        4      C6               9.596216       3.399908      -4.575669              5.078099       1.799154      -2.421340
        5      C19             -1.182753      -2.661496       0.221982             -0.625886      -1.408403       0.117468
        6      N2               2.615279      -0.024619       0.047606              1.383946      -0.013028       0.025192
        7      N5               7.248543       3.550903      -3.164233              3.835764       1.879057      -1.674440
        8      O7              -1.243646       1.903052      -0.075194             -0.658109       1.007052      -0.039791
        9      O8               7.798272      -0.128518      -0.928681              4.126668      -0.068009      -0.491437
       10      H9              -2.359087      -2.751216       1.952731             -1.248375      -1.455881       1.033341
       11      H10             -2.476410      -2.909192      -1.405588             -1.310460      -1.539478      -0.743805
       12      H11              0.195496      -4.236513       0.250349              0.103452      -2.241866       0.132479
       13      H12              3.658565      -1.645494       0.214711              1.936029      -0.870758       0.113620
       14      H13              2.862455       3.759536      -0.960535              1.514746       1.989461      -0.508293
       15      H14              4.512335       3.014247       1.891187              2.387825       1.595071       1.000773
       16      H15              6.069609       5.048753      -3.461721              3.211899       2.671685      -1.831864
       17      H16              9.244827       3.323289      -6.643102              4.892152       1.758609      -3.515378
       18      H17             10.854313       5.031418      -4.172069              5.743855       2.662512      -2.207764
       19      H18             10.559166       1.639638      -3.987762              5.587670       0.867659      -2.110233
 
                    ************************************************* 
                    **** InterNuclear Distances / Bohr, Angstrom **** 
                    ************************************************* 
 
     Atom centers         Bohr        Angstrom
   16 H15       7 N5      1.929233        1.020906
   13 H12       6 N2      1.934840        1.023873
   19 H18       4 C6      2.090803        1.106405
   12 H11       5 C19     2.093097        1.107619
   11 H10       5 C19     2.093773        1.107977
   10 H9        5 C19     2.094589        1.108409
   14 H13       2 C3      2.096193        1.109257
   17 H16       4 C6      2.098481        1.110468
   18 H17       4 C6      2.099411        1.110960
   15 H14       2 C3      2.111334        1.117270
    8 O7        1 C1      2.327583        1.231704
    9 O8        3 C4      2.330207        1.233093
    7 N5        3 C4      2.585177        1.368017
    6 N2        1 C1      2.595347        1.373399
    6 N2        2 C3      2.734657        1.447118
    7 N5        4 C6      2.743450        1.451771
    5 C19       1 C1      2.882495        1.525350
    3 C4        2 C3      2.898256        1.533691
   11 H10      10 H9      3.364079        1.780194
   15 H14      14 H13     3.377851        1.787482
   19 H18      17 H16     3.407784        1.803322
   18 H17      17 H16     3.407954        1.803411
   19 H18      18 H17     3.409583        1.804274
   12 H11      10 H9      3.410294        1.804650
   12 H11      11 H10     3.412183        1.805649
   16 H15       3 C4      3.887384        2.057115
   19 H18       7 N5      3.910416        2.069303
   14 H13       6 N2      3.923937        2.076458
   13 H12       2 C3      3.973092        2.102470
   13 H12       1 C1      3.977250        2.104670
   17 H16       7 N5      4.017398        2.125915
   18 H17       7 N5      4.026069        2.130504
   15 H14       6 N2      4.028936        2.132021
   16 H15       4 C6      4.049262        2.142777
   15 H14       3 C4      4.069254        2.153357
   11 H10       1 C1      4.069421        2.153445
   10 H9        1 C1      4.070476        2.154003
   12 H11       1 C1      4.197483        2.221212
   14 H13       3 C4      4.213828        2.229862
   16 H15      14 H13     4.266597        2.257786
    8 O7        6 N2      4.315356        2.283588
   13 H12      12 H11     4.325216        2.288806
    9 O8        7 N5      4.340281        2.296778
   19 H18       9 O8      4.484070        2.372868
    9 O8        2 C3      4.550365        2.407950
   13 H12       9 O8      4.554749        2.410270
    8 O7        5 C19     4.574617        2.420783
    6 N2        3 C4      4.576776        2.421926
   14 H13       8 O7      4.592431        2.430210
    6 N2        5 C19     4.626940        2.448471
    7 N5        2 C3      4.639381        2.455055
    2 C3        1 C1      4.667498        2.469934
    4 C6        3 C4      4.677589        2.475274
   19 H18       3 C4      4.763655        2.520818
   13 H12       3 C4      4.776865        2.527808
   17 H16      16 H15     4.814604        2.547779
   16 H15       2 C3      4.828929        2.555359
   18 H17      16 H15     4.837177        2.559724
   14 H13       1 C1      4.858423        2.570967
   12 H11       6 N2      4.861738        2.572721
   14 H13       7 N5      4.913002        2.599849
   13 H12       5 C19     4.946784        2.617725
   15 H14      13 H12     5.025205        2.659224
   11 H10       8 O7      5.142699        2.721399
   10 H9        8 O7      5.197972        2.750648
    9 O8        6 N2      5.275164        2.791496
    8 O7        2 C3      5.312043        2.811012
   15 H14       9 O8      5.350329        2.831272
    9 O8        4 C6      5.383579        2.848867
   14 H13      13 H12     5.588322        2.957213
   19 H18      16 H15     5.661705        2.996045
--
 
 
            Nuclear Potential Energy            446.98770056 au
 
 
      Basis set specifications :
      Symmetry species         a  
      Basis functions          212
 
 
      Input file to MOLDEN was generated!
 
--- Stop Module: seward at Wed Nov 13 20:17:28 2024 /rc=_RC_ALL_IS_WELL_ ---
*** files: orca_geometry_optimisation_210_135_BP86_def2-SVP_def2J_scf_cas1_ras12i11_cas2_ras12i8.GssOrb
           orca_geometry_optimisation_210_135_BP86_def2-SVP_def2J_scf_cas1_ras12i11_cas2_ras12i8.guessorb.molden xmldump
    saved to directory /home/pcaah4
--- Module seward spent 1 minute 51 seconds ---

*** symbolic link created: INPORB -> orca_geometry_optimisation_210_135_BP86_def2-SVP_def2J_scf_cas1_ras12i11_cas2_ras12i8.GssOrb
--- Start Module: rasscf at Wed Nov 13 20:17:28 2024 ---
 
()()()()()()()()()()()()()()()()()()()()()()()()()()()()()()()()()()()()()()()()()()()()()()()()()()

                                              &RASSCF

                                   only a single process is used
                       available to each process: 2.0 GB of memory, 1 thread
                                            pid: 1792341
()()()()()()()()()()()()()()()()()()()()()()()()()()()()()()()()()()()()()()()()()()()()()()()()()()
 
 
      Header of the ONEINT file:
      --------------------------
      orca_geometry_optimisation_210_135_BP86_def2-SVP_def2J_scf_cas1_ras12i11
      Integrals generated by Gateway/Seward, Wed Nov 13 20:15:40 2024
 
 
      OrdInt status: non-squared
 
 
      Cartesian coordinates in Angstrom:
      -----------------------------------------------------
      No.  Label        X            Y            Z        
      -----------------------------------------------------
       1   C1         0.01060700  -0.02497400   0.02974800
       2   C3         2.14500400   1.21689200  -0.02212000
       3   C4         3.47112100   0.94558400  -0.74324000
       4   C6         5.07809900   1.79915400  -2.42134000
       5   C19       -0.62588600  -1.40840300   0.11746800
       6   N2         1.38394600  -0.01302800   0.02519200
       7   N5         3.83576400   1.87905700  -1.67444000
       8   O7        -0.65810900   1.00705200  -0.03979100
       9   O8         4.12666800  -0.06800900  -0.49143700
      10   H9        -1.24837500  -1.45588100   1.03334100
      11   H10       -1.31046000  -1.53947800  -0.74380500
      12   H11        0.10345200  -2.24186600   0.13247900
      13   H12        1.93602900  -0.87075800   0.11362000
      14   H13        1.51474600   1.98946100  -0.50829300
      15   H14        2.38782500   1.59507100   1.00077300
      16   H15        3.21189900   2.67168500  -1.83186400
      17   H16        4.89215200   1.75860900  -3.51537800
      18   H17        5.74385500   2.66251200  -2.20776400
      19   H18        5.58767000   0.86765900  -2.11023300
      -----------------------------------------------------
      Nuclear repulsion energy =  446.98770056
 
++    Wave function specifications:
      -----------------------------
 
      Number of closed shell electrons          58
      Number of electrons in active shells      12
      Max number of holes in RAS1 space          0
      Max nr of electrons in RAS3 space          0
      Number of inactive orbitals               29
      Number of active orbitals                  8
      Number of secondary orbitals             172
      Spin quantum number                      0.0
      State symmetry                             1
--
 
++    Orbital specifications:
      -----------------------
 
      Symmetry species                           1
                                                 a
      Frozen orbitals                            0
      Inactive orbitals                         29
      Active orbitals                            8
      RAS1 orbitals                              0
      RAS2 orbitals                              8
      RAS3 orbitals                              0
      Secondary orbitals                       172
      Deleted orbitals                           3
      Number of basis functions                212
--
 
++    CI expansion specifications:
      ----------------------------
 
      Number of CSFs                           336
      Number of determinants                   406
      Number of root(s) required                 7
      Root chosen for geometry opt.              7
      CI roots used                              1     2     3     4     5     6     7
      weights                                0.143 0.143 0.143 0.143 0.143 0.143 0.143
      highest root included in the CI            7
      max. size of the explicit Hamiltonian    200
--
 
++    Optimization specifications:
      ----------------------------
 
      RASSCF algorithm: Conventional
      Maximum number of macro iterations        64
      Maximum number of SX iterations           25
      Threshold for RASSCF energy            0.100E-07
      Threshold for max MO rotation          0.100E+00
      Threshold for max BLB element          0.100E-03
      Level shift parameter                  0.300E+00
      Make Quasi-Newton update
--
 
      The MO-coefficients are taken from the file:
      /home/pcaah4/outputs/cas1_ras12i11_rasorb_files/orca_geometry_optimisation_210_135_BP86_def2-SVP_def2J_scf_cas1_ras12i11.RasOrb                                                                                                                                 
      Title: RASSCF average (pseudo-natural) orbitals                                      
 
      Total molecular charge    0.00
 
      Molecular orbitals exchanged:
        In symmetry  1 :  38 210
        In symmetry  1 :  39 211
        In symmetry  1 :  40 212
 
 
      ************************************************************************************************************************
      *                                                                                                                      *
      *                                            Wave function control section                                             *
      *                                                                                                                      *
      ************************************************************************************************************************
 
 
                                         RASSCF iterations: Energy and convergence statistics
                                         ----------------------------------------------------
 
      Iter CI   SX   CI       RASSCF       Energy    max ROT     max BLB   max BLB  Level Ln srch  Step   QN   Walltime
          iter iter root      energy       change     param      element    value   shift minimum  type update hh:mm:ss
 Nr of preliminary CI iterations:   4
        1   1   16    0  -453.70362516    0.00E+00   0.46E-01   34 141 1 -0.12E-01*  0.20   0.00    SX    NO    0:00:13
        2   3    8    0  -453.70660863   -0.30E-02*  0.30E-01   36  54 1 -0.19E-02*  0.20   0.00    SX    NO    0:00:06
        3   3    8    0  -453.70714262   -0.53E-03* -0.18E-01   36  54 1 -0.14E-02*  0.20   0.00    SX    NO    0:00:06
        4   4    8    0  -453.70730737   -0.16E-03* -0.11E-01   36  54 1 -0.90E-03*  0.20   0.00    SX    NO    0:00:06
        5   3    8    0  -453.70736724   -0.60E-04* -0.16E-01   36  54 1 -0.61E-03*  0.20   2.50    LS   YES    0:00:06
        6   5    7    0  -453.70740353   -0.36E-04* -0.32E-02   22  84 1 -0.31E-03*  0.20   1.16    QN   YES    0:00:06
        7   3    7    0  -453.70740884   -0.53E-05*  0.12E-02   36  46 1 -0.11E-03*  0.20   1.24    QN   YES    0:00:06
        8   4    6    0  -453.70741037   -0.15E-05* -0.66E-03   36  44 1 -0.53E-04   0.20   1.32    QN   YES    0:00:06
        9   3    6    0  -453.70741070   -0.33E-06* -0.32E-03   36  44 1 -0.25E-04   0.20   1.20    QN   YES    0:00:06
       10   3    6    0  -453.70741077   -0.67E-07*  0.19E-03   36  41 1 -0.12E-04   0.20   1.48    QN   YES    0:00:06
       11   3    5    0  -453.70741079   -0.24E-07*  0.76E-04   36  68 1  0.56E-05   0.20   1.23    QN   YES    0:00:06
       12   1    5    0  -453.70741080   -0.41E-08   0.39E-04   36  42 1  0.36E-05   0.20   1.31    QN   YES    0:00:06
      Convergence after 12 iterations
       13   1    5    0  -453.70741080   -0.12E-08   0.39E-04   36  42 1  0.22E-05   0.20   1.31    QN   YES    0:00:06
 
      ************************************************************************************************************************
                                                      Wave function printout:
                       occupation of active orbitals, and spin coupling of open shells (u,d: Spin up or down)
      ************************************************************************************************************************
 
      Note: transformation to natural orbitals
      has been made, which may change the order of the CSFs.
 
      printout of CI-coefficients larger than  0.05 for root  1
      energy=    -453.957768
      conf/sym  11111111     Coeff  Weight
             1  22222200   0.96439 0.93005
             6  22220220  -0.07855 0.00617
             7  22222u0d  -0.13306 0.01771
            15  22222002  -0.07862 0.00618
            64  2u22220d   0.07823 0.00612
            73  2u222d02   0.06191 0.00383
            81  u22222d0   0.10041 0.01008
           175  20222202  -0.09930 0.00986
           191  02222220  -0.07513 0.00564
 
      printout of CI-coefficients larger than  0.05 for root  2
      energy=    -453.744878
      conf/sym  11111111     Coeff  Weight
            21  222u22d0  -0.10536 0.01110
            24  222u220d  -0.95806 0.91788
            32  222u022d   0.07654 0.00586
            33  222u2d02  -0.09344 0.00873
           125  2u2d2202   0.18357 0.03370
           213  u22u22dd   0.08303 0.00689
           269  022u222d  -0.07554 0.00571
 
      printout of CI-coefficients larger than  0.05 for root  3
      energy=    -453.725937
      conf/sym  11111111     Coeff  Weight
             2  22222ud0   0.21747 0.04729
             3  2222u2d0  -0.06180 0.00382
            21  222u22d0   0.08070 0.00651
            41  22u222d0   0.92487 0.85539
            43  22u2d220   0.15411 0.02375
            45  22u22dud  -0.06353 0.00404
            47  22u22udd   0.11199 0.01254
            55  22u220d2   0.07829 0.00613
           161  u2d22220  -0.11496 0.01322
           219  2uu222dd   0.06534 0.00427
           222  2uu22dd2   0.05211 0.00272
           294  20u222d2  -0.09541 0.00910
 
      printout of CI-coefficients larger than  0.05 for root  4
      energy=    -453.644917
      conf/sym  11111111     Coeff  Weight
             2  22222ud0   0.70516 0.49724
             3  2222u2d0  -0.59185 0.35029
             7  22222u0d   0.07625 0.00581
            12  2222uudd  -0.06508 0.00424
            18  2222u0d2  -0.05437 0.00296
            21  222u22d0  -0.11046 0.01220
            41  22u222d0  -0.19434 0.03777
            65  2u222dud  -0.10667 0.01138
            67  2u222udd   0.14946 0.02234
            83  u222d220   0.15522 0.02409
           176  20222ud2  -0.09893 0.00979
           177  2022u2d2   0.05790 0.00335
 
      printout of CI-coefficients larger than  0.05 for root  5
      energy=    -453.643633
      conf/sym  11111111     Coeff  Weight
             1  22222200  -0.06975 0.00486
             2  22222ud0  -0.52335 0.27389
             3  2222u2d0  -0.69286 0.48006
             7  22222u0d  -0.35549 0.12637
            12  2222uudd  -0.06546 0.00428
            15  22222002   0.07876 0.00620
            18  2222u0d2  -0.05687 0.00323
            41  22u222d0   0.07873 0.00620
            65  2u222dud   0.08671 0.00752
            67  2u222udd  -0.11170 0.01248
            68  2u22u2dd  -0.05233 0.00274
            73  2u222d02   0.09103 0.00829
            81  u22222d0  -0.06490 0.00421
            83  u222d220   0.15984 0.02555
           176  20222ud2   0.07268 0.00528
           177  2022u2d2   0.07169 0.00514
 
      printout of CI-coefficients larger than  0.05 for root  6
      energy=    -453.621525
      conf/sym  11111111     Coeff  Weight
             1  22222200  -0.10220 0.01044
             2  22222ud0   0.24507 0.06006
             3  2222u2d0   0.24797 0.06149
             7  22222u0d  -0.78840 0.62157
            14  22220u2d  -0.06721 0.00452
            15  22222002   0.15686 0.02461
            21  222u22d0  -0.32904 0.10827
            25  222u2dud  -0.08053 0.00648
            27  222u2udd   0.11594 0.01344
            67  2u222udd   0.07105 0.00505
            73  2u222d02   0.20523 0.04212
            83  u222d220  -0.06505 0.00423
            87  u2222udd   0.07769 0.00604
           175  20222202  -0.08799 0.00774
           193  02222u2d  -0.05747 0.00330
 
      printout of CI-coefficients larger than  0.05 for root  7
      energy=    -453.613218
      conf/sym  11111111     Coeff  Weight
             2  22222ud0   0.17560 0.03084
             7  22222u0d  -0.29603 0.08763
            15  22222002   0.06061 0.00367
            21  222u22d0   0.82562 0.68166
            24  222u220d  -0.09837 0.00968
            25  222u2dud   0.20624 0.04253
            27  222u2udd  -0.29478 0.08689
            41  22u222d0  -0.10693 0.01143
            73  2u222d02   0.07655 0.00586
           201  22uu22dd   0.05150 0.00265
           210  2u2u2dd2  -0.07327 0.00537
           262  202u22d2  -0.07660 0.00587
 
      Natural orbitals and occupation numbers for root  1
      sym 1:   1.976522   1.995554   1.999889   1.999838   1.993780   1.956348   0.029823   0.048246
 
      Natural orbitals and occupation numbers for root  2
      sym 1:   1.976278   1.999858   1.999510   1.003908   1.994309   1.999457   0.030099   0.996581
 
      Natural orbitals and occupation numbers for root  3
      sym 1:   1.999833   1.994153   1.007215   1.998712   1.999153   1.954694   0.995649   0.050590
 
      Natural orbitals and occupation numbers for root  4
      sym 1:   1.987919   1.928070   1.998772   1.997733   1.969576   1.047352   0.990015   0.080564
 
      Natural orbitals and occupation numbers for root  5
      sym 1:   1.975675   1.942794   1.999031   1.999599   1.115691   1.874656   0.926847   0.165707
 
      Natural orbitals and occupation numbers for root  6
      sym 1:   1.983387   1.953118   1.998650   1.847818   1.986257   1.154612   0.199852   0.876307
 
      Natural orbitals and occupation numbers for root  7
      sym 1:   1.999120   1.978098   1.991992   1.221397   1.996313   1.856126   0.789158   0.167795
 
      ************************************************************************************************************************
      *                                                                                                                      *
      *                                                    Final results                                                     *
      *                                                                                                                      *
      ************************************************************************************************************************
 
 
++    Wave function specifications:
      -----------------------------
 
      Number of closed shell electrons          58
      Number of electrons in active shells      12
      Max number of holes in RAS1 space          0
      Max nr of electrons in RAS3 space          0
      Number of inactive orbitals               29
      Number of active orbitals                  8
      Number of secondary orbitals             172
      Spin quantum number                      0.0
      State symmetry                             1
--
 
++    Orbital specifications:
      -----------------------
 
      Symmetry species                           1
                                                 a
      Frozen orbitals                            0
      Inactive orbitals                         29
      Active orbitals                            8
      RAS1 orbitals                              0
      RAS2 orbitals                              8
      RAS3 orbitals                              0
      Secondary orbitals                       172
      Deleted orbitals                           3
      Number of basis functions                212
--
 
++    CI expansion specifications:
      ----------------------------
 
      Number of CSFs                           336
      Number of determinants                   406
      Number of root(s) required                 7
      CI roots used                              1     2     3     4     5     6     7
      weights                                0.143 0.143 0.143 0.143 0.143 0.143 0.143
      highest root included in the CI            7
      Root passed to geometry opt.               7
--
 
++    Final optimization conditions:
      ------------------------------
 
      Average CI energy                            -453.70741080
      RASSCF energy for state  7                   -453.61321756
      Super-CI energy                                -0.00000000
      RASSCF energy change                            0.00000000
      Max change in MO coefficients               0.416E-04
      Max non-diagonal density matrix element     0.386E-04
      Maximum BLB matrix element                  0.221E-05
      (orbital pair  36,  42 in symmetry   1)
      Norm of electronic gradient            0.321E+00
--
 
 
      Final state energy(ies):
      ------------------------
 
::    RASSCF root number  1 Total energy:   -453.95776842
::    RASSCF root number  2 Total energy:   -453.74487799
::    RASSCF root number  3 Total energy:   -453.72593659
::    RASSCF root number  4 Total energy:   -453.64491726
::    RASSCF root number  5 Total energy:   -453.64363256
::    RASSCF root number  6 Total energy:   -453.62152521
::    RASSCF root number  7 Total energy:   -453.61321756
 
++    Molecular orbitals:
      -------------------
 
      Pseudonatural active orbitals and approximate occupation numbers
 
 
 
 
      Molecular orbitals for symmetry species 1: a  
 
 
      Orbital                 1         2         3         4         5         6         7         8         9        10
      Energy           -20.6050  -20.5343  -15.6351  -15.5845  -11.3409  -11.2910  -11.2894  -11.2627  -11.2573   -1.4248
      Occ. No.           2.0000    2.0000    2.0000    2.0000    2.0000    2.0000    2.0000    2.0000    2.0000    2.0000
 
     1 C1     1s         0.0004   -0.0000    0.0003   -0.0000    0.9999    0.0000    0.0001   -0.0001   -0.0037   -0.0389
     2 C1     2s         0.0012   -0.0003    0.0015   -0.0002    0.0021   -0.0001   -0.0004   -0.0004   -0.0007    0.3539
     3 C1     3s        -0.0002   -0.0002    0.0007   -0.0002   -0.0003   -0.0001   -0.0004   -0.0004   -0.0010   -0.0044
     4 C1     4s        -0.0003   -0.0001    0.0001   -0.0001    0.0012   -0.0001   -0.0002   -0.0001   -0.0003    0.0037
     5 C1     2px       -0.0013    0.0001    0.0017   -0.0002    0.0011   -0.0003   -0.0001   -0.0002   -0.0005   -0.0405
     6 C1     3px       -0.0008    0.0000    0.0013   -0.0003    0.0011   -0.0006   -0.0004   -0.0002    0.0000    0.0294
     7 C1     4px        0.0001   -0.0000   -0.0001   -0.0001    0.0004   -0.0002   -0.0003   -0.0000    0.0002   -0.0126
     8 C1     2py        0.0031   -0.0001    0.0002   -0.0001    0.0011   -0.0005    0.0001   -0.0002   -0.0006    0.0949
     9 C1     3py        0.0021   -0.0001    0.0002   -0.0001    0.0009   -0.0007   -0.0004   -0.0002    0.0001   -0.0695
    10 C1     4py       -0.0004   -0.0000    0.0000   -0.0000    0.0007   -0.0001   -0.0004   -0.0001    0.0003    0.0233
    11 C1     2pz       -0.0002   -0.0002    0.0001   -0.0001   -0.0001    0.0001   -0.0000    0.0000   -0.0000   -0.0051
    12 C1     3pz       -0.0002   -0.0003    0.0001   -0.0001   -0.0000    0.0001   -0.0000    0.0000   -0.0001    0.0043
    13 C1     4pz        0.0000   -0.0000    0.0000   -0.0001   -0.0000    0.0000    0.0000    0.0000   -0.0000   -0.0020
    14 C1     3d2-       0.0001   -0.0000    0.0001   -0.0000   -0.0004   -0.0000    0.0000   -0.0000    0.0001   -0.0327
    15 C1     3d1-      -0.0000    0.0000    0.0000   -0.0000   -0.0001    0.0000    0.0000    0.0000    0.0000   -0.0039
    16 C1     3d0       -0.0000   -0.0000    0.0001    0.0000   -0.0004    0.0000   -0.0001    0.0000    0.0001   -0.0278
    17 C1     3d1+      -0.0000   -0.0000    0.0000    0.0000    0.0000    0.0000    0.0000   -0.0000   -0.0000    0.0023
    18 C1     3d2+       0.0001    0.0000   -0.0002    0.0000   -0.0000    0.0000    0.0000    0.0000   -0.0000   -0.0105
    19 C3     1s         0.0001    0.0001    0.0004    0.0000   -0.0001    0.1878    0.9817    0.0000    0.0001   -0.0098
    20 C3     2s         0.0006    0.0004    0.0020    0.0003    0.0007   -0.0007   -0.0012    0.0006    0.0008    0.0168
    21 C3     3s         0.0004    0.0001    0.0010    0.0003    0.0003   -0.0011   -0.0024    0.0003    0.0005   -0.0188
    22 C3     4s         0.0001   -0.0001    0.0001    0.0000   -0.0000   -0.0000    0.0007    0.0000    0.0001   -0.0018
    23 C3     2px       -0.0001   -0.0002   -0.0002    0.0002    0.0007   -0.0004   -0.0009    0.0001    0.0002   -0.0223
    24 C3     3px        0.0002   -0.0003    0.0003    0.0000    0.0013   -0.0010   -0.0007   -0.0002    0.0003   -0.0132
    25 C3     4px        0.0002   -0.0001    0.0002   -0.0001    0.0005   -0.0003   -0.0004   -0.0002    0.0001   -0.0070
    26 C3     2py       -0.0002    0.0007   -0.0003   -0.0006    0.0005    0.0001   -0.0000    0.0001   -0.0001   -0.0218
    27 C3     3py       -0.0001    0.0007    0.0002   -0.0005    0.0006    0.0001    0.0001    0.0002    0.0001   -0.0070
    28 C3     4py        0.0001    0.0000    0.0002    0.0000    0.0001   -0.0002   -0.0007    0.0001    0.0001   -0.0051
    29 C3     2pz        0.0000   -0.0010   -0.0001    0.0006   -0.0000    0.0000    0.0001   -0.0004   -0.0001    0.0043
    30 C3     3pz        0.0000   -0.0008   -0.0002    0.0006   -0.0001    0.0002   -0.0001   -0.0004   -0.0001    0.0075
    31 C3     4pz        0.0000    0.0001   -0.0001    0.0001   -0.0001    0.0000   -0.0001   -0.0000   -0.0000    0.0016
    32 C3     3d2-       0.0001    0.0001    0.0000   -0.0000    0.0001   -0.0000   -0.0001   -0.0000    0.0000    0.0035
    33 C3     3d1-      -0.0000   -0.0001   -0.0000   -0.0000   -0.0000    0.0001   -0.0000    0.0000   -0.0000    0.0000
    34 C3     3d0       -0.0000    0.0000    0.0001   -0.0000   -0.0000    0.0000    0.0000   -0.0000   -0.0000   -0.0026
    35 C3     3d1+       0.0000   -0.0001    0.0000   -0.0000    0.0000    0.0001    0.0001   -0.0001    0.0000   -0.0008
    36 C3     3d2+      -0.0000   -0.0000    0.0001   -0.0000    0.0000    0.0000    0.0000    0.0001   -0.0000   -0.0003
    37 C4     1s         0.0000    0.0003   -0.0001    0.0002   -0.0001    0.9822   -0.1879    0.0003   -0.0000   -0.0003
    38 C4     2s         0.0000    0.0012   -0.0008    0.0010   -0.0011    0.0030    0.0003   -0.0005   -0.0004    0.0323
    39 C4     3s        -0.0000   -0.0002   -0.0006    0.0004   -0.0009    0.0004    0.0002   -0.0004   -0.0003    0.0087
    40 C4     4s        -0.0001   -0.0003   -0.0002    0.0001   -0.0003    0.0014   -0.0002   -0.0002   -0.0001    0.0032
    41 C4     2px       -0.0001    0.0017    0.0003    0.0005    0.0002    0.0002   -0.0008    0.0000    0.0002   -0.0036
    42 C4     3px       -0.0000    0.0010    0.0004    0.0004    0.0004    0.0002   -0.0001   -0.0006    0.0002   -0.0057
    43 C4     4px        0.0000   -0.0003    0.0001   -0.0001    0.0001    0.0004    0.0002   -0.0005    0.0001   -0.0021
    44 C4     2py       -0.0000   -0.0028   -0.0001    0.0010   -0.0002    0.0007    0.0001   -0.0004   -0.0002   -0.0008
    45 C4     3py       -0.0001   -0.0020    0.0000    0.0007   -0.0003    0.0005    0.0003   -0.0004   -0.0002    0.0068
    46 C4     4py       -0.0001    0.0003    0.0001   -0.0001   -0.0001   -0.0000    0.0001   -0.0001   -0.0001    0.0010
    47 C4     2pz       -0.0002    0.0008    0.0001   -0.0012   -0.0001   -0.0003    0.0008    0.0003   -0.0001    0.0040
    48 C4     3pz       -0.0003    0.0006    0.0001   -0.0009   -0.0002   -0.0002    0.0005    0.0008   -0.0001    0.0033
    49 C4     4pz       -0.0001   -0.0000   -0.0000    0.0001   -0.0000   -0.0002   -0.0000    0.0004   -0.0000    0.0017
    50 C4     3d2-       0.0000    0.0001    0.0001   -0.0000    0.0000   -0.0002    0.0001    0.0000    0.0000   -0.0013
    51 C4     3d1-       0.0000   -0.0000    0.0000    0.0002    0.0000   -0.0003    0.0001   -0.0001    0.0000   -0.0013
    52 C4     3d0        0.0000    0.0000   -0.0001   -0.0000    0.0000   -0.0001    0.0000   -0.0000   -0.0000   -0.0007
    53 C4     3d1+      -0.0000   -0.0001   -0.0000    0.0000   -0.0000    0.0000    0.0000   -0.0000    0.0000    0.0001
    54 C4     3d2+       0.0000    0.0000   -0.0000    0.0001    0.0000   -0.0002    0.0001   -0.0000    0.0000   -0.0006
    55 C6     1s         0.0000    0.0001   -0.0001    0.0003   -0.0000   -0.0003    0.0002    0.9997    0.0000    0.0003
    56 C6     2s         0.0001    0.0005   -0.0005    0.0014   -0.0003   -0.0002    0.0003    0.0001   -0.0000    0.0062
    57 C6     3s         0.0001    0.0004   -0.0005    0.0003   -0.0003   -0.0003    0.0003   -0.0016   -0.0000    0.0051
    58 C6     4s         0.0000    0.0001   -0.0001   -0.0001   -0.0001   -0.0002    0.0001    0.0009   -0.0000    0.0021
    59 C6     2px        0.0000   -0.0002    0.0001   -0.0004    0.0002    0.0002   -0.0003   -0.0001    0.0001   -0.0056
    60 C6     3px        0.0000   -0.0002    0.0001    0.0002    0.0002    0.0002   -0.0003    0.0002    0.0001   -0.0049
    61 C6     4px        0.0000   -0.0000   -0.0000    0.0002    0.0000    0.0001    0.0000   -0.0006   -0.0000   -0.0004
    62 C6     2py        0.0000   -0.0001   -0.0001    0.0002   -0.0000    0.0002   -0.0001    0.0002    0.0000   -0.0001
    63 C6     3py        0.0001   -0.0001   -0.0001    0.0001    0.0000    0.0003   -0.0001   -0.0001    0.0001   -0.0008
    64 C6     4py        0.0000    0.0001    0.0000    0.0000    0.0000    0.0001   -0.0000    0.0000    0.0000   -0.0006
    65 C6     2pz        0.0000    0.0002   -0.0002    0.0002   -0.0000   -0.0004   -0.0000   -0.0001    0.0000    0.0015
    66 C6     3pz        0.0000    0.0002   -0.0002   -0.0002   -0.0001   -0.0005   -0.0000   -0.0001    0.0000    0.0017
    67 C6     4pz       -0.0000   -0.0000   -0.0000   -0.0002   -0.0000   -0.0001    0.0000    0.0004   -0.0000    0.0009
    68 C6     3d2-       0.0000   -0.0000   -0.0000    0.0001   -0.0000    0.0000   -0.0000    0.0001    0.0000    0.0000
    69 C6     3d1-      -0.0000   -0.0000   -0.0000    0.0000   -0.0000   -0.0001    0.0000   -0.0000   -0.0000    0.0001
    70 C6     3d0       -0.0000   -0.0000    0.0000    0.0001   -0.0000    0.0000    0.0000    0.0000   -0.0000    0.0001
    71 C6     3d1+       0.0000   -0.0000    0.0000    0.0001    0.0000   -0.0000   -0.0000    0.0001    0.0000   -0.0003
    72 C6     3d2+      -0.0000    0.0000   -0.0000   -0.0000   -0.0000   -0.0000    0.0000   -0.0001   -0.0000    0.0003
    73 C19    1s         0.0002   -0.0000   -0.0000    0.0000    0.0036    0.0000    0.0002   -0.0000    0.9999   -0.0146
    74 C19    2s         0.0012   -0.0001   -0.0001   -0.0000    0.0005    0.0000    0.0008   -0.0002    0.0019   -0.0134
    75 C19    3s         0.0008   -0.0001    0.0001   -0.0001    0.0002   -0.0000    0.0004   -0.0002   -0.0005   -0.0393
    76 C19    4s         0.0001   -0.0000    0.0000   -0.0000    0.0001   -0.0001   -0.0000   -0.0001    0.0012   -0.0036
    77 C19    2px        0.0008   -0.0000   -0.0003   -0.0000   -0.0002    0.0001    0.0002   -0.0000   -0.0002   -0.0103
    78 C19    3px        0.0005   -0.0000   -0.0002   -0.0000   -0.0003    0.0002    0.0002   -0.0000   -0.0001   -0.0080
    79 C19    4px       -0.0002   -0.0000    0.0000    0.0000   -0.0000    0.0000   -0.0000    0.0000    0.0002    0.0077
    80 C19    2py       -0.0001   -0.0000    0.0004   -0.0001    0.0004   -0.0001    0.0002   -0.0001   -0.0002    0.0213
    81 C19    3py       -0.0002   -0.0000    0.0003   -0.0001   -0.0001   -0.0001    0.0001   -0.0001   -0.0000   -0.0053
    82 C19    4py       -0.0002    0.0000   -0.0001   -0.0000   -0.0001   -0.0000   -0.0001   -0.0000    0.0004    0.0057
    83 C19    2pz       -0.0000   -0.0001   -0.0000    0.0000   -0.0001   -0.0000    0.0000   -0.0000    0.0000   -0.0004
    84 C19    3pz        0.0000   -0.0001   -0.0000    0.0001   -0.0000   -0.0000    0.0000   -0.0000   -0.0000    0.0013
    85 C19    4pz        0.0000    0.0000    0.0000    0.0000    0.0000   -0.0000    0.0000    0.0000   -0.0000   -0.0003
    86 C19    3d2-       0.0001   -0.0000   -0.0000   -0.0000    0.0000    0.0000    0.0001   -0.0000   -0.0001    0.0006
    87 C19    3d1-       0.0000    0.0000   -0.0000   -0.0000    0.0000   -0.0000   -0.0000    0.0000    0.0000   -0.0004
    88 C19    3d0       -0.0001   -0.0000   -0.0001    0.0000    0.0001   -0.0000   -0.0000    0.0000    0.0001    0.0015
    89 C19    3d1+      -0.0000    0.0000    0.0000    0.0000   -0.0000   -0.0000   -0.0000    0.0000    0.0000   -0.0000
    90 C19    3d2+       0.0001   -0.0000   -0.0000    0.0000   -0.0001   -0.0000   -0.0000    0.0000    0.0001   -0.0069
    91 N2     1s         0.0000   -0.0000    0.9999   -0.0000   -0.0002    0.0001    0.0001    0.0000    0.0001   -0.0183
    92 N2     2s         0.0003   -0.0000    0.0002   -0.0001    0.0000    0.0006    0.0014    0.0001    0.0007    0.1143
    93 N2     3s         0.0002    0.0000   -0.0013   -0.0001   -0.0002    0.0004    0.0007    0.0001    0.0005   -0.0493
    94 N2     4s         0.0000    0.0000    0.0005   -0.0000    0.0001    0.0001    0.0003    0.0000    0.0001   -0.0117
    95 N2     2px        0.0003   -0.0003    0.0008   -0.0002   -0.0003    0.0005    0.0008   -0.0002   -0.0006   -0.0280
    96 N2     3px        0.0004   -0.0005    0.0009   -0.0003   -0.0003    0.0006    0.0008   -0.0004   -0.0006    0.0195
    97 N2     4px        0.0001   -0.0001   -0.0001   -0.0000   -0.0003   -0.0000    0.0001   -0.0001    0.0001   -0.0051
    98 N2     2py       -0.0016    0.0002   -0.0008   -0.0001    0.0001    0.0005    0.0007   -0.0000   -0.0004    0.0396
    99 N2     3py       -0.0019    0.0002   -0.0002   -0.0002    0.0000    0.0006    0.0007   -0.0000   -0.0004    0.0171
   100 N2     4py        0.0000    0.0000    0.0005   -0.0000   -0.0000    0.0000    0.0002   -0.0000    0.0001   -0.0054
   101 N2     2pz        0.0001    0.0003    0.0001   -0.0001    0.0000    0.0000   -0.0001    0.0001    0.0001   -0.0027
   102 N2     3pz        0.0002    0.0005   -0.0001   -0.0001    0.0000   -0.0000   -0.0001    0.0001    0.0001   -0.0053
   103 N2     4pz        0.0000    0.0001    0.0000    0.0000    0.0000    0.0000   -0.0001    0.0000    0.0000   -0.0005
   104 N2     3d2-       0.0001    0.0000   -0.0002   -0.0000   -0.0001    0.0000   -0.0000   -0.0000   -0.0000   -0.0028
   105 N2     3d1-      -0.0000    0.0000   -0.0000   -0.0000    0.0000    0.0000    0.0000    0.0000   -0.0000    0.0001
   106 N2     3d0       -0.0000    0.0000   -0.0000    0.0000    0.0002   -0.0000    0.0001   -0.0000   -0.0001   -0.0028
   107 N2     3d1+      -0.0000    0.0000    0.0000   -0.0000   -0.0000   -0.0000    0.0000    0.0000    0.0000    0.0002
   108 N2     3d2+      -0.0000   -0.0000   -0.0000   -0.0000    0.0001    0.0000   -0.0000   -0.0000    0.0000    0.0047
   109 N5     1s         0.0000    0.0001    0.0001    0.9999    0.0001   -0.0003    0.0001    0.0001    0.0000   -0.0018
   110 N5     2s         0.0000    0.0009    0.0004    0.0006    0.0004   -0.0003    0.0002    0.0017    0.0002   -0.0009
   111 N5     3s         0.0000    0.0006    0.0003   -0.0010    0.0003   -0.0004    0.0002    0.0010    0.0001   -0.0060
   112 N5     4s         0.0000    0.0001    0.0001    0.0006    0.0001    0.0000   -0.0000    0.0004    0.0000   -0.0013
   113 N5     2px       -0.0001   -0.0012    0.0003   -0.0007    0.0002    0.0003   -0.0002    0.0008   -0.0001   -0.0025
   114 N5     3px       -0.0002   -0.0014    0.0004   -0.0004    0.0003    0.0003   -0.0002    0.0008   -0.0001   -0.0043
   115 N5     4px       -0.0000    0.0000    0.0001    0.0002    0.0001   -0.0001    0.0001    0.0002   -0.0000   -0.0014
   116 N5     2py        0.0001    0.0008   -0.0001    0.0007    0.0000   -0.0002   -0.0001    0.0000    0.0000   -0.0026
   117 N5     3py        0.0001    0.0010   -0.0001    0.0003    0.0000   -0.0001   -0.0000   -0.0002    0.0000   -0.0008
   118 N5     4py       -0.0000    0.0000    0.0000   -0.0003    0.0000   -0.0001    0.0001   -0.0002   -0.0000   -0.0001
   119 N5     2pz        0.0000    0.0003   -0.0001   -0.0000   -0.0002    0.0000    0.0003   -0.0005   -0.0000    0.0046
   120 N5     3pz        0.0001    0.0003   -0.0002   -0.0000   -0.0004   -0.0000    0.0003   -0.0003   -0.0000    0.0065
   121 N5     4pz        0.0000   -0.0000   -0.0001    0.0001   -0.0001    0.0002   -0.0001   -0.0000   -0.0000    0.0018
   122 N5     3d2-      -0.0000   -0.0000    0.0000   -0.0001    0.0000    0.0001   -0.0000    0.0000   -0.0000    0.0002
   123 N5     3d1-      -0.0000    0.0000   -0.0000    0.0000   -0.0000    0.0001   -0.0001    0.0001   -0.0000   -0.0001
   124 N5     3d0       -0.0000   -0.0000   -0.0000   -0.0000    0.0000    0.0000   -0.0000    0.0000   -0.0000    0.0001
   125 N5     3d1+       0.0000   -0.0001   -0.0000    0.0001    0.0000    0.0001   -0.0001    0.0001    0.0000   -0.0002
   126 N5     3d2+      -0.0000    0.0001   -0.0000   -0.0001   -0.0000   -0.0001    0.0000   -0.0000   -0.0000    0.0001
   127 O7     1s         0.9997    0.0000    0.0000    0.0000   -0.0003    0.0000   -0.0000    0.0000    0.0001   -0.0237
   128 O7     2s        -0.0016    0.0000    0.0002    0.0000    0.0004    0.0002   -0.0001    0.0000    0.0003    0.6925
   129 O7     3s        -0.0014   -0.0000    0.0001    0.0000   -0.0000    0.0001   -0.0000    0.0000    0.0003   -0.0340
   130 O7     4s         0.0000   -0.0000    0.0000    0.0000    0.0000    0.0000    0.0000    0.0000    0.0001   -0.0138
   131 O7     2px        0.0001   -0.0000   -0.0003    0.0000    0.0004    0.0001   -0.0001   -0.0000    0.0001    0.0854
   132 O7     3px       -0.0003   -0.0001   -0.0004    0.0001   -0.0000    0.0001   -0.0000   -0.0000    0.0001   -0.0263
   133 O7     4px        0.0008   -0.0000   -0.0001    0.0000    0.0001    0.0000    0.0000   -0.0000   -0.0000   -0.0017
   134 O7     2py       -0.0001   -0.0000   -0.0002    0.0000   -0.0006    0.0000    0.0000   -0.0000   -0.0001   -0.1206
   135 O7     3py        0.0006   -0.0000   -0.0002    0.0000   -0.0003    0.0000   -0.0000   -0.0001   -0.0001    0.0368
   136 O7     4py       -0.0011   -0.0000    0.0001    0.0000   -0.0003    0.0000   -0.0000   -0.0000    0.0000    0.0001
   137 O7     2pz        0.0000    0.0000    0.0000    0.0000    0.0000   -0.0000    0.0000    0.0000    0.0000    0.0090
   138 O7     3pz       -0.0000    0.0001   -0.0000    0.0000    0.0000   -0.0001    0.0001    0.0000    0.0000   -0.0026
   139 O7     4pz        0.0001    0.0000   -0.0000    0.0000    0.0000   -0.0000    0.0000    0.0000   -0.0000    0.0000
   140 O7     3d2-       0.0001   -0.0000    0.0000    0.0000   -0.0002   -0.0000    0.0000    0.0000   -0.0000   -0.0180
   141 O7     3d1-       0.0000   -0.0000   -0.0000   -0.0000   -0.0000   -0.0000    0.0000    0.0000   -0.0000   -0.0017
   142 O7     3d0       -0.0000    0.0000   -0.0001   -0.0000   -0.0001    0.0000   -0.0000    0.0000   -0.0000   -0.0105
   143 O7     3d1+      -0.0000   -0.0000   -0.0000   -0.0000    0.0000   -0.0000    0.0000    0.0000    0.0000    0.0012
   144 O7     3d2+       0.0000   -0.0000   -0.0001    0.0000   -0.0001    0.0000   -0.0000    0.0000   -0.0000   -0.0068
   145 O8     1s        -0.0000    0.9997   -0.0000    0.0000    0.0000   -0.0002    0.0001   -0.0000    0.0000   -0.0014
   146 O8     2s        -0.0000   -0.0016   -0.0002    0.0003    0.0002    0.0007    0.0000   -0.0003    0.0000    0.0235
   147 O8     3s        -0.0001   -0.0015   -0.0002    0.0002    0.0002    0.0002    0.0001   -0.0001    0.0000   -0.0031
   148 O8     4s        -0.0001    0.0000   -0.0001    0.0000    0.0001    0.0001    0.0000   -0.0000    0.0000   -0.0010
   149 O8     2px        0.0001   -0.0001    0.0001   -0.0002   -0.0001   -0.0003    0.0000   -0.0000   -0.0001   -0.0031
   150 O8     3px        0.0001    0.0003    0.0001   -0.0002   -0.0002   -0.0002    0.0000   -0.0000   -0.0001    0.0026
   151 O8     4px        0.0000   -0.0008    0.0000    0.0001   -0.0000   -0.0001    0.0001   -0.0000   -0.0000    0.0002
   152 O8     2py        0.0001    0.0002   -0.0000   -0.0001    0.0001    0.0007   -0.0001   -0.0001    0.0000    0.0027
   153 O8     3py        0.0001   -0.0005   -0.0001   -0.0002    0.0001    0.0002    0.0000   -0.0000   -0.0000   -0.0033
   154 O8     4py        0.0000    0.0011   -0.0000   -0.0001   -0.0000    0.0001   -0.0001    0.0000   -0.0000   -0.0001
   155 O8     2pz       -0.0000   -0.0001   -0.0001    0.0002    0.0000   -0.0002   -0.0000    0.0000    0.0000   -0.0010
   156 O8     3pz        0.0000    0.0001   -0.0001    0.0003    0.0000   -0.0000   -0.0001   -0.0000    0.0001    0.0003
   157 O8     4pz        0.0000   -0.0003   -0.0000    0.0000    0.0000   -0.0000   -0.0000   -0.0000    0.0000   -0.0001
   158 O8     3d2-      -0.0000    0.0001    0.0000   -0.0000   -0.0000   -0.0002    0.0000   -0.0000   -0.0000   -0.0006
   159 O8     3d1-      -0.0000   -0.0000    0.0000    0.0000   -0.0000   -0.0001   -0.0000    0.0000   -0.0000   -0.0001
   160 O8     3d0        0.0000    0.0000    0.0000   -0.0000   -0.0000   -0.0001    0.0000   -0.0000   -0.0000   -0.0003
   161 O8     3d1+       0.0000   -0.0001    0.0000   -0.0000    0.0000    0.0001   -0.0000   -0.0000   -0.0000    0.0002
   162 O8     3d2+      -0.0000    0.0001   -0.0000    0.0000    0.0000   -0.0001    0.0000    0.0000    0.0000   -0.0001
   163 H9     1s         0.0002    0.0002    0.0001   -0.0001    0.0000   -0.0002   -0.0003    0.0000    0.0003    0.0138
   164 H9     2s         0.0001    0.0001    0.0001   -0.0000    0.0000   -0.0001   -0.0002   -0.0000   -0.0003    0.0033
   165 H9     2px       -0.0000    0.0000    0.0000   -0.0000    0.0000   -0.0000   -0.0000   -0.0000   -0.0000    0.0009
   166 H9     2py       -0.0001    0.0000   -0.0000    0.0000    0.0000   -0.0000   -0.0000    0.0000    0.0000    0.0011
   167 H9     2pz       -0.0000   -0.0000    0.0000    0.0000   -0.0000    0.0000    0.0000    0.0000    0.0001   -0.0007
   168 H10    1s         0.0001   -0.0002    0.0002   -0.0001   -0.0000   -0.0002   -0.0002   -0.0001    0.0003    0.0155
   169 H10    2s         0.0001   -0.0001    0.0001   -0.0001    0.0000   -0.0001   -0.0001   -0.0000   -0.0003    0.0042
   170 H10    2px       -0.0000   -0.0000    0.0000   -0.0000    0.0000   -0.0000   -0.0000   -0.0000   -0.0000    0.0010
   171 H10    2py       -0.0001   -0.0000   -0.0000   -0.0000    0.0000   -0.0000   -0.0000    0.0000    0.0000    0.0012
   172 H10    2pz        0.0000   -0.0000   -0.0000   -0.0000    0.0000   -0.0000   -0.0000   -0.0000   -0.0001    0.0006
   173 H11    1s        -0.0004   -0.0000    0.0005   -0.0001    0.0003   -0.0001   -0.0001   -0.0001    0.0004    0.0214
   174 H11    2s        -0.0002   -0.0000    0.0004   -0.0001    0.0001   -0.0001   -0.0001   -0.0001   -0.0002    0.0067
   175 H11    2px       -0.0000    0.0000   -0.0001    0.0000   -0.0000    0.0000    0.0000    0.0000    0.0001   -0.0002
   176 H11    2py       -0.0000   -0.0000    0.0000   -0.0000    0.0001    0.0000   -0.0000   -0.0000   -0.0000    0.0020
   177 H11    2pz       -0.0000    0.0000    0.0000   -0.0000    0.0000    0.0000   -0.0000    0.0000   -0.0000   -0.0000
   178 H12    1s        -0.0012    0.0003   -0.0010    0.0002    0.0001   -0.0000   -0.0002   -0.0001   -0.0005    0.0371
   179 H12    2s        -0.0007    0.0002   -0.0007    0.0001   -0.0000    0.0000   -0.0001   -0.0000   -0.0003   -0.0019
   180 H12    2px        0.0001   -0.0000    0.0002    0.0000   -0.0001   -0.0000    0.0000    0.0000    0.0001   -0.0047
   181 H12    2py       -0.0000    0.0000   -0.0004    0.0000    0.0000    0.0000    0.0000   -0.0000   -0.0000    0.0042
   182 H12    2pz        0.0000   -0.0000    0.0001   -0.0000    0.0000    0.0000    0.0000   -0.0000    0.0000   -0.0003
   183 H13    1s         0.0001   -0.0007   -0.0004    0.0006   -0.0003   -0.0001    0.0007   -0.0001    0.0000    0.0157
   184 H13    2s         0.0002   -0.0004   -0.0002    0.0004   -0.0001   -0.0002   -0.0000   -0.0001    0.0000   -0.0004
   185 H13    2px        0.0000   -0.0000    0.0000    0.0000   -0.0000    0.0001    0.0000    0.0000   -0.0000   -0.0003
   186 H13    2py        0.0000    0.0000    0.0000   -0.0001    0.0000   -0.0000   -0.0001   -0.0000   -0.0000   -0.0013
   187 H13    2pz        0.0000    0.0000    0.0000    0.0000   -0.0000   -0.0000   -0.0000   -0.0000   -0.0000    0.0008
   188 H14    1s         0.0003    0.0006   -0.0007   -0.0002   -0.0006    0.0001    0.0009   -0.0001   -0.0000    0.0090
   189 H14    2s         0.0002    0.0003   -0.0003   -0.0002   -0.0005    0.0000    0.0002   -0.0001   -0.0000    0.0007
   190 H14    2px        0.0000   -0.0001    0.0000   -0.0000    0.0001    0.0001   -0.0000   -0.0000   -0.0000   -0.0005
   191 H14    2py       -0.0000   -0.0000    0.0000    0.0000    0.0000   -0.0000   -0.0000   -0.0000   -0.0000   -0.0004
   192 H14    2pz       -0.0000   -0.0000    0.0000    0.0000    0.0001   -0.0000    0.0000    0.0000    0.0000   -0.0010
   193 H15    1s        -0.0002   -0.0012    0.0002   -0.0009   -0.0000    0.0003   -0.0001   -0.0001   -0.0001    0.0049
   194 H15    2s        -0.0002   -0.0007    0.0001   -0.0006   -0.0000    0.0001    0.0000   -0.0000   -0.0001    0.0020
   195 H15    2px       -0.0000   -0.0000   -0.0000   -0.0003   -0.0000   -0.0000    0.0000    0.0000   -0.0000    0.0007
   196 H15    2py        0.0000    0.0001   -0.0000    0.0004    0.0000   -0.0001    0.0000    0.0000    0.0000   -0.0005
   197 H15    2pz       -0.0000   -0.0000    0.0000   -0.0001    0.0000    0.0001   -0.0000   -0.0000   -0.0000   -0.0000
   198 H16    1s         0.0000    0.0004   -0.0002   -0.0005   -0.0000   -0.0004   -0.0001    0.0005    0.0000    0.0015
   199 H16    2s         0.0000    0.0002   -0.0001   -0.0002   -0.0001   -0.0003   -0.0001   -0.0001    0.0000    0.0014
   200 H16    2px       -0.0000   -0.0000   -0.0000    0.0000   -0.0000   -0.0000   -0.0000   -0.0000    0.0000    0.0000
   201 H16    2py       -0.0000   -0.0000    0.0000    0.0000    0.0000   -0.0000    0.0000   -0.0000   -0.0000    0.0000
   202 H16    2pz        0.0000    0.0000   -0.0000   -0.0000   -0.0000   -0.0001   -0.0000   -0.0000    0.0000    0.0001
   203 H17    1s        -0.0000    0.0003    0.0001   -0.0005   -0.0001   -0.0003    0.0002    0.0005   -0.0001    0.0035
   204 H17    2s        -0.0000    0.0002    0.0001   -0.0002   -0.0001   -0.0002    0.0002   -0.0001   -0.0001    0.0024
   205 H17    2px        0.0000   -0.0000   -0.0000    0.0000    0.0000    0.0000   -0.0000   -0.0000    0.0000   -0.0001
   206 H17    2py        0.0000   -0.0000   -0.0000    0.0000    0.0000    0.0000   -0.0000    0.0000    0.0000   -0.0004
   207 H17    2pz        0.0000    0.0000    0.0000   -0.0000   -0.0000    0.0000   -0.0000    0.0000    0.0000   -0.0001
   208 H18    1s        -0.0000    0.0000   -0.0002   -0.0001   -0.0002   -0.0000    0.0001    0.0010   -0.0000    0.0045
   209 H18    2s        -0.0000    0.0001   -0.0001   -0.0000   -0.0001    0.0001    0.0001    0.0001   -0.0000    0.0027
   210 H18    2px        0.0000    0.0000    0.0000   -0.0000    0.0000   -0.0000   -0.0000   -0.0001    0.0000   -0.0002
   211 H18    2py       -0.0000    0.0000   -0.0000    0.0000   -0.0000   -0.0000    0.0000    0.0001   -0.0000    0.0006
   212 H18    2pz       -0.0000    0.0000    0.0000   -0.0000    0.0000    0.0000    0.0000   -0.0000    0.0000   -0.0001
 
 
      Orbital                11        12        13        14        15        16        17        18        19        20
      Energy            -1.3680   -1.2546   -1.2155   -1.0296   -0.9726   -0.9156   -0.8188   -0.7794   -0.7197   -0.6937
      Occ. No.           2.0000    2.0000    2.0000    2.0000    2.0000    2.0000    2.0000    2.0000    2.0000    2.0000
 
     1 C1     1s         0.0051   -0.0086    0.0032   -0.0153   -0.0002    0.0067   -0.0129    0.0018    0.0070    0.0031
     2 C1     2s         0.0152    0.1326    0.0071    0.2850   -0.0403   -0.0855    0.3802   -0.0562   -0.2616   -0.0609
     3 C1     3s         0.0219    0.0017    0.0160   -0.0113   -0.0021    0.0114   -0.0010   -0.0002    0.0074    0.0182
     4 C1     4s         0.0061    0.0014    0.0049   -0.0034   -0.0015    0.0047   -0.0020    0.0004    0.0039    0.0031
     5 C1     2px        0.0320    0.1544    0.0120   -0.0064    0.1038   -0.0945    0.1352   -0.0070    0.1513    0.2580
     6 C1     3px        0.0194   -0.0348    0.0309   -0.0475   -0.0317    0.0390   -0.0253   -0.0058   -0.0707   -0.0518
     7 C1     4px        0.0083    0.0289    0.0044   -0.0095    0.0105   -0.0063    0.0091   -0.0019    0.0048    0.0178
     8 C1     2py        0.0059   -0.0371    0.0222   -0.1553    0.0614    0.0024    0.0559    0.0330    0.0527   -0.1595
     9 C1     3py        0.0235    0.0459    0.0226    0.0161   -0.0500    0.0400   -0.0068    0.0016   -0.0032    0.0667
    10 C1     4py        0.0004   -0.0060    0.0046   -0.0241    0.0066    0.0035    0.0076    0.0023   -0.0023   -0.0089
    11 C1     2pz        0.0027    0.0008   -0.0033    0.0132   -0.0013   -0.0039   -0.0016   -0.0033    0.0025    0.0075
    12 C1     3pz        0.0016   -0.0106   -0.0044    0.0037    0.0044   -0.0081    0.0046   -0.0035    0.0027   -0.0046
    13 C1     4pz        0.0001   -0.0013   -0.0015    0.0030    0.0004   -0.0023   -0.0003   -0.0003    0.0012   -0.0003
    14 C1     3d2-       0.0030    0.0140   -0.0006    0.0081   -0.0093    0.0070    0.0130    0.0066    0.0171    0.0056
    15 C1     3d1-       0.0002    0.0011   -0.0000   -0.0010    0.0011   -0.0005   -0.0009    0.0002    0.0017    0.0016
    16 C1     3d0        0.0009   -0.0067    0.0003   -0.0116   -0.0003    0.0048   -0.0133    0.0016    0.0060    0.0022
    17 C1     3d1+       0.0001   -0.0007    0.0002   -0.0003    0.0011   -0.0002   -0.0013   -0.0000   -0.0005   -0.0015
    18 C1     3d2+       0.0026    0.0278   -0.0018    0.0030    0.0151   -0.0129    0.0103   -0.0006    0.0152    0.0169
    19 C3     1s        -0.0166   -0.0296   -0.0057    0.0336    0.0263   -0.0210   -0.0099   -0.0060    0.0002   -0.0006
    20 C3     2s         0.0183    0.1781    0.0075   -0.2941   -0.2384    0.3166    0.1029    0.0661   -0.0275    0.0381
    21 C3     3s        -0.0435   -0.0472   -0.0172    0.0577    0.0452   -0.0146   -0.0221   -0.0127    0.0035   -0.0021
    22 C3     4s        -0.0060   -0.0097   -0.0018    0.0161    0.0106   -0.0048   -0.0057   -0.0044    0.0022   -0.0021
    23 C3     2px        0.0234   -0.0543    0.0282   -0.0269   -0.0666    0.0092   -0.0554   -0.1349   -0.2624    0.1157
    24 C3     3px        0.0035    0.0044    0.0191   -0.0206    0.0262    0.0220    0.0087    0.0233    0.0374   -0.0151
    25 C3     4px        0.0086   -0.0082    0.0072   -0.0035    0.0025   -0.0012   -0.0033   -0.0080   -0.0028    0.0031
    26 C3     2py       -0.0316   -0.0982    0.0138    0.0086   -0.0307   -0.0287    0.1430    0.0045   -0.0218    0.2186
    27 C3     3py       -0.0007    0.0071   -0.0016   -0.0352    0.0128   -0.0215   -0.0106    0.0054    0.0069   -0.0339
    28 C3     4py        0.0042   -0.0025    0.0025   -0.0133   -0.0074    0.0056    0.0082    0.0085   -0.0024    0.0091
    29 C3     2pz        0.0073    0.0006   -0.0197    0.0155    0.0296    0.0454   -0.0076    0.0561    0.0336   -0.0604
    30 C3     3pz        0.0166    0.0096    0.0016   -0.0072   -0.0159    0.0307    0.0027   -0.0144   -0.0055    0.0075
    31 C3     4pz       -0.0048    0.0080   -0.0001   -0.0060   -0.0041    0.0143    0.0008    0.0007   -0.0019   -0.0002
    32 C3     3d2-      -0.0007    0.0187    0.0036   -0.0024    0.0078   -0.0021   -0.0036    0.0057    0.0193   -0.0218
    33 C3     3d1-       0.0052   -0.0015   -0.0011   -0.0002   -0.0018    0.0010   -0.0021   -0.0038   -0.0076   -0.0002
    34 C3     3d0       -0.0035   -0.0117    0.0027    0.0057   -0.0020   -0.0027    0.0051   -0.0030   -0.0071    0.0112
    35 C3     3d1+      -0.0007   -0.0037   -0.0035    0.0048    0.0082    0.0019    0.0060    0.0103    0.0119   -0.0007
    36 C3     3d2+       0.0014   -0.0081    0.0018   -0.0005   -0.0092   -0.0027    0.0161   -0.0089   -0.0089    0.0175
    37 C4     1s        -0.0404    0.0054   -0.0067    0.0092    0.0143    0.0075   -0.0027    0.0162    0.0030   -0.0022
    38 C4     2s         0.3549    0.0126    0.1254   -0.1047   -0.2286   -0.0580    0.0078   -0.4048   -0.0800    0.0489
    39 C4     3s        -0.0110    0.0131    0.0057    0.0189    0.0103    0.0159   -0.0105    0.0097    0.0040   -0.0027
    40 C4     4s         0.0010    0.0040    0.0019    0.0058    0.0036    0.0050   -0.0026    0.0052    0.0033   -0.0023
    41 C4     2px        0.0761   -0.0427    0.0245    0.0652    0.1145   -0.0206    0.0126   -0.0353    0.1509   -0.0796
    42 C4     3px       -0.0220    0.0115    0.0542   -0.0386    0.0273    0.0854    0.0074   -0.0062   -0.0631    0.0361
    43 C4     4px        0.0200   -0.0100    0.0100    0.0060    0.0192    0.0066    0.0037   -0.0065    0.0032    0.0007
    44 C4     2py       -0.0672    0.0104    0.1391   -0.0280   -0.0760   -0.0603    0.0176   -0.0798    0.0245    0.0302
    45 C4     3py        0.0608   -0.0289   -0.0372    0.0209    0.0262    0.0224    0.0167    0.0152   -0.0153   -0.0027
    46 C4     4py       -0.0192   -0.0010    0.0260   -0.0017   -0.0084   -0.0045    0.0091   -0.0031    0.0021    0.0018
    47 C4     2pz       -0.0026    0.0056   -0.1168   -0.0265   -0.0252    0.0502   -0.0116    0.0733   -0.1369    0.0433
    48 C4     3pz       -0.0251   -0.0046   -0.0134    0.0106   -0.0279   -0.0901   -0.0065   -0.0106    0.0549   -0.0275
    49 C4     4pz        0.0001    0.0020   -0.0255   -0.0041   -0.0069   -0.0029   -0.0027    0.0060   -0.0053    0.0000
    50 C4     3d2-      -0.0301    0.0059    0.0196    0.0011    0.0017   -0.0049   -0.0068   -0.0063    0.0092   -0.0117
    51 C4     3d1-      -0.0199    0.0015   -0.0153   -0.0004    0.0066    0.0162    0.0023    0.0103   -0.0077    0.0054
    52 C4     3d0       -0.0174    0.0035    0.0116    0.0008    0.0012   -0.0033   -0.0019   -0.0033    0.0044   -0.0038
    53 C4     3d1+       0.0021   -0.0042   -0.0122    0.0078    0.0092   -0.0043    0.0008    0.0178    0.0004    0.0026
    54 C4     3d2+      -0.0148    0.0059   -0.0029   -0.0066   -0.0009    0.0141    0.0014   -0.0046   -0.0016   -0.0016
    55 C6     1s        -0.0088    0.0046   -0.0347   -0.0149   -0.0367   -0.0429   -0.0046    0.0078    0.0056   -0.0060
    56 C6     2s         0.0258    0.0205    0.1564    0.0770    0.2453    0.3772    0.0258   -0.1138   -0.0432    0.0399
    57 C6     3s        -0.0137    0.0231   -0.0607   -0.0277   -0.0700   -0.0690   -0.0140    0.0144    0.0149   -0.0176
    58 C6     4s        -0.0006    0.0067   -0.0100   -0.0051   -0.0152   -0.0141   -0.0039    0.0042    0.0038   -0.0046
    59 C6     2px       -0.0181   -0.0077   -0.0908   -0.0199   -0.0146    0.0287    0.0260   -0.1136   -0.0486    0.0973
    60 C6     3px        0.0027   -0.0105    0.0164    0.0047    0.0173    0.0025    0.0010    0.0067    0.0106   -0.0157
    61 C6     4px       -0.0033   -0.0008   -0.0016    0.0038    0.0112    0.0172    0.0030   -0.0101   -0.0022    0.0042
    62 C6     2py       -0.0048    0.0046    0.0042   -0.0007    0.0063    0.0124   -0.0071    0.1075   -0.0859    0.0436
    63 C6     3py       -0.0010    0.0040    0.0010   -0.0020    0.0053    0.0122    0.0020   -0.0022    0.0071   -0.0025
    64 C6     4py       -0.0003    0.0002    0.0022   -0.0001    0.0016    0.0002   -0.0017    0.0063   -0.0049    0.0022
    65 C6     2pz        0.0144    0.0055    0.0550    0.0074    0.0031   -0.0233   -0.0095   -0.0026    0.0891   -0.0883
    66 C6     3pz       -0.0019    0.0093   -0.0121   -0.0072   -0.0167   -0.0050   -0.0019   -0.0002   -0.0110    0.0125
    67 C6     4pz        0.0018    0.0013   -0.0006   -0.0017   -0.0091   -0.0110   -0.0009    0.0021    0.0047   -0.0041
    68 C6     3d2-      -0.0002    0.0002   -0.0024   -0.0011   -0.0024   -0.0014    0.0011   -0.0076    0.0007    0.0017
    69 C6     3d1-      -0.0003    0.0004    0.0020   -0.0003   -0.0004   -0.0004   -0.0010    0.0097   -0.0060    0.0023
    70 C6     3d0       -0.0003    0.0001   -0.0026   -0.0008   -0.0019   -0.0008    0.0001   -0.0047   -0.0004    0.0011
    71 C6     3d1+      -0.0040    0.0002   -0.0179   -0.0037   -0.0047    0.0024    0.0023   -0.0052   -0.0110    0.0133
    72 C6     3d2+       0.0027    0.0000    0.0153    0.0032    0.0037   -0.0020   -0.0023    0.0120    0.0040   -0.0082
    73 C19    1s         0.0010   -0.0102    0.0019   -0.0556    0.0438   -0.0212    0.0134   -0.0041   -0.0092    0.0024
    74 C19    2s         0.0063   -0.0009    0.0076    0.2975   -0.2786    0.1574   -0.0691    0.0423    0.0987   -0.0006
    75 C19    3s         0.0084   -0.0286    0.0122   -0.1089    0.0823   -0.0358    0.0372   -0.0078   -0.0170    0.0129
    76 C19    4s         0.0032   -0.0033    0.0042   -0.0230    0.0184   -0.0078    0.0101   -0.0025   -0.0052    0.0036
    77 C19    2px        0.0033    0.0232   -0.0019    0.0560    0.0005   -0.0272    0.0445   -0.0267   -0.0585    0.1364
    78 C19    3px        0.0004   -0.0028   -0.0010    0.0053    0.0059   -0.0029   -0.0019    0.0045    0.0139   -0.0126
    79 C19    4px       -0.0012    0.0002   -0.0007   -0.0076    0.0127   -0.0086    0.0012   -0.0034   -0.0061    0.0030
    80 C19    2py        0.0051    0.0093    0.0073    0.0457   -0.0126   -0.0137    0.0610   -0.0394   -0.2080   -0.0484
    81 C19    3py        0.0071   -0.0012    0.0089   -0.0303    0.0175   -0.0012   -0.0106    0.0001    0.0211    0.0123
    82 C19    4py        0.0004    0.0014    0.0003   -0.0123    0.0140   -0.0090    0.0128   -0.0026   -0.0088   -0.0014
    83 C19    2pz        0.0031    0.0010    0.0004   -0.0045    0.0005    0.0043   -0.0051    0.0010    0.0143    0.0004
    84 C19    3pz        0.0028    0.0024    0.0007   -0.0006   -0.0019    0.0039   -0.0007   -0.0019   -0.0026   -0.0006
    85 C19    4pz       -0.0001    0.0006    0.0003    0.0003   -0.0012    0.0009   -0.0012    0.0004    0.0003    0.0001
    86 C19    3d2-       0.0004    0.0059   -0.0003    0.0110   -0.0024   -0.0025    0.0072   -0.0034   -0.0142   -0.0000
    87 C19    3d1-      -0.0001    0.0002   -0.0000   -0.0013    0.0008   -0.0000   -0.0006    0.0005    0.0020   -0.0003
    88 C19    3d0       -0.0002   -0.0008    0.0001   -0.0088    0.0039    0.0006   -0.0033    0.0026    0.0082   -0.0087
    89 C19    3d1+      -0.0004   -0.0003    0.0000   -0.0008    0.0001    0.0001   -0.0006    0.0004    0.0006   -0.0006
    90 C19    3d2+       0.0005    0.0024   -0.0002   -0.0069    0.0049   -0.0011   -0.0028    0.0022    0.0138    0.0043
    91 N2     1s        -0.0056   -0.0413    0.0019   -0.0046   -0.0042    0.0014    0.0036   -0.0002    0.0022   -0.0012
    92 N2     2s         0.0551    0.5857   -0.0366   -0.0178    0.2072   -0.1175   -0.1581   -0.0027    0.1209   -0.0575
    93 N2     3s        -0.0112   -0.0788    0.0027   -0.0127    0.0032   -0.0034    0.0056   -0.0012    0.0111   -0.0029
    94 N2     4s        -0.0029   -0.0253    0.0013   -0.0015   -0.0016    0.0006    0.0026   -0.0006    0.0001   -0.0001
    95 N2     2px        0.0257   -0.0359    0.0114   -0.1462   -0.0398    0.1201   -0.3588    0.0124   -0.0893   -0.2746
    96 N2     3px        0.0209   -0.0185    0.0149    0.0321    0.0467   -0.0599    0.1182   -0.0143   -0.0029    0.0644
    97 N2     4px        0.0059    0.0008    0.0027   -0.0055    0.0069   -0.0046   -0.0005   -0.0015   -0.0022    0.0065
    98 N2     2py        0.0002   -0.0038    0.0036   -0.1153   -0.0443    0.1093    0.2276    0.1305    0.2447   -0.2153
    99 N2     3py       -0.0081   -0.0465   -0.0031    0.0441    0.0471   -0.0534   -0.0341   -0.0375   -0.0555    0.0294
   100 N2     4py        0.0001   -0.0125   -0.0000   -0.0002    0.0048   -0.0050    0.0087   -0.0026   -0.0016    0.0049
   101 N2     2pz       -0.0073    0.0116   -0.0015    0.0082    0.0122   -0.0110   -0.0274    0.0102    0.0004   -0.0091
   102 N2     3pz       -0.0103    0.0053    0.0004   -0.0034   -0.0019   -0.0066   -0.0028    0.0082    0.0006    0.0021
   103 N2     4pz       -0.0019    0.0013    0.0001    0.0002    0.0009   -0.0008   -0.0023    0.0022   -0.0008    0.0006
   104 N2     3d2-       0.0012    0.0068    0.0002   -0.0024   -0.0084    0.0092    0.0064    0.0039    0.0066   -0.0038
   105 N2     3d1-      -0.0004   -0.0011   -0.0001    0.0002   -0.0001    0.0007    0.0023    0.0015    0.0013   -0.0010
   106 N2     3d0       -0.0020   -0.0169    0.0013    0.0015   -0.0041    0.0014    0.0001   -0.0005   -0.0019   -0.0002
   107 N2     3d1+      -0.0004    0.0002    0.0000   -0.0005    0.0002    0.0000   -0.0018    0.0003   -0.0002   -0.0012
   108 N2     3d2+       0.0011    0.0058    0.0002    0.0101    0.0055   -0.0108    0.0186   -0.0054   -0.0036    0.0145
   109 N5     1s        -0.0197   -0.0008   -0.0430   -0.0017    0.0016    0.0025    0.0014   -0.0036    0.0031   -0.0022
   110 N5     2s         0.1242   -0.0169    0.5755    0.0435   -0.0121   -0.2220   -0.0488    0.1697    0.0876   -0.1023
   111 N5     3s        -0.0502   -0.0025   -0.0816   -0.0046   -0.0018   -0.0156   -0.0006   -0.0004    0.0144   -0.0120
   112 N5     4s        -0.0118    0.0003   -0.0268   -0.0024   -0.0017   -0.0019   -0.0003   -0.0021    0.0017   -0.0012
   113 N5     2px        0.0187   -0.0247   -0.0085    0.0563    0.1261    0.1253    0.0065   -0.0623    0.1107   -0.1281
   114 N5     3px        0.0107   -0.0298   -0.0297   -0.0012   -0.0440   -0.0856    0.0029    0.0170   -0.0211    0.0280
   115 N5     4px       -0.0071   -0.0049   -0.0078    0.0027    0.0018   -0.0048    0.0011   -0.0057    0.0014    0.0005
   116 N5     2py       -0.0338    0.0084   -0.0077    0.0087    0.0397    0.0284   -0.0422    0.3365   -0.1987    0.0843
   117 N5     3py        0.0082    0.0001    0.0260    0.0031    0.0072    0.0054    0.0001   -0.0870    0.0328   -0.0165
   118 N5     4py       -0.0013   -0.0015    0.0090    0.0038    0.0035   -0.0006   -0.0003    0.0064   -0.0017    0.0018
   119 N5     2pz        0.0123    0.0149    0.0156   -0.0397   -0.1171   -0.1036    0.0090   -0.2044    0.0671    0.0104
   120 N5     3pz       -0.0173    0.0227   -0.0013    0.0144    0.0229    0.0472   -0.0094    0.0513   -0.0086   -0.0074
   121 N5     4pz        0.0049    0.0043   -0.0023   -0.0001   -0.0037    0.0018   -0.0023   -0.0014    0.0001   -0.0012
   122 N5     3d2-       0.0004    0.0003   -0.0000   -0.0020   -0.0037    0.0005    0.0016   -0.0149    0.0035   -0.0007
   123 N5     3d1-      -0.0054    0.0010   -0.0126    0.0007    0.0054    0.0091   -0.0009    0.0092   -0.0041    0.0001
   124 N5     3d0        0.0002    0.0003   -0.0002   -0.0015   -0.0030   -0.0004    0.0012   -0.0093    0.0020    0.0000
   125 N5     3d1+      -0.0001   -0.0007   -0.0145   -0.0007   -0.0021   -0.0043   -0.0005    0.0035   -0.0015    0.0019
   126 N5     3d2+      -0.0034    0.0013    0.0023    0.0013    0.0059    0.0098   -0.0002    0.0045   -0.0018   -0.0014
   127 O7     1s         0.0011    0.0025   -0.0006   -0.0043    0.0023    0.0004   -0.0132    0.0004    0.0145    0.0216
   128 O7     2s        -0.0659   -0.3054    0.0113   -0.2082    0.0590    0.0280   -0.3446    0.0026    0.2445    0.3510
   129 O7     3s        -0.0003   -0.0093   -0.0016   -0.0200    0.0104   -0.0000   -0.0419    0.0005    0.0404    0.0612
   130 O7     4s         0.0005   -0.0002   -0.0005   -0.0034    0.0026   -0.0007   -0.0082   -0.0002    0.0080    0.0130
   131 O7     2px       -0.0075   -0.0023   -0.0028   -0.0013    0.0293   -0.0311    0.1699    0.0028   -0.1020   -0.2253
   132 O7     3px       -0.0014   -0.0016   -0.0030   -0.0064    0.0054    0.0027   -0.0212   -0.0006    0.0101    0.0190
   133 O7     4px       -0.0002   -0.0002   -0.0004   -0.0005    0.0004    0.0011   -0.0017    0.0002    0.0009    0.0009
   134 O7     2py        0.0101    0.0397   -0.0022   -0.0319    0.0256    0.0029   -0.1558    0.0122    0.2755    0.4100
   135 O7     3py       -0.0035   -0.0012   -0.0013    0.0140    0.0010   -0.0023    0.0234   -0.0054   -0.0321   -0.0437
   136 O7     4py       -0.0008   -0.0019   -0.0002   -0.0002    0.0012    0.0008    0.0026   -0.0009   -0.0037   -0.0067
   137 O7     2pz       -0.0012    0.0006    0.0003    0.0023    0.0003   -0.0012    0.0102   -0.0002   -0.0176   -0.0277
   138 O7     3pz       -0.0006    0.0011    0.0011   -0.0009    0.0001   -0.0002   -0.0028    0.0009    0.0011    0.0029
   139 O7     4pz       -0.0002    0.0003    0.0004    0.0002    0.0001   -0.0003   -0.0006    0.0001   -0.0000    0.0005
   140 O7     3d2-       0.0013    0.0035   -0.0001    0.0008   -0.0023    0.0025   -0.0119    0.0004    0.0099    0.0179
   141 O7     3d1-       0.0002    0.0007   -0.0000    0.0000    0.0002   -0.0002   -0.0004   -0.0000    0.0013    0.0022
   142 O7     3d0        0.0009    0.0043   -0.0003    0.0014    0.0000   -0.0002   -0.0049   -0.0001    0.0064    0.0119
   143 O7     3d1+      -0.0001   -0.0001    0.0000    0.0000    0.0003   -0.0003    0.0007   -0.0000   -0.0006   -0.0013
   144 O7     3d2+       0.0007    0.0051   -0.0003   -0.0023    0.0045   -0.0027    0.0010    0.0009    0.0114    0.0122
   145 O8     1s        -0.0232    0.0022    0.0036    0.0011    0.0029    0.0002   -0.0000    0.0127    0.0023    0.0011
   146 O8     2s         0.6726   -0.1443   -0.3195    0.1121    0.1532    0.0048    0.0234    0.3529    0.0456    0.0372
   147 O8     3s        -0.0284   -0.0037   -0.0100    0.0073    0.0132    0.0002    0.0031    0.0463    0.0079    0.0040
   148 O8     4s        -0.0124   -0.0005   -0.0004    0.0005    0.0014   -0.0002    0.0016    0.0097    0.0018    0.0008
   149 O8     2px       -0.0696    0.0029    0.0362    0.0198    0.0151   -0.0262    0.0166    0.0724    0.0961   -0.0130
   150 O8     3px        0.0227   -0.0028   -0.0037    0.0027   -0.0118   -0.0085   -0.0011   -0.0149   -0.0071   -0.0013
   151 O8     4px        0.0007   -0.0005   -0.0023    0.0019   -0.0003   -0.0005   -0.0001   -0.0014   -0.0020    0.0004
   152 O8     2py        0.1202   -0.0233   -0.0266    0.0004   -0.0168   -0.0166    0.0100   -0.1737    0.0170   -0.0401
   153 O8     3py       -0.0359    0.0019    0.0012    0.0042    0.0071    0.0016    0.0012    0.0261    0.0032    0.0028
   154 O8     4py       -0.0009   -0.0003    0.0010    0.0000   -0.0009    0.0011    0.0020    0.0034    0.0004    0.0008
   155 O8     2pz       -0.0318    0.0139   -0.0052   -0.0165   -0.0061    0.0351   -0.0166    0.0684   -0.0751    0.0302
   156 O8     3pz        0.0114    0.0041    0.0043   -0.0040    0.0003    0.0086    0.0011   -0.0065    0.0040   -0.0012
   157 O8     4pz        0.0013    0.0017    0.0015   -0.0011    0.0001    0.0008   -0.0002   -0.0005    0.0017   -0.0005
   158 O8     3d2-      -0.0151    0.0021    0.0068    0.0003    0.0001   -0.0018    0.0002    0.0061    0.0045   -0.0001
[...]
AIVX     1  Mu1.0001  In1.021 Se1.047               0.19433722     -0.00129842      0.00278464     -0.00000362
AIVX     1  Mu1.0001  In1.022 Se1.047               0.10652631     -0.00026184      0.00045934     -0.00000012
AIVX     1  Mu1.0001  In1.023 Se1.047               0.28472709     -0.00167198      0.00241981     -0.00000405
AIVX     1  Mu1.0001  In1.024 Se1.047               0.12065512     -0.00001121      0.00017160     -0.00000000
AIVX     1  Mu1.0001  In1.025 Se1.047               0.24306072     -0.00027041      0.00069675     -0.00000019
AIVX     1  Mu1.0001  In1.026 Se1.047               0.20852135     -0.00127556      0.00262951     -0.00000335
AIVX     1  Mu1.0001  In1.027 Se1.047               0.22470242      0.00129765     -0.00204305     -0.00000265
AIVX     1  Mu1.0001  In1.028 Se1.047               0.03682479      0.00010911     -0.00030251     -0.00000003
AIVX     1  Mu1.0001  In1.029 Se1.047               0.06920201      0.00039703     -0.00092632     -0.00000037
AIVX     1  Mu1.0001  In1.021 Se1.048               0.23864544      0.00047708     -0.00100918     -0.00000048
AIVX     1  Mu1.0001  In1.022 Se1.048               0.15083453     -0.00048557      0.00057209     -0.00000028
AIVX     1  Mu1.0001  In1.024 Se1.048               0.16496334     -0.00003367      0.00002836     -0.00000000
AIVX     1  Mu1.0001  In1.025 Se1.048               0.28736894     -0.00098450      0.00161214     -0.00000159
AIVX     1  Mu1.0001  In1.026 Se1.048               0.25282957      0.00142175     -0.00213413     -0.00000303
AIVX     1  Mu1.0001  In1.027 Se1.048               0.26901064     -0.00076873      0.00132853     -0.00000102
AIVX     1  Mu1.0001  In1.028 Se1.048               0.08113301      0.00011353      0.00000713      0.00000000
AIVX     1  Mu1.0001  In1.029 Se1.048               0.11351023      0.00030819     -0.00025375     -0.00000008
AIVX     1  Mu1.0001  In1.022 Se1.049               0.23598681     -0.00018466      0.00033751     -0.00000006
AIVX     1  Mu1.0001  In1.024 Se1.049               0.25011562     -0.00002451      0.00014003     -0.00000000
AIVX     1  Mu1.0001  In1.028 Se1.049               0.16628529     -0.00003929      0.00000976     -0.00000000
AIVX     1  Mu1.0001  In1.029 Se1.049               0.19866251     -0.00002661     -0.00033056      0.00000001
AIVX     1  Mu1.0001  In1.021 Se1.050               0.27109936      0.00175486     -0.00258239     -0.00000453
AIVX     1  Mu1.0001  In1.022 Se1.050               0.18328845      0.00017942      0.00017773      0.00000003
AIVX     1  Mu1.0001  In1.024 Se1.050               0.19741726     -0.00000914     -0.00000911      0.00000000
AIVX     1  Mu1.0001  In1.026 Se1.050               0.28528350      0.00161945     -0.00348903     -0.00000565
AIVX     1  Mu1.0001  In1.028 Se1.050               0.11358694     -0.00042556      0.00107550     -0.00000046
AIVX     1  Mu1.0001  In1.029 Se1.050               0.14596415     -0.00047457      0.00021172     -0.00000010
AIVX     1  Mu1.0001  In1.021 Se1.051               0.26529582      0.00050171     -0.00078007     -0.00000039
AIVX     1  Mu1.0001  In1.022 Se1.051               0.17748491     -0.00014621      0.00055738     -0.00000008
AIVX     1  Mu1.0001  In1.024 Se1.051               0.19161372      0.00007403     -0.00027639     -0.00000002
AIVX     1  Mu1.0001  In1.026 Se1.051               0.27947996      0.00060745     -0.00106324     -0.00000065
AIVX     1  Mu1.0001  In1.027 Se1.051               0.29566102      0.00193974     -0.00335775     -0.00000651
AIVX     1  Mu1.0001  In1.028 Se1.051               0.10778340      0.00003036      0.00027754      0.00000001
AIVX     1  Mu1.0001  In1.029 Se1.051               0.14016061      0.00005885     -0.00002487     -0.00000000
AIVX     1  Mu1.0001  In1.021 Se1.052               0.28898338     -0.00146515      0.00235837     -0.00000346
AIVX     1  Mu1.0001  In1.022 Se1.052               0.20117247     -0.00008384      0.00057064     -0.00000005
AIVX     1  Mu1.0001  In1.024 Se1.052               0.21530128     -0.00004686      0.00012988     -0.00000001
AIVX     1  Mu1.0001  In1.028 Se1.052               0.13147095      0.00074096     -0.00147307     -0.00000109
AIVX     1  Mu1.0001  In1.029 Se1.052               0.16384817      0.00072449     -0.00158346     -0.00000115
AIVX     1  Mu1.0001  In1.022 Se1.053               0.24903106      0.00013043     -0.00038862     -0.00000005
AIVX     1  Mu1.0001  In1.024 Se1.053               0.26315988      0.00002803     -0.00009544     -0.00000000
AIVX     1  Mu1.0001  In1.028 Se1.053               0.17932955     -0.00009711     -0.00011202      0.00000001
AIVX     1  Mu1.0001  In1.029 Se1.053               0.21170677     -0.00021644      0.00045988     -0.00000010
AIVX     1  Mu1.0001  In1.022 Se1.054               0.25310339     -0.00069531      0.00110752     -0.00000077
AIVX     1  Mu1.0001  In1.024 Se1.054               0.26723221      0.00010349     -0.00023661     -0.00000002
AIVX     1  Mu1.0001  In1.028 Se1.054               0.18340188     -0.00023729      0.00070598     -0.00000017
AIVX     1  Mu1.0001  In1.029 Se1.054               0.21577910      0.00062396     -0.00122471     -0.00000076
AIVX     1  Mu1.0001  In1.022 Se1.055               0.27630605      0.00055703     -0.00073927     -0.00000041
AIVX     1  Mu1.0001  In1.024 Se1.055               0.29043487     -0.00001027      0.00004006     -0.00000000
AIVX     1  Mu1.0001  In1.028 Se1.055               0.20660454     -0.00054111      0.00125711     -0.00000068
AIVX     1  Mu1.0001  In1.029 Se1.055               0.23898175     -0.00026300      0.00036882     -0.00000010
AIVX     1  Mu1.0001  In1.022 Se1.056               0.27142180     -0.00013120      0.00047420     -0.00000006
AIVX     1  Mu1.0001  In1.024 Se1.056               0.28555062     -0.00007801      0.00027859     -0.00000002
AIVX     1  Mu1.0001  In1.028 Se1.056               0.20172029     -0.00024463      0.00055156     -0.00000013
AIVX     1  Mu1.0001  In1.029 Se1.056               0.23409751      0.00003264     -0.00016524     -0.00000001
AIVX     1  Mu1.0001  In1.028 Se1.057               0.27047597     -0.00014635     -0.00000782      0.00000000
AIVX     1  Mu1.0001  In1.022 Se1.058               0.29201836     -0.00042244      0.00011659     -0.00000005
AIVX     1  Mu1.0001  In1.028 Se1.058               0.22231685      0.00011462      0.00003923      0.00000000
AIVX     1  Mu1.0001  In1.029 Se1.058               0.25469406      0.00111772     -0.00176518     -0.00000197
AIVX     1  Mu1.0001  In1.028 Se1.059               0.23912098      0.00030750     -0.00059903     -0.00000018
AIVX     1  Mu1.0001  In1.029 Se1.059               0.27149819      0.00071451     -0.00110973     -0.00000079
AIVX     1  Mu1.0001  In1.028 Se1.060               0.24844747     -0.00087818      0.00175883     -0.00000154
AIVX     1  Mu1.0001  In1.029 Se1.060               0.28082468     -0.00111610      0.00177383     -0.00000198
AIVX     1  Mu1.0001  In1.028 Se1.065               0.28981959      0.00006640     -0.00032696     -0.00000002
AIVX     1  Mu1.0001  In1.018 Se1.209               0.27858302     -0.00024872      0.00009815     -0.00000002
AIVX     1  Mu1.0001  In1.021 Se1.209               0.21291977     -0.00018896      0.00035136     -0.00000007
AIVX     1  Mu1.0001  In1.022 Se1.209               0.12510886      0.00008441     -0.00031627     -0.00000003
AIVX     1  Mu1.0001  In1.024 Se1.209               0.13923768      0.00009673     -0.00034160     -0.00000003
AIVX     1  Mu1.0001  In1.025 Se1.209               0.26164327     -0.00076850      0.00144182     -0.00000111
AIVX     1  Mu1.0001  In1.026 Se1.209               0.22710391     -0.00050300      0.00080997     -0.00000041
AIVX     1  Mu1.0001  In1.027 Se1.209               0.24328497     -0.00067476      0.00148211     -0.00000100
AIVX     1  Mu1.0001  In1.028 Se1.209               0.05540735     -0.00038518      0.00067837     -0.00000026
AIVX     1  Mu1.0001  In1.029 Se1.209               0.08778457     -0.00032662      0.00078453     -0.00000026
--
 
   (Skipping property calculation,
    use PROP keyword to activate)
--
 
  Total CASPT2 energies:
::    CASPT2 Root  1     Total energy:   -455.20782365
::    CASPT2 Root  2     Total energy:   -455.01311674
::    CASPT2 Root  3     Total energy:   -454.99547019
::    CASPT2 Root  4     Total energy:   -454.93560750
::    CASPT2 Root  5     Total energy:   -454.94109707
::    CASPT2 Root  6     Total energy:   -454.93643937
::    CASPT2 Root  7     Total energy:   -454.90982063
 
++ Multi-State CASPT2 section:
********************************************************************************
  MULTI-STATE CASPT2 SECTION
--------------------------------------------------------------------------------
 
  Output diagonal energies have been shifted. Add   -455.000000000000     
 
  Effective Hamiltonian matrix (Symmetric):
 
                1               2               3               4               5
   1        -0.20782365
   2        -0.00028663     -0.01311674
   3        -0.00017191      0.00021025      0.00452981
   4        -0.00069246     -0.00070129     -0.00043810      0.06439250
   5         0.00963850      0.00032343      0.00000440     -0.00773046      0.05890293
   6         0.01369307      0.00184951     -0.00045164      0.00425347     -0.00694433
   7         0.00898923     -0.00045507     -0.00130453      0.00349642     -0.00480070
 
                6               7
   6         0.06356063
   7        -0.00693843      0.09017937
 
       Total MS-CASPT2 energies:
::    MS-CASPT2 Root  1     Total energy:   -455.20918936
::    MS-CASPT2 Root  2     Total energy:   -455.01317291
::    MS-CASPT2 Root  3     Total energy:   -454.99549520
::    MS-CASPT2 Root  4     Total energy:   -454.94777177
::    MS-CASPT2 Root  5     Total energy:   -454.94139379
::    MS-CASPT2 Root  6     Total energy:   -454.92504680
::    MS-CASPT2 Root  7     Total energy:   -454.90730533
 
       Eigenvectors:
            0.99742876     -0.00335816      0.00054540      0.05492667      0.04210431
            0.00194510      0.99956146      0.01225294      0.01004975      0.02272987
            0.00050297     -0.01211318      0.99973396     -0.01062591     -0.00516584
            0.00267820      0.00965188      0.00631428      0.36160324     -0.69369789
           -0.03769827     -0.00519152      0.00318649      0.83592592     -0.05347609
           -0.05189713     -0.02435801      0.00892032      0.38771788      0.68594978
           -0.03178354      0.00233746      0.01587366      0.13005751      0.20755806
 
            0.00749691      0.01668483
            0.00572981     -0.00851472
           -0.00677855     -0.01412353
            0.60952973      0.12790486
           -0.53005774     -0.12628812
            0.58773499     -0.17421003
           -0.04410103      0.96788024
 
--
 
  THE ORIGINAL CI ARRAYS ARE NOW MIXED AS LINEAR
  COMBINATIONS, GIVEN BY THE EIGENVECTORS.
  A NEW JOBIPH FILE NAMED 'JOBMIX' IS PREPARED.
********************************************************************************
 
++ Mixed CI coefficients:
  The CI coefficients for the MIXED state nr.   1
--------------------------------------------------------------------------------
 CI COEFFICIENTS LARGER THAN  0.50D-01
  Occupation of active orbitals, and spin coupling
  of open shells. (u,d: Spin up or down).
  SGUGA info is (Midvert:IsyUp:UpperWalk/LowerWalk)
        Conf  SGUGA info        Occupation    Coefficient         Weight
           1  ( 1:1:   1/   1)   22222200        0.971055       0.942949
           6  ( 1:1:   6/   1)   22220220       -0.081193       0.006592
           7  ( 1:1:   7/   1)   22222u0d       -0.068737       0.004725
          15  ( 1:1:  15/   1)   22222002       -0.091522       0.008376
          64  ( 2:1:   4/   3)   2u22220d        0.078498       0.006162
          81  ( 2:1:   1/   4)   u22222d0        0.105812       0.011196
         175  ( 3:1:   5/   8)   20222202       -0.091812       0.008429
         191  ( 3:1:   1/  10)   02222220       -0.074982       0.005622
 
  The CI coefficients for the MIXED state nr.   2
--------------------------------------------------------------------------------
 CI COEFFICIENTS LARGER THAN  0.50D-01
  Occupation of active orbitals, and spin coupling
  of open shells. (u,d: Spin up or down).
  SGUGA info is (Midvert:IsyUp:UpperWalk/LowerWalk)
        Conf  SGUGA info        Occupation    Coefficient         Weight
          21  ( 2:1:   1/   1)   222u22d0       -0.097481       0.009503
          24  ( 2:1:   4/   1)   222u220d       -0.957731       0.917249
          32  ( 2:1:  12/   1)   222u022d        0.076523       0.005856
          33  ( 2:1:  13/   1)   222u2d02       -0.093292       0.008703
         125  ( 3:1:   5/   3)   2u2d2202        0.183378       0.033627
         213  ( 4:1:   1/   3)   u22u22dd        0.083089       0.006904
         269  ( 5:1:   1/   9)   022u222d       -0.075485       0.005698
 
  The CI coefficients for the MIXED state nr.   3
--------------------------------------------------------------------------------
 CI COEFFICIENTS LARGER THAN  0.50D-01
  Occupation of active orbitals, and spin coupling
  of open shells. (u,d: Spin up or down).
  SGUGA info is (Midvert:IsyUp:UpperWalk/LowerWalk)
        Conf  SGUGA info        Occupation    Coefficient         Weight
           2  ( 1:1:   2/   1)   22222ud0        0.225212       0.050720
           3  ( 1:1:   3/   1)   2222u2d0       -0.064907       0.004213
          21  ( 2:1:   1/   1)   222u22d0        0.088898       0.007903
          41  ( 2:1:   1/   2)   22u222d0        0.921777       0.849673
          43  ( 2:1:   3/   2)   22u2d220        0.153804       0.023656
          45  ( 2:1:   5/   2)   22u22dud       -0.063104       0.003982
          47  ( 2:1:   7/   2)   22u22udd        0.111995       0.012543
          55  ( 2:1:  15/   2)   22u220d2        0.078111       0.006101
         161  ( 3:1:   1/   7)   u2d22220       -0.114618       0.013137
         219  ( 4:1:   1/   4)   2uu222dd        0.065106       0.004239
         222  ( 4:1:   4/   4)   2uu22dd2        0.051935       0.002697
         294  ( 5:1:   2/  15)   20u222d2       -0.095051       0.009035
 
  The CI coefficients for the MIXED state nr.   4
--------------------------------------------------------------------------------
 CI COEFFICIENTS LARGER THAN  0.50D-01
  Occupation of active orbitals, and spin coupling
  of open shells. (u,d: Spin up or down).
  SGUGA info is (Midvert:IsyUp:UpperWalk/LowerWalk)
        Conf  SGUGA info        Occupation    Coefficient         Weight
           2  ( 1:1:   2/   1)   22222ud0       -0.067328       0.004533
           3  ( 1:1:   3/   1)   2222u2d0       -0.692286       0.479260
           7  ( 1:1:   7/   1)   22222u0d       -0.620980       0.385616
          12  ( 1:1:  12/   1)   2222uudd       -0.073066       0.005339
          15  ( 1:1:  15/   1)   22222002        0.122250       0.014945
          18  ( 1:1:  18/   1)   2222u0d2       -0.056846       0.003231
          21  ( 2:1:   1/   1)   222u22d0       -0.051322       0.002634
          68  ( 2:1:   8/   3)   2u22u2dd       -0.053438       0.002856
          73  ( 2:1:  13/   3)   2u222d02        0.161681       0.026141
          81  ( 2:1:   1/   4)   u22222d0       -0.080115       0.006418
          83  ( 2:1:   3/   4)   u222d220        0.164623       0.027101
          87  ( 2:1:   7/   4)   u2222udd        0.064474       0.004157
         175  ( 3:1:   5/   8)   20222202       -0.073509       0.005404
         177  ( 3:1:   7/   8)   2022u2d2        0.071879       0.005167
         193  ( 3:1:   3/  10)   02222u2d       -0.052737       0.002781
 
  The CI coefficients for the MIXED state nr.   5
--------------------------------------------------------------------------------
 CI COEFFICIENTS LARGER THAN  0.50D-01
  Occupation of active orbitals, and spin coupling
  of open shells. (u,d: Spin up or down).
  SGUGA info is (Midvert:IsyUp:UpperWalk/LowerWalk)
        Conf  SGUGA info        Occupation    Coefficient         Weight
           2  ( 1:1:   2/   1)   22222ud0       -0.257987       0.066557
           3  ( 1:1:   3/   1)   2222u2d0        0.625346       0.391058
           7  ( 1:1:   7/   1)   22222u0d       -0.641250       0.411201
          12  ( 1:1:  12/   1)   2222uudd        0.058086       0.003374
          14  ( 1:1:  14/   1)   22220u2d       -0.057266       0.003279
          15  ( 1:1:  15/   1)   22222002        0.127894       0.016357
          18  ( 1:1:  18/   1)   2222u0d2        0.058916       0.003471
          41  ( 2:1:   1/   2)   22u222d0        0.104864       0.010997
          73  ( 2:1:  13/   3)   2u222d02        0.168256       0.028310
          83  ( 2:1:   3/   4)   u222d220       -0.162167       0.026298
          87  ( 2:1:   7/   4)   u2222udd        0.061385       0.003768
         175  ( 3:1:   5/   8)   20222202       -0.078284       0.006128
         177  ( 3:1:   7/   8)   2022u2d2       -0.059885       0.003586
 
  The CI coefficients for the MIXED state nr.   6
--------------------------------------------------------------------------------
 CI COEFFICIENTS LARGER THAN  0.50D-01
  Occupation of active orbitals, and spin coupling
  of open shells. (u,d: Spin up or down).
  SGUGA info is (Midvert:IsyUp:UpperWalk/LowerWalk)
        Conf  SGUGA info        Occupation    Coefficient         Weight
           2  ( 1:1:   2/   1)   22222ud0        0.842000       0.708964
           3  ( 1:1:   3/   1)   2222u2d0        0.150847       0.022755
           7  ( 1:1:   7/   1)   22222u0d       -0.216360       0.046812
          21  ( 2:1:   1/   1)   222u22d0       -0.305118       0.093097
          25  ( 2:1:   5/   1)   222u2dud       -0.065788       0.004328
          27  ( 2:1:   7/   1)   222u2udd        0.097822       0.009569
          41  ( 2:1:   1/   2)   22u222d0       -0.160356       0.025714
          65  ( 2:1:   5/   3)   2u222dud       -0.134099       0.017982
          67  ( 2:1:   7/   3)   2u222udd        0.189955       0.036083
          73  ( 2:1:  13/   3)   2u222d02        0.057123       0.003263
         176  ( 3:1:   6/   8)   20222ud2       -0.122777       0.015074
 
  The CI coefficients for the MIXED state nr.   7
--------------------------------------------------------------------------------
 CI COEFFICIENTS LARGER THAN  0.50D-01
  Occupation of active orbitals, and spin coupling
  of open shells. (u,d: Spin up or down).
  SGUGA info is (Midvert:IsyUp:UpperWalk/LowerWalk)
        Conf  SGUGA info        Occupation    Coefficient         Weight
           2  ( 1:1:   2/   1)   22222ud0        0.280323       0.078581
           7  ( 1:1:   7/   1)   22222u0d       -0.097152       0.009438
          21  ( 2:1:   1/   1)   222u22d0        0.840414       0.706295
          24  ( 2:1:   4/   1)   222u220d       -0.085500       0.007310
          25  ( 2:1:   5/   1)   222u2dud        0.211789       0.044854
          27  ( 2:1:   7/   1)   222u2udd       -0.302021       0.091216
          41  ( 2:1:   1/   2)   22u222d0       -0.151732       0.023023
          67  ( 2:1:   7/   3)   2u222udd        0.062358       0.003889
         201  ( 4:1:   1/   1)   22uu22dd        0.052899       0.002798
         210  ( 4:1:   4/   2)   2u2u2dd2       -0.075121       0.005643
         262  ( 5:1:   2/   7)   202u22d2       -0.078202       0.006116
 
--
 
--- Stop Module: caspt2 at Wed Nov 13 20:26:48 2024 /rc=_RC_ALL_IS_WELL_ ---
*** files: xmldump
    saved to directory /home/pcaah4
--- Module caspt2 spent 6 minutes 52 seconds ---

.##################.
.# Happy landing! #.
.##################.

    Timing: Wall=667.54 User=577.01 System=75.57
******************************************************
*** WorkDir at /srv/COMMUNAL_SCRATCH/10391 cleaned ***
******************************************************
