   This run of MOLCAS is using the pymolcas driver

                             OPE
                             OPE          NMOL  CASOP  ENMOLC A   SO
                 OPE        NMOLC        AS  OP EN  MO LC     AS  OP
                OPENM       OL CA        SO  PE NM  OL CA     SOP EN
                OP EN      MO   LC       AS  OP ENMOL  CASO   PENMOL
                OP  EN     MO   LC       AS  OP EN     MO     LC ASO
               OP   E  NMOL  C  AS       OP  EN MO     LC     AS  OP
               OP  E   NMO   LC AS        OPEN  MO     LCASOP EN   M
               O  PEN   MO  LCA  SO
            OPE   NMO   L   CAS    OP
        OPENMOL  CASOP     ENMOL   CASOPE
     OPENMOLCA   SOPENMOLCASOPEN   MOLCASOPE
    OPENMOLCAS   OP           EN   MOL    CAS
    OPENMOLCAS       OP  ENM        O     LCA
    OPENMOLCAS    OPEN  MOLCASO     P  E  NMO
    OPENMOLCAS     OP               E  N  MOL
    OPENMOLCA   SO           PENM   O  L  CAS    OPEN    MO    LCAS
    OPENMOLCA   SOP           ENM   O  L  CAS   OP  EN  MOLC  AS   O
    OPENMOLCA   SOPE           NM      O  LCA   S      OP  EN MO
    OPENMOLC                AS         O  PEN   M      OL  CA  SOPE
    OPENMO        LCASOPE  NMOL        C  ASO   P      ENMOLC     AS
    OPE     NMO      LCA  SO     P     E   NM   OL  CA SO  PE N   MO
          OPENMOLCA            SOPE   NMO        LCAS  O    P  ENMO
     OPENMOLCASOPENMOLCASOPENMOLCASOPENMOLCA
        OPENMOLCASOPENMOLCASOPENMOLCASOPE
            OPENMOLCASOPENMOLCASOPENM
               OPENMOLCASOPENMOLCA        version: v23.06
                   OPENMOLCASO
                       OPE                tag:

 OpenMolcas is free software; you can redistribute it and/or modify it
 under the terms of the GNU Lesser General Public License version 2.1.
 OpenMolcas is distributed in the hope that it will be useful, but it
 is provided "as is" and without any express or implied warranties.
 For more details see the full text of the license in the file
 LICENSE or in <http://www.gnu.org/licenses/>.

                 Copyright (C) The OpenMolcas Authors
           For the author list and the recommended citation,
                   consult the file CONTRIBUTORS.md

           *************************************************
           * pymolcas version py2.24                       *
           *   build 4567b286dd94b1984b333a4ddf893180      *
           *   (after the EMIL interpreter by V. Veryazov) *
           *************************************************

configuration info
------------------
Host name: loginchem01.nottingham.ac.uk (Linux)
C Compiler ID: Intel
C flags: -std=gnu99 -gcc-sys -qopenmp
Fortran Compiler ID: Intel
Fortran flags: -fpp -i8 -heap-arrays -qopenmp
Definitions: _MOLCAS_;_I8_;_LINUX_
Parallel: OFF (GA=OFF)


   ------------------------------------------------------------------------------------------------------------
  |
  |              Project: orca_geometry_optimisation_240_180_BP86_def2-SVP_def2J_scf_cas1_ras12i11_cas2_ras12i8
  |       Submitted from: /home/pcaah4
  |         Scratch area: /srv/COMMUNAL_SCRATCH/10398
  |      Save outputs to: /home/pcaah4
  |               Molcas: /software/chemistry/openmolcas/openmolcas-23.06-openmp
  |
  | Scratch area is empty
  |
  |       MOLCAS_DRIVER = /software/chemistry/openmolcas/openmolcas-23.06-openmp/sbin/pymolcas
  | MOLCAS_KEEP_WORKDIR = NO
  |       MOLCAS_NPROCS = 1
  |       MOLCAS_SOURCE = /software/chemistry/openmolcas/openmolcas-23.06-openmp
  |    MOLCAS_STRUCTURE = 0
  |
   ------------------------------------------------------------------------------------------------------------

++ ---------   Input file   ---------

&SEWARD
TITLE
orca_geometry_optimisation_240_180_BP86_def2-SVP_def2J_scf_cas1_ras12i11
MULTIPOLES
2
SDIPOLE
ANGMOM
0 0 0
BASIS SET
C.ANO-S...4S3P1D.
C1            0.033148   -0.021163    0.108709 /Angstrom
C3            2.087591    1.307544   -0.007644 /Angstrom
C4            3.051210    1.226307   -1.206410 /Angstrom
C6            4.705808    2.497553   -2.540915 /Angstrom
C19          -0.542607   -1.430336    0.044541 /Angstrom
END OF BASIS
BASIS SET
N.ANO-S...4S3P1D.
N2            1.412814    0.045608    0.181982 /Angstrom
N5            3.739020    2.381623   -1.464241 /Angstrom
END OF BASIS
BASIS SET
O.ANO-S...4S3P1D.
O7           -0.680778    0.980224    0.135999 /Angstrom
O8            3.218301    0.176933   -1.830216 /Angstrom
END OF BASIS
BASIS SET
H.ANO-S...2S1P.
H9           -1.191666   -1.590719    0.928521 /Angstrom
H10          -1.191526   -1.507567   -0.850246 /Angstrom
H11           0.223927   -2.228860    0.010980 /Angstrom
H12           1.946969   -0.765036   -0.149265 /Angstrom
H13           1.301020    2.079200   -0.163568 /Angstrom
H14           2.666308    1.608851    0.897006 /Angstrom
H15           3.506114    3.214542   -0.920607 /Angstrom
H16           4.370874    3.211626   -3.323725 /Angstrom
H17           5.697376    2.826804   -2.164162 /Angstrom
H18           4.809903    1.495256   -2.997337 /Angstrom
END OF BASIS
END OF INPUT

&RASSCF
TITLE
orca_geometry_optimisation_240_180_BP86_def2-SVP_def2J_scf_cas1_ras12i11
LUMORB
SPIN
1
SYMMETRY
1
NACTEL
12  0  0
INACTIVE
29
DELETED  ! delete Rydberg orbitals from an initial CAS(12,11) if done
3
FROZEN
0
RAS2
8
ITERATIONS
64 25
CIROOT
7 7
1 2 3 4 5 6 7
1 1 1 1 1 1 1
LEVSHFT
0.3
CIMX
20
FILEorb = /home/pcaah4/outputs/cas1_ras12i11_rasorb_files/orca_geometry_optimisation_240_180_BP86_def2-SVP_def2J_scf_cas1_ras12i11.RasOrb
ALTEr
3
 1 38 210
 1 39 211
 1 40 212
END OF INPUT

&RASSI
NROF JOBIPH
    1 7
    1 2 3 5 4 6 7
TOFILE
TRDI
TDMN
1.0D-6
END OF INPUT

&CASPT2
TITLE
orca_geometry_optimisation_240_180_BP86_def2-SVP_def2J_scf_cas1_ras12i11
MULTISTATE
7 1 2 3 4 5 6 7
SHIFT
0.35
MAXITER
50
END OF INPUT

-- ----------------------------------

--- Start Module: seward at Wed Nov 13 20:30:33 2024 ---
 
()()()()()()()()()()()()()()()()()()()()()()()()()()()()()()()()()()()()()()()()()()()()()()()()()()

                                              &SEWARD

                                   only a single process is used
                       available to each process: 2.0 GB of memory, 1 thread
                                            pid: 1795611
()()()()()()()()()()()()()()()()()()()()()()()()()()()()()()()()()()()()()()()()()()()()()()()()()()
 
               SEWARD will generate:
                  Multipole Moment integrals up to order  2
                  Kinetic Energy integrals
                  Nuclear Attraction integrals (point charge)
                  One-Electron Hamiltonian integrals
                  Velocity integrals
                  Orbital angular momentum around ( 0.0000  0.0000  0.0000 )
                  Velocity quadrupole around ( 3.5894  1.5090 -1.4103 )
                  Two-Electron Repulsion integrals
 
 Title:
            orca_geometry_optimisation_240_180_BP86_def2-SVP_def2J_scf_cas1_ras12i11    
 
 
                   Integrals are discarded if absolute value <: 0.10E-13
                   Integral cutoff threshold is set to       <: 0.10E-15
 
++    Symmetry information:
      ---------------------
 
                    Character Table for C1 
 
                             E  
                    a        1  x, y, xy, Rz, z, xz, Ry, yz, Rx, I
--
 
 
++    Basis set information:
      ----------------------
 
 
      Basis set label: C.ANO-S...4S3P1D......
 
      Electronic valence basis set:
      ------------------
      Associated Effective Charge   6.000000 au
      Associated Actual Charge      6.000000 au
      Nuclear Model: Point charge
 
      Shell  nPrim  nBasis  Cartesian Spherical Contaminant
         s      10       4        X                  
         p       6       3        X                  
         d       3       1                 X         
 
 
      Basis set label: N.ANO-S...4S3P1D......
 
      Electronic valence basis set:
      ------------------
      Associated Effective Charge   7.000000 au
      Associated Actual Charge      7.000000 au
      Nuclear Model: Point charge
 
      Shell  nPrim  nBasis  Cartesian Spherical Contaminant
         s      10       4        X                  
         p       6       3        X                  
         d       3       1                 X         
 
 
      Basis set label: O.ANO-S...4S3P1D......
 
      Electronic valence basis set:
      ------------------
      Associated Effective Charge   8.000000 au
      Associated Actual Charge      8.000000 au
      Nuclear Model: Point charge
 
      Shell  nPrim  nBasis  Cartesian Spherical Contaminant
         s      10       4        X                  
         p       6       3        X                  
         d       3       1                 X         
 
 
      Basis set label: H.ANO-S...2S1P......
 
      Electronic valence basis set:
      ------------------
      Associated Effective Charge   1.000000 au
      Associated Actual Charge      1.000000 au
      Nuclear Model: Point charge
 
      Shell  nPrim  nBasis  Cartesian Spherical Contaminant
         s       7       2        X                  
         p       3       1        X                  
--
 
 
++    Molecular structure info:
      -------------------------
 
                    ************************************************ 
                    **** Cartesian Coordinates / Bohr, Angstrom **** 
                    ************************************************ 
 
     Center  Label                x              y              z                     x              y              z
        1      C1               0.062641      -0.039992       0.205430              0.033148      -0.021163       0.108709
        2      C3               3.944975       2.470900      -0.014445              2.087591       1.307544      -0.007644
        3      C4               5.765951       2.317384      -2.279784              3.051210       1.226307      -1.206410
        4      C6               8.892688       4.719691      -4.801633              4.705808       2.497553      -2.540915
        5      C19             -1.025379      -2.702943       0.084170             -0.542607      -1.430336       0.044541
        6      N2               2.669832       0.086187       0.343896              1.412814       0.045608       0.181982
        7      N5               7.065724       4.500615      -2.767014              3.739020       2.381623      -1.464241
        8      O7              -1.286484       1.852355       0.257001             -0.680778       0.980224       0.135999
        9      O8               6.081707       0.334355      -3.458607              3.218301       0.176933      -1.830216
       10      H9              -2.251922      -3.006023       1.754650             -1.191666      -1.590719       0.928521
       11      H10             -2.251658      -2.848889      -1.606732             -1.191526      -1.507567      -0.850246
       12      H11              0.423161      -4.211935       0.020749              0.223927      -2.228860       0.010980
       13      H12              3.679238      -1.445709      -0.282070              1.946969      -0.765036      -0.149265
       14      H13              2.458571       3.929119      -0.309099              1.301020       2.079200      -0.163568
       15      H14              5.038592       3.040288       1.695096              2.666308       1.608851       0.897006
       16      H15              6.625595       6.074604      -1.739695              3.506114       3.214542      -0.920607
       17      H16              8.259755       6.069094      -6.280930              4.370874       3.211626      -3.323725
       18      H17             10.766480       5.341885      -4.089673              5.697376       2.826804      -2.164162
       19      H18              9.089399       2.825624      -5.664146              4.809903       1.495256      -2.997337
 
                    ************************************************* 
                    **** InterNuclear Distances / Bohr, Angstrom **** 
                    ************************************************* 
 
     Atom centers         Bohr        Angstrom
   16 H15       7 N5      1.930425        1.021537
   13 H12       6 N2      1.938411        1.025763
   19 H18       4 C6      2.090481        1.106235
   12 H11       5 C19     2.092688        1.107403
   11 H10       5 C19     2.093851        1.108018
   10 H9        5 C19     2.094462        1.108342
   18 H17       4 C6      2.098835        1.110656
   17 H16       4 C6      2.099955        1.111248
   14 H13       2 C3      2.103002        1.112861
   15 H14       2 C3      2.107778        1.115388
    8 O7        1 C1      2.324602        1.230126
    9 O8        3 C4      2.328461        1.232168
    7 N5        3 C4      2.587141        1.369056
    6 N2        1 C1      2.613912        1.383223
    6 N2        2 C3      2.727867        1.443525
    7 N5        4 C6      2.743259        1.451670
    5 C19       1 C1      2.879201        1.523608
    3 C4        2 C3      2.910547        1.540195
   11 H10      10 H9      3.365053        1.780709
   15 H14      14 H13     3.385753        1.791663
   19 H18      17 H16     3.404236        1.801444
   18 H17      17 H16     3.407948        1.803408
   12 H11      10 H9      3.408329        1.803610
   19 H18      18 H17     3.409272        1.804109
   12 H11      11 H10     3.414856        1.807064
   16 H15       3 C4      3.891964        2.059539
   14 H13       6 N2      3.903737        2.065768
   13 H12       1 C1      3.910687        2.069446
   19 H18       7 N5      3.910784        2.069498
   13 H12       2 C3      3.934725        2.082167
   18 H17       7 N5      4.019050        2.126790
   15 H14       6 N2      4.020383        2.127495
   17 H16       7 N5      4.029074        2.132094
   16 H15       4 C6      4.043633        2.139798
   11 H10       1 C1      4.065687        2.151469
   10 H9        1 C1      4.068737        2.153083
   15 H14       3 C4      4.105035        2.172291
   14 H13       3 C4      4.173733        2.208645
   12 H11       1 C1      4.191561        2.218079
   13 H12      12 H11     4.283194        2.266569
   14 H13       8 O7      4.319590        2.285829
    8 O7        6 N2      4.333513        2.293196
    9 O8        7 N5      4.336394        2.294721
   13 H12       9 O8      4.362439        2.308503
   19 H18       9 O8      4.485202        2.373467
    8 O7        5 C19     4.566047        2.416248
    9 O8        2 C3      4.581779        2.424573
    2 C3        1 C1      4.628763        2.449436
    7 N5        2 C3      4.629844        2.450008
    6 N2        3 C4      4.631188        2.450719
    6 N2        5 C19     4.636947        2.453767
   14 H13       1 C1      4.664661        2.468432
    4 C6        3 C4      4.680522        2.476825
   13 H12       3 C4      4.744060        2.510448
   19 H18       3 C4      4.770484        2.524431
   16 H15       2 C3      4.811330        2.546046
   18 H17      16 H15     4.817282        2.549196
   17 H16      16 H15     4.826316        2.553976
   16 H15      15 H14     4.850097        2.566561
   12 H11       6 N2      4.860638        2.572139
   13 H12       5 C19     4.883461        2.584216
   16 H15      14 H13     4.900388        2.593174
   15 H14      13 H12     5.087356        2.692113
   15 H14       7 N5      5.113927        2.706173
    9 O8        6 N2      5.114833        2.706653
   11 H10       8 O7      5.148471        2.724453
   10 H9        8 O7      5.174830        2.738402
   14 H13       7 N5      5.252981        2.779758
    8 O7        2 C3      5.274888        2.791351
    9 O8        4 C6      5.379266        2.846585
   14 H13      13 H12     5.511762        2.916699
   19 H18      16 H15     5.659286        2.994765
--
 
 
            Nuclear Potential Energy            449.48257359 au
 
 
      Basis set specifications :
      Symmetry species         a  
      Basis functions          212
 
 
      Input file to MOLDEN was generated!
 
--- Stop Module: seward at Wed Nov 13 20:32:21 2024 /rc=_RC_ALL_IS_WELL_ ---
*** files: orca_geometry_optimisation_240_180_BP86_def2-SVP_def2J_scf_cas1_ras12i11_cas2_ras12i8.GssOrb
           orca_geometry_optimisation_240_180_BP86_def2-SVP_def2J_scf_cas1_ras12i11_cas2_ras12i8.guessorb.molden xmldump
    saved to directory /home/pcaah4
--- Module seward spent 1 minute 47 seconds ---

*** symbolic link created: INPORB -> orca_geometry_optimisation_240_180_BP86_def2-SVP_def2J_scf_cas1_ras12i11_cas2_ras12i8.GssOrb
--- Start Module: rasscf at Wed Nov 13 20:32:22 2024 ---
 
()()()()()()()()()()()()()()()()()()()()()()()()()()()()()()()()()()()()()()()()()()()()()()()()()()

                                              &RASSCF

                                   only a single process is used
                       available to each process: 2.0 GB of memory, 1 thread
                                            pid: 1795928
()()()()()()()()()()()()()()()()()()()()()()()()()()()()()()()()()()()()()()()()()()()()()()()()()()
 
 
      Header of the ONEINT file:
      --------------------------
      orca_geometry_optimisation_240_180_BP86_def2-SVP_def2J_scf_cas1_ras12i11
      Integrals generated by Gateway/Seward, Wed Nov 13 20:30:34 2024
 
 
      OrdInt status: non-squared
 
 
      Cartesian coordinates in Angstrom:
      -----------------------------------------------------
      No.  Label        X            Y            Z        
      -----------------------------------------------------
       1   C1         0.03314800  -0.02116300   0.10870900
       2   C3         2.08759100   1.30754400  -0.00764400
       3   C4         3.05121000   1.22630700  -1.20641000
       4   C6         4.70580800   2.49755300  -2.54091500
       5   C19       -0.54260700  -1.43033600   0.04454100
       6   N2         1.41281400   0.04560800   0.18198200
       7   N5         3.73902000   2.38162300  -1.46424100
       8   O7        -0.68077800   0.98022400   0.13599900
       9   O8         3.21830100   0.17693300  -1.83021600
      10   H9        -1.19166600  -1.59071900   0.92852100
      11   H10       -1.19152600  -1.50756700  -0.85024600
      12   H11        0.22392700  -2.22886000   0.01098000
      13   H12        1.94696900  -0.76503600  -0.14926500
      14   H13        1.30102000   2.07920000  -0.16356800
      15   H14        2.66630800   1.60885100   0.89700600
      16   H15        3.50611400   3.21454200  -0.92060700
      17   H16        4.37087400   3.21162600  -3.32372500
      18   H17        5.69737600   2.82680400  -2.16416200
      19   H18        4.80990300   1.49525600  -2.99733700
      -----------------------------------------------------
      Nuclear repulsion energy =  449.48257359
 
++    Wave function specifications:
      -----------------------------
 
      Number of closed shell electrons          58
      Number of electrons in active shells      12
      Max number of holes in RAS1 space          0
      Max nr of electrons in RAS3 space          0
      Number of inactive orbitals               29
      Number of active orbitals                  8
      Number of secondary orbitals             172
      Spin quantum number                      0.0
      State symmetry                             1
--
 
++    Orbital specifications:
      -----------------------
 
      Symmetry species                           1
                                                 a
      Frozen orbitals                            0
      Inactive orbitals                         29
      Active orbitals                            8
      RAS1 orbitals                              0
      RAS2 orbitals                              8
      RAS3 orbitals                              0
      Secondary orbitals                       172
      Deleted orbitals                           3
      Number of basis functions                212
--
 
++    CI expansion specifications:
      ----------------------------
 
      Number of CSFs                           336
      Number of determinants                   406
      Number of root(s) required                 7
      Root chosen for geometry opt.              7
      CI roots used                              1     2     3     4     5     6     7
      weights                                0.143 0.143 0.143 0.143 0.143 0.143 0.143
      highest root included in the CI            7
      max. size of the explicit Hamiltonian    200
--
 
++    Optimization specifications:
      ----------------------------
 
      RASSCF algorithm: Conventional
      Maximum number of macro iterations        64
      Maximum number of SX iterations           25
      Threshold for RASSCF energy            0.100E-07
      Threshold for max MO rotation          0.100E+00
      Threshold for max BLB element          0.100E-03
      Level shift parameter                  0.300E+00
      Make Quasi-Newton update
--
 
      The MO-coefficients are taken from the file:
      /home/pcaah4/outputs/cas1_ras12i11_rasorb_files/orca_geometry_optimisation_240_180_BP86_def2-SVP_def2J_scf_cas1_ras12i11.RasOrb                                                                                                                                 
      Title: RASSCF average (pseudo-natural) orbitals                                      
 
      Total molecular charge    0.00
 
      Molecular orbitals exchanged:
        In symmetry  1 :  38 210
        In symmetry  1 :  39 211
        In symmetry  1 :  40 212
 
 
      ************************************************************************************************************************
      *                                                                                                                      *
      *                                            Wave function control section                                             *
      *                                                                                                                      *
      ************************************************************************************************************************
 
 
                                         RASSCF iterations: Energy and convergence statistics
                                         ----------------------------------------------------
 
      Iter CI   SX   CI       RASSCF       Energy    max ROT     max BLB   max BLB  Level Ln srch  Step   QN   Walltime
          iter iter root      energy       change     param      element    value   shift minimum  type update hh:mm:ss
 Nr of preliminary CI iterations:   4
        1   1   25    0  -453.70381398    0.00E+00   0.64E-01   32 159 1 -0.19E-01*  0.20   0.00    SX    NO    0:00:13
        2   3    9    0  -453.70629150   -0.25E-02* -0.36E-01   11  40 1  0.25E-02*  0.20   0.00    SX    NO    0:00:06
        3   3    9    0  -453.70664667   -0.36E-03*  0.21E-01   23  36 1  0.87E-03*  0.20   0.00    SX    NO    0:00:06
        4   6    8    0  -453.70676138   -0.11E-03* -0.13E-01   23  36 1  0.56E-03*  0.20   0.00    SX    NO    0:00:06
        5   4    8    0  -453.70679662   -0.35E-04*  0.22E-01   23  36 1  0.36E-03*  0.20   1.88    QN   YES    0:00:06
        6   6    7    0  -453.70681870   -0.22E-04*  0.94E-03   24  83 1 -0.19E-03*  0.20   0.90    QN   YES    0:00:06
        7   3    7    0  -453.70681971   -0.10E-05*  0.52E-03   21  97 1 -0.13E-03*  0.20   0.87    QN   YES    0:00:06
        8   5    6    0  -453.70682018   -0.47E-06*  0.31E-03   36  41 1  0.44E-04   0.20   1.59    LS   YES    0:00:06
        9   3    6    0  -453.70682026   -0.73E-07*  0.24E-03    2  40 1 -0.42E-04   0.20   0.94    QN   YES    0:00:06
       10   3    5    0  -453.70682033   -0.76E-07*  0.26E-03   36  41 1  0.21E-04   0.20   1.32    QN   YES    0:00:06
       11   3    5    0  -453.70682036   -0.24E-07* -0.17E-03   36  41 1  0.10E-04   0.20   1.39    QN   YES    0:00:06
       12   1    5    0  -453.70682036   -0.76E-08  -0.40E-04   11  40 1 -0.56E-05   0.20   1.11    QN   YES    0:00:06
      Convergence after 12 iterations
       13   1    5    0  -453.70682036   -0.13E-08  -0.40E-04   36  50 1  0.14E-05   0.20   1.11    QN   YES    0:00:06
 
      ************************************************************************************************************************
                                                      Wave function printout:
                       occupation of active orbitals, and spin coupling of open shells (u,d: Spin up or down)
      ************************************************************************************************************************
 
      Note: transformation to natural orbitals
      has been made, which may change the order of the CSFs.
 
      printout of CI-coefficients larger than  0.05 for root  1
      energy=    -453.959534
      conf/sym  11111111     Coeff  Weight
             1  22222200  -0.96467 0.93059
             6  22220220   0.07974 0.00636
             7  22222u0d  -0.12285 0.01509
            15  22222002   0.07851 0.00616
            61  2u2222d0  -0.09728 0.00946
            63  2u22d220   0.05088 0.00259
            84  u222220d  -0.07878 0.00621
            93  u2222d02   0.06773 0.00459
           171  20222220   0.08109 0.00657
           195  02222202   0.10214 0.01043
 
      printout of CI-coefficients larger than  0.05 for root  2
      energy=    -453.748908
      conf/sym  11111111     Coeff  Weight
             7  22222u0d   0.05393 0.00291
            24  222u220d  -0.96027 0.92211
            32  222u022d   0.07921 0.00627
            33  222u2d02   0.10095 0.01019
           135  u22d2202   0.18991 0.03607
           207  2u2u22dd   0.08414 0.00708
           261  202u222d  -0.08174 0.00668
 
      printout of CI-coefficients larger than  0.05 for root  3
      energy=    -453.732514
      conf/sym  11111111     Coeff  Weight
            21  222u22d0  -0.06978 0.00487
            41  22u222d0   0.94792 0.89856
            43  22u2d220  -0.16582 0.02750
            45  22u22dud   0.06338 0.00402
            47  22u22udd  -0.11296 0.01276
            55  22u220d2   0.07742 0.00599
           151  2ud22220  -0.13731 0.01885
           225  u2u222dd   0.07201 0.00519
           228  u2u22dd2  -0.05986 0.00358
           302  02u222d2  -0.10180 0.01036
 
      printout of CI-coefficients larger than  0.05 for root  4
      energy=    -453.644478
      conf/sym  11111111     Coeff  Weight
             2  22222ud0  -0.48796 0.23810
             3  2222u2d0  -0.78531 0.61672
             6  22220220  -0.05550 0.00308
             7  22222u0d  -0.18094 0.03274
            12  2222uudd   0.08150 0.00664
            18  2222u0d2  -0.06807 0.00463
            21  222u22d0   0.08054 0.00649
            61  2u2222d0   0.07731 0.00598
            63  2u22d220   0.18202 0.03313
            85  u2222dud   0.06407 0.00411
            87  u2222udd  -0.09539 0.00910
            88  u222u2dd  -0.05757 0.00331
           171  20222220   0.05412 0.00293
           196  02222ud2   0.06897 0.00476
           197  0222u2d2   0.08165 0.00667
 
      printout of CI-coefficients larger than  0.05 for root  5
      energy=    -453.631970
      conf/sym  11111111     Coeff  Weight
             2  22222ud0  -0.81144 0.65843
             3  2222u2d0   0.49022 0.24032
            63  2u22d220  -0.11454 0.01312
            85  u2222dud   0.12833 0.01647
            87  u2222udd  -0.17858 0.03189
           196  02222ud2   0.12039 0.01449
           197  0222u2d2  -0.05211 0.00272
 
      printout of CI-coefficients larger than  0.05 for root  6
      energy=    -453.625919
      conf/sym  11111111     Coeff  Weight
             1  22222200  -0.10745 0.01155
             2  22222ud0  -0.08406 0.00707
             3  2222u2d0  -0.19397 0.03763
             7  22222u0d   0.82224 0.67607
            14  22220u2d   0.07130 0.00508
            15  22222002   0.15318 0.02346
            21  222u22d0  -0.36013 0.12969
            24  222u220d   0.05253 0.00276
            25  222u2dud   0.08779 0.00771
            27  222u2udd  -0.12726 0.01620
            63  2u22d220   0.05065 0.00257
            65  2u222dud   0.05059 0.00256
            67  2u222udd  -0.08249 0.00680
            93  u2222d02  -0.20951 0.04389
           173  20222u2d   0.06622 0.00439
           195  02222202  -0.09543 0.00911
 
      printout of CI-coefficients larger than  0.05 for root  7
      energy=    -453.604419
      conf/sym  11111111     Coeff  Weight
             2  22222ud0  -0.05159 0.00266
             7  22222u0d  -0.37216 0.13851
            15  22222002  -0.08740 0.00764
            21  222u22d0  -0.83291 0.69374
            25  222u2dud   0.19377 0.03755
            27  222u2udd  -0.27670 0.07657
            41  22u222d0  -0.05263 0.00277
            93  u2222d02   0.08941 0.00799
           216  u22u2dd2  -0.06562 0.00431
           270  022u22d2   0.07617 0.00580
 
      Natural orbitals and occupation numbers for root  1
      sym 1:   1.996217   1.970013   1.999843   1.999693   1.995456   1.954315   0.034785   0.049678
 
      Natural orbitals and occupation numbers for root  2
      sym 1:   1.999960   1.968881   1.999702   1.004283   1.995777   1.999879   0.035547   0.995972
 
      Natural orbitals and occupation numbers for root  3
      sym 1:   1.995946   1.999943   1.001529   1.999306   1.999670   1.952068   0.999542   0.051997
 
      Natural orbitals and occupation numbers for root  4
      sym 1:   1.966829   1.976646   1.999682   1.998561   1.099804   1.926379   0.939270   0.092829
 
      Natural orbitals and occupation numbers for root  5
      sym 1:   1.914569   1.989975   1.999802   1.999095   1.976647   1.038059   0.993540   0.088314
 
      Natural orbitals and occupation numbers for root  6
      sym 1:   1.957788   1.976942   1.999722   1.843482   1.988605   1.165233   0.193089   0.875139
 
      Natural orbitals and occupation numbers for root  7
      sym 1:   1.976849   1.997062   1.999429   1.312671   1.990982   1.784750   0.700995   0.237261
 
      ************************************************************************************************************************
      *                                                                                                                      *
      *                                                    Final results                                                     *
      *                                                                                                                      *
      ************************************************************************************************************************
 
 
++    Wave function specifications:
      -----------------------------
 
      Number of closed shell electrons          58
      Number of electrons in active shells      12
      Max number of holes in RAS1 space          0
      Max nr of electrons in RAS3 space          0
      Number of inactive orbitals               29
      Number of active orbitals                  8
      Number of secondary orbitals             172
      Spin quantum number                      0.0
      State symmetry                             1
--
 
++    Orbital specifications:
      -----------------------
 
      Symmetry species                           1
                                                 a
      Frozen orbitals                            0
      Inactive orbitals                         29
      Active orbitals                            8
      RAS1 orbitals                              0
      RAS2 orbitals                              8
      RAS3 orbitals                              0
      Secondary orbitals                       172
      Deleted orbitals                           3
      Number of basis functions                212
--
 
++    CI expansion specifications:
      ----------------------------
 
      Number of CSFs                           336
      Number of determinants                   406
      Number of root(s) required                 7
      CI roots used                              1     2     3     4     5     6     7
      weights                                0.143 0.143 0.143 0.143 0.143 0.143 0.143
      highest root included in the CI            7
      Root passed to geometry opt.               7
--
 
++    Final optimization conditions:
      ------------------------------
 
      Average CI energy                            -453.70682036
      RASSCF energy for state  7                   -453.60441944
      Super-CI energy                                -0.00000000
      RASSCF energy change                            0.00000000
      Max change in MO coefficients              -0.361E-04
      Max non-diagonal density matrix element    -0.396E-04
      Maximum BLB matrix element                  0.137E-05
      (orbital pair  36,  50 in symmetry   1)
      Norm of electronic gradient            0.292E+00
--
 
 
      Final state energy(ies):
      ------------------------
 
::    RASSCF root number  1 Total energy:   -453.95953404
::    RASSCF root number  2 Total energy:   -453.74890779
::    RASSCF root number  3 Total energy:   -453.73251376
::    RASSCF root number  4 Total energy:   -453.64447800
::    RASSCF root number  5 Total energy:   -453.63197017
::    RASSCF root number  6 Total energy:   -453.62591935
::    RASSCF root number  7 Total energy:   -453.60441944
 
++    Molecular orbitals:
      -------------------
 
      Pseudonatural active orbitals and approximate occupation numbers
 
 
 
 
      Molecular orbitals for symmetry species 1: a  
 
 
      Orbital                 1         2         3         4         5         6         7         8         9        10
      Energy           -20.6041  -20.5214  -15.6348  -15.5840  -11.3404  -11.2868  -11.2858  -11.2626  -11.2556   -1.4250
      Occ. No.           2.0000    2.0000    2.0000    2.0000    2.0000    2.0000    2.0000    2.0000    2.0000    2.0000
 
     1 C1     1s         0.0003   -0.0001    0.0003    0.0000    1.0000    0.0001   -0.0001   -0.0000   -0.0036   -0.0398
     2 C1     2s         0.0008   -0.0005    0.0015    0.0003    0.0025   -0.0007   -0.0001   -0.0001   -0.0002    0.3460
     3 C1     3s        -0.0005   -0.0004    0.0007    0.0002    0.0001   -0.0007   -0.0000   -0.0001   -0.0005   -0.0103
     4 C1     4s        -0.0004   -0.0001    0.0001    0.0001    0.0013   -0.0003    0.0000   -0.0000   -0.0002    0.0019
     5 C1     2px       -0.0015   -0.0004    0.0017    0.0000    0.0011   -0.0003   -0.0005   -0.0001   -0.0002   -0.0520
     6 C1     3px       -0.0010   -0.0006    0.0013   -0.0000    0.0013   -0.0006   -0.0004   -0.0002    0.0003    0.0246
     7 C1     4px        0.0002   -0.0001   -0.0001   -0.0000    0.0004   -0.0003    0.0001   -0.0001    0.0003   -0.0160
     8 C1     2py        0.0028   -0.0001    0.0002   -0.0001    0.0012   -0.0001   -0.0005   -0.0001   -0.0006    0.0939
     9 C1     3py        0.0018   -0.0002    0.0001   -0.0001    0.0010   -0.0007   -0.0005   -0.0002    0.0002   -0.0683
    10 C1     4py       -0.0004   -0.0001   -0.0000   -0.0000    0.0007   -0.0004    0.0000   -0.0001    0.0003    0.0224
    11 C1     2pz        0.0001   -0.0000   -0.0000   -0.0000    0.0003    0.0002    0.0001   -0.0000    0.0000    0.0016
    12 C1     3pz        0.0000    0.0000    0.0001   -0.0001    0.0001    0.0002    0.0001    0.0000    0.0001   -0.0073
    13 C1     4pz       -0.0000    0.0000    0.0000   -0.0001    0.0001   -0.0000    0.0000    0.0000    0.0000    0.0005
    14 C1     3d2-       0.0001   -0.0000    0.0001   -0.0000   -0.0004    0.0000   -0.0000   -0.0000    0.0000   -0.0337
    15 C1     3d1-       0.0000   -0.0000    0.0000   -0.0000    0.0000   -0.0000    0.0000    0.0000   -0.0000    0.0018
    16 C1     3d0       -0.0000    0.0000    0.0001   -0.0000   -0.0004   -0.0000    0.0000   -0.0000    0.0001   -0.0278
    17 C1     3d1+       0.0000   -0.0000   -0.0001    0.0000   -0.0000    0.0000    0.0000   -0.0000   -0.0000   -0.0010
    18 C1     3d2+       0.0001    0.0000   -0.0002    0.0000   -0.0000    0.0000   -0.0000    0.0000   -0.0000   -0.0077
    19 C3     1s         0.0001   -0.0001    0.0005   -0.0001   -0.0001    0.9473   -0.3187    0.0001    0.0000   -0.0091
    20 C3     2s         0.0004   -0.0005    0.0025   -0.0004    0.0007   -0.0011    0.0009    0.0008    0.0004    0.0227
    21 C3     3s         0.0002   -0.0004    0.0012   -0.0002    0.0004   -0.0025    0.0009    0.0005    0.0002   -0.0159
    22 C3     4s         0.0000   -0.0001    0.0002   -0.0001    0.0000    0.0007   -0.0002    0.0000    0.0000   -0.0015
    23 C3     2px        0.0001    0.0001   -0.0003   -0.0003    0.0008   -0.0010   -0.0001    0.0003    0.0005   -0.0263
    24 C3     3px        0.0001   -0.0000   -0.0000   -0.0004    0.0013   -0.0013   -0.0006    0.0002    0.0006   -0.0140
    25 C3     4px        0.0001   -0.0001    0.0001   -0.0002    0.0004   -0.0005   -0.0000   -0.0001    0.0001   -0.0051
    26 C3     2py       -0.0003    0.0006   -0.0008   -0.0003    0.0004   -0.0006   -0.0000    0.0004   -0.0000   -0.0197
    27 C3     3py       -0.0002    0.0004   -0.0002   -0.0003    0.0006   -0.0006   -0.0001    0.0005    0.0001   -0.0026
    28 C3     4py        0.0000   -0.0001    0.0002   -0.0000    0.0001   -0.0008    0.0002    0.0001    0.0001   -0.0038
    29 C3     2pz        0.0004   -0.0001   -0.0003    0.0000   -0.0003    0.0007   -0.0003   -0.0003    0.0002   -0.0060
    30 C3     3pz        0.0004   -0.0000   -0.0003    0.0002   -0.0005    0.0006    0.0002   -0.0001    0.0002   -0.0044
    31 C3     4pz        0.0000    0.0001    0.0000    0.0002   -0.0001    0.0000    0.0001    0.0001   -0.0000    0.0016
    32 C3     3d2-       0.0000    0.0001    0.0000    0.0000    0.0000   -0.0000   -0.0001   -0.0000    0.0000    0.0031
    33 C3     3d1-      -0.0000   -0.0001    0.0000    0.0000   -0.0000    0.0000    0.0000    0.0000   -0.0000   -0.0004
    34 C3     3d0       -0.0000   -0.0000    0.0001   -0.0000   -0.0001   -0.0000    0.0000    0.0000   -0.0000   -0.0026
    35 C3     3d1+       0.0000   -0.0001    0.0000   -0.0000    0.0000    0.0001    0.0000   -0.0001    0.0000   -0.0014
    36 C3     3d2+      -0.0000    0.0000    0.0001   -0.0000    0.0000    0.0001    0.0000    0.0000   -0.0000   -0.0010
    37 C4     1s         0.0000    0.0004   -0.0003    0.0003   -0.0002    0.3190    0.9478    0.0003    0.0000   -0.0010
    38 C4     2s         0.0002    0.0014   -0.0020    0.0011   -0.0012    0.0018    0.0023   -0.0007   -0.0000    0.0295
    39 C4     3s         0.0001   -0.0002   -0.0014    0.0005   -0.0010    0.0004    0.0002   -0.0006   -0.0001    0.0074
    40 C4     4s        -0.0000   -0.0003   -0.0004    0.0001   -0.0003    0.0005    0.0014   -0.0002   -0.0000    0.0032
    41 C4     2px        0.0002    0.0005    0.0006    0.0009    0.0004   -0.0004    0.0010   -0.0001    0.0001   -0.0079
    42 C4     3px        0.0003    0.0003    0.0008    0.0007    0.0006    0.0001    0.0004   -0.0007    0.0001   -0.0109
    43 C4     4px        0.0001   -0.0001    0.0002   -0.0000    0.0001    0.0004    0.0002   -0.0004    0.0001   -0.0036
    44 C4     2py        0.0001   -0.0026   -0.0002    0.0012    0.0001    0.0001    0.0007   -0.0004    0.0002   -0.0114
    45 C4     3py        0.0000   -0.0017    0.0000    0.0009    0.0001    0.0004    0.0005   -0.0006    0.0002   -0.0068
    46 C4     4py       -0.0000    0.0004    0.0002   -0.0001    0.0000    0.0002    0.0000   -0.0002    0.0000   -0.0021
    47 C4     2pz       -0.0003   -0.0016   -0.0006   -0.0004   -0.0002    0.0008   -0.0003   -0.0000   -0.0002    0.0076
    48 C4     3pz       -0.0005   -0.0010   -0.0006   -0.0003   -0.0003    0.0003   -0.0002    0.0005   -0.0003    0.0113
    49 C4     4pz       -0.0001    0.0002   -0.0000    0.0001   -0.0001   -0.0002   -0.0002    0.0004   -0.0001    0.0028
    50 C4     3d2-       0.0000    0.0001    0.0000   -0.0001   -0.0000   -0.0000    0.0001    0.0001   -0.0000    0.0001
    51 C4     3d1-      -0.0000   -0.0001    0.0000   -0.0000   -0.0000    0.0001    0.0003   -0.0000   -0.0000    0.0013
    52 C4     3d0       -0.0000    0.0000   -0.0000    0.0001    0.0000   -0.0000   -0.0002   -0.0000   -0.0000   -0.0002
    53 C4     3d1+      -0.0000   -0.0001   -0.0000    0.0000    0.0000   -0.0000   -0.0001   -0.0000   -0.0000   -0.0006
    54 C4     3d2+       0.0000    0.0001   -0.0001    0.0001    0.0000   -0.0000   -0.0004   -0.0000    0.0000   -0.0014
    55 C6     1s         0.0001    0.0001    0.0000    0.0003   -0.0001    0.0000   -0.0005    0.9997   -0.0000    0.0003
    56 C6     2s         0.0003    0.0007    0.0003    0.0014   -0.0005    0.0008   -0.0005    0.0000   -0.0003    0.0068
    57 C6     3s         0.0002    0.0004    0.0001    0.0003   -0.0005    0.0005   -0.0006   -0.0016   -0.0003    0.0067
    58 C6     4s         0.0000    0.0001   -0.0000   -0.0001   -0.0002    0.0001   -0.0003    0.0009   -0.0001    0.0029
    59 C6     2px        0.0001   -0.0001   -0.0000   -0.0003    0.0002   -0.0002    0.0003   -0.0000    0.0001   -0.0058
    60 C6     3px        0.0001   -0.0001   -0.0000    0.0001    0.0002   -0.0001    0.0004    0.0001    0.0001   -0.0054
    61 C6     4px        0.0000    0.0000   -0.0000    0.0002    0.0000    0.0001    0.0001   -0.0005    0.0000   -0.0004
    62 C6     2py        0.0000   -0.0002    0.0001    0.0001   -0.0000    0.0001    0.0003    0.0002    0.0000   -0.0016
    63 C6     3py        0.0001   -0.0002    0.0001    0.0002    0.0000    0.0002    0.0004   -0.0000    0.0000   -0.0024
    64 C6     4py        0.0000    0.0001   -0.0000    0.0000    0.0000    0.0000    0.0001   -0.0001    0.0000   -0.0008
    65 C6     2pz        0.0001    0.0002    0.0000    0.0003   -0.0002    0.0000   -0.0003    0.0000   -0.0001    0.0035
    66 C6     3pz        0.0001    0.0002   -0.0000   -0.0001   -0.0003   -0.0000   -0.0003   -0.0002   -0.0001    0.0033
    67 C6     4pz       -0.0000   -0.0000   -0.0000   -0.0002   -0.0000   -0.0001   -0.0000    0.0005   -0.0000    0.0006
    68 C6     3d2-       0.0000    0.0000   -0.0000    0.0000    0.0000    0.0000    0.0001    0.0000    0.0000   -0.0000
    69 C6     3d1-       0.0000   -0.0000    0.0000   -0.0001    0.0000   -0.0000   -0.0000   -0.0000    0.0000   -0.0002
    70 C6     3d0       -0.0000    0.0000    0.0000   -0.0000   -0.0000    0.0000   -0.0000   -0.0001   -0.0000    0.0002
    71 C6     3d1+       0.0000   -0.0000    0.0000    0.0001    0.0000   -0.0000   -0.0000    0.0001    0.0000   -0.0004
    72 C6     3d2+       0.0000    0.0000   -0.0000    0.0000   -0.0000   -0.0000   -0.0000   -0.0000   -0.0000    0.0002
    73 C19    1s         0.0002    0.0000   -0.0000   -0.0000    0.0036    0.0001   -0.0001   -0.0000    0.9999   -0.0141
    74 C19    2s         0.0011    0.0002   -0.0002   -0.0002    0.0004    0.0004   -0.0006   -0.0001    0.0019   -0.0108
    75 C19    3s         0.0007    0.0000   -0.0001   -0.0001    0.0001    0.0001   -0.0004   -0.0001   -0.0004   -0.0384
    76 C19    4s         0.0001   -0.0000   -0.0000   -0.0000    0.0001   -0.0001   -0.0001   -0.0001    0.0013   -0.0039
    77 C19    2px        0.0008    0.0001   -0.0004   -0.0000   -0.0002    0.0001   -0.0001   -0.0000   -0.0002   -0.0103
    78 C19    3px        0.0005    0.0001   -0.0003   -0.0000   -0.0003    0.0001   -0.0000    0.0000   -0.0001   -0.0067
    79 C19    4px       -0.0002    0.0000    0.0000    0.0000   -0.0000    0.0000    0.0000    0.0000    0.0002    0.0075
    80 C19    2py       -0.0001   -0.0001    0.0003   -0.0000    0.0004    0.0001   -0.0002   -0.0001   -0.0002    0.0195
    81 C19    3py       -0.0003   -0.0001    0.0003   -0.0000   -0.0001   -0.0001   -0.0001   -0.0001    0.0000   -0.0079
    82 C19    4py       -0.0001   -0.0000   -0.0001    0.0000   -0.0001   -0.0001    0.0000   -0.0000    0.0004    0.0054
    83 C19    2pz       -0.0001   -0.0001    0.0001    0.0001    0.0001    0.0003   -0.0001   -0.0000    0.0000   -0.0003
    84 C19    3pz       -0.0001   -0.0001    0.0001    0.0001    0.0001    0.0002   -0.0001   -0.0000    0.0000   -0.0011
    85 C19    4pz       -0.0000   -0.0000   -0.0000    0.0000   -0.0000   -0.0000   -0.0000    0.0000    0.0000    0.0005
    86 C19    3d2-       0.0001    0.0000   -0.0000   -0.0000    0.0000    0.0001   -0.0000   -0.0000   -0.0001    0.0000
    87 C19    3d1-       0.0000   -0.0000   -0.0000   -0.0000   -0.0000   -0.0000   -0.0000    0.0000   -0.0000    0.0004
    88 C19    3d0       -0.0001    0.0000   -0.0001    0.0000    0.0001   -0.0000    0.0000    0.0000    0.0001    0.0015
    89 C19    3d1+       0.0000    0.0000   -0.0000   -0.0000   -0.0000   -0.0000    0.0000    0.0000   -0.0000    0.0001
    90 C19    3d2+       0.0001    0.0000   -0.0000   -0.0000   -0.0001   -0.0000    0.0000   -0.0000    0.0001   -0.0069
    91 N2     1s         0.0001    0.0001    0.9998   -0.0000   -0.0002    0.0001    0.0000    0.0000    0.0001   -0.0177
    92 N2     2s         0.0005    0.0007   -0.0004    0.0001   -0.0001    0.0013   -0.0001    0.0001    0.0006    0.1122
    93 N2     3s         0.0004    0.0005   -0.0016    0.0001   -0.0002    0.0007    0.0000    0.0001    0.0004   -0.0489
    94 N2     4s         0.0001    0.0002    0.0004    0.0000    0.0001    0.0003   -0.0000    0.0000    0.0001   -0.0119
    95 N2     2px        0.0001   -0.0001    0.0005    0.0002   -0.0002    0.0006   -0.0003   -0.0001   -0.0003   -0.0323
    96 N2     3px        0.0001   -0.0002    0.0006    0.0004    0.0001    0.0005   -0.0002   -0.0002   -0.0002    0.0127
    97 N2     4px        0.0000   -0.0001   -0.0002    0.0000   -0.0002   -0.0000    0.0000   -0.0000    0.0001   -0.0059
    98 N2     2py       -0.0013    0.0002   -0.0007    0.0001    0.0002    0.0006   -0.0001    0.0000   -0.0002    0.0346
    99 N2     3py       -0.0015    0.0001   -0.0002    0.0001    0.0001    0.0005   -0.0001   -0.0000   -0.0001    0.0132
   100 N2     4py        0.0000   -0.0001    0.0005   -0.0000   -0.0001    0.0002   -0.0001   -0.0000    0.0001   -0.0054
   101 N2     2pz       -0.0002    0.0002   -0.0004   -0.0002   -0.0000   -0.0004    0.0001    0.0001   -0.0002    0.0049
   102 N2     3pz       -0.0002    0.0003   -0.0000   -0.0002   -0.0003   -0.0007    0.0000    0.0001   -0.0003    0.0167
   103 N2     4pz        0.0000    0.0000   -0.0004   -0.0000   -0.0001   -0.0001    0.0000    0.0000   -0.0000    0.0004
   104 N2     3d2-       0.0001    0.0000   -0.0002    0.0000   -0.0001    0.0000    0.0000   -0.0000   -0.0000   -0.0027
   105 N2     3d1-       0.0000   -0.0000    0.0001    0.0000   -0.0000    0.0000   -0.0000    0.0000    0.0000   -0.0013
   106 N2     3d0       -0.0000   -0.0000    0.0000    0.0000    0.0001    0.0001   -0.0000    0.0000   -0.0001   -0.0027
   107 N2     3d1+      -0.0000    0.0000   -0.0000   -0.0000   -0.0000   -0.0000   -0.0000    0.0000   -0.0000    0.0001
   108 N2     3d2+      -0.0000   -0.0000   -0.0000   -0.0000    0.0001   -0.0000   -0.0000   -0.0000    0.0000    0.0046
   109 N5     1s         0.0000    0.0001    0.0001    0.9999    0.0001   -0.0001   -0.0002    0.0001    0.0000   -0.0013
   110 N5     2s         0.0000    0.0008    0.0004    0.0006    0.0004   -0.0002   -0.0003    0.0017    0.0001    0.0021
   111 N5     3s         0.0000    0.0005    0.0003   -0.0010    0.0002   -0.0002   -0.0004    0.0010    0.0000   -0.0034
   112 N5     4s         0.0000    0.0001    0.0001    0.0006    0.0001   -0.0000    0.0000    0.0004   -0.0000   -0.0005
   113 N5     2px       -0.0002   -0.0008   -0.0004   -0.0004    0.0001   -0.0003    0.0004    0.0007    0.0001   -0.0008
   114 N5     3px       -0.0003   -0.0009   -0.0005   -0.0002    0.0003   -0.0005    0.0003    0.0006    0.0002   -0.0011
   115 N5     4px       -0.0000    0.0000    0.0000    0.0000    0.0001   -0.0001   -0.0002    0.0001    0.0000   -0.0006
   116 N5     2py        0.0001    0.0009   -0.0002    0.0007    0.0001   -0.0005   -0.0001    0.0002    0.0001   -0.0050
   117 N5     3py        0.0001    0.0010   -0.0002    0.0003    0.0002   -0.0003    0.0000   -0.0001    0.0001   -0.0035
   118 N5     4py       -0.0000    0.0000    0.0000   -0.0003    0.0000    0.0000   -0.0002   -0.0001    0.0000   -0.0003
   119 N5     2pz        0.0002    0.0011    0.0003    0.0006   -0.0003    0.0004   -0.0002   -0.0007   -0.0001    0.0021
   120 N5     3pz        0.0003    0.0013    0.0003    0.0004   -0.0005    0.0006   -0.0004   -0.0007   -0.0002    0.0044
   121 N5     4pz        0.0000   -0.0000   -0.0000   -0.0002   -0.0001    0.0001    0.0001   -0.0002   -0.0000    0.0018
   122 N5     3d2-      -0.0000    0.0000    0.0000   -0.0001   -0.0000    0.0000   -0.0001   -0.0001   -0.0000    0.0001
   123 N5     3d1-       0.0000    0.0000   -0.0000    0.0001    0.0000   -0.0000   -0.0000   -0.0000    0.0000   -0.0003
   124 N5     3d0       -0.0000    0.0000   -0.0000   -0.0000   -0.0000   -0.0000   -0.0000    0.0000   -0.0000    0.0000
   125 N5     3d1+      -0.0000   -0.0001   -0.0000    0.0001    0.0000    0.0000    0.0002    0.0001   -0.0000    0.0001
   126 N5     3d2+      -0.0000    0.0000   -0.0000   -0.0001   -0.0000   -0.0000    0.0000    0.0000   -0.0000    0.0002
   127 O7     1s         0.9997    0.0000    0.0000   -0.0000   -0.0003   -0.0000    0.0000    0.0000    0.0001   -0.0238
   128 O7     2s        -0.0015    0.0001    0.0001   -0.0000    0.0003   -0.0001    0.0001    0.0000    0.0003    0.6932
   129 O7     3s        -0.0014    0.0001    0.0001   -0.0000   -0.0001   -0.0000    0.0001    0.0000    0.0003   -0.0342
   130 O7     4s         0.0000    0.0000   -0.0000   -0.0000    0.0000    0.0000    0.0000    0.0000    0.0001   -0.0138
   131 O7     2px        0.0001    0.0001   -0.0003    0.0000    0.0004   -0.0001    0.0001    0.0000    0.0001    0.0920
   132 O7     3px       -0.0003    0.0001   -0.0004    0.0000   -0.0001   -0.0000    0.0001    0.0000    0.0001   -0.0259
   133 O7     4px        0.0008    0.0000   -0.0001    0.0000    0.0001    0.0000   -0.0000    0.0000   -0.0000   -0.0011
   134 O7     2py       -0.0002    0.0000   -0.0002    0.0000   -0.0006    0.0000    0.0001    0.0000   -0.0001   -0.1174
   135 O7     3py        0.0005    0.0000   -0.0002   -0.0000   -0.0003   -0.0000    0.0001    0.0000   -0.0001    0.0359
   136 O7     4py       -0.0011    0.0000    0.0001   -0.0000   -0.0003   -0.0000    0.0000    0.0000    0.0000    0.0000
   137 O7     2pz       -0.0000   -0.0000   -0.0001    0.0000    0.0001   -0.0000    0.0000   -0.0000   -0.0000    0.0010
   138 O7     3pz       -0.0000   -0.0001   -0.0000    0.0000   -0.0000   -0.0000   -0.0001   -0.0000   -0.0000    0.0024
   139 O7     4pz       -0.0000   -0.0000   -0.0000    0.0000   -0.0000   -0.0000   -0.0000   -0.0000   -0.0000    0.0004
   140 O7     3d2-       0.0001   -0.0000    0.0000   -0.0000   -0.0002    0.0000   -0.0000    0.0000   -0.0000   -0.0186
   141 O7     3d1-       0.0000   -0.0000    0.0000    0.0000    0.0000    0.0000   -0.0000   -0.0000    0.0000    0.0003
   142 O7     3d0       -0.0000    0.0000   -0.0001    0.0000   -0.0001    0.0000    0.0000   -0.0000   -0.0000   -0.0107
   143 O7     3d1+      -0.0000   -0.0000    0.0000   -0.0000   -0.0000    0.0000    0.0000   -0.0000    0.0000   -0.0004
   144 O7     3d2+       0.0000    0.0000   -0.0001   -0.0000   -0.0001   -0.0000    0.0000    0.0000   -0.0000   -0.0053
   145 O8     1s         0.0000    0.9997   -0.0000    0.0000    0.0000   -0.0001   -0.0002   -0.0000    0.0000   -0.0016
   146 O8     2s         0.0000   -0.0014   -0.0002    0.0002    0.0001    0.0002    0.0006   -0.0003    0.0000    0.0245
   147 O8     3s         0.0000   -0.0014   -0.0001    0.0001    0.0001    0.0000    0.0001   -0.0001    0.0000   -0.0033
   148 O8     4s         0.0000    0.0001   -0.0000    0.0000    0.0000   -0.0000    0.0001   -0.0000   -0.0000   -0.0010
   149 O8     2px       -0.0001   -0.0000    0.0000   -0.0002    0.0000    0.0002    0.0001   -0.0000    0.0000   -0.0015
   150 O8     3px       -0.0001    0.0001    0.0000   -0.0002    0.0000    0.0001   -0.0001   -0.0000    0.0001   -0.0009
   151 O8     4px       -0.0001   -0.0002    0.0000    0.0000    0.0000    0.0000   -0.0001    0.0000    0.0000   -0.0007
   152 O8     2py        0.0000    0.0002   -0.0000   -0.0001    0.0000    0.0003    0.0006   -0.0001    0.0000    0.0036
   153 O8     3py       -0.0000   -0.0005    0.0000   -0.0002    0.0001    0.0001    0.0001   -0.0000   -0.0000   -0.0024
   154 O8     4py       -0.0000    0.0012    0.0000   -0.0001    0.0000    0.0000    0.0001    0.0000   -0.0000    0.0001
   155 O8     2pz        0.0001    0.0001   -0.0001    0.0001    0.0000    0.0001    0.0005    0.0000    0.0000    0.0041
   156 O8     3pz        0.0001   -0.0003   -0.0000    0.0001   -0.0000   -0.0001    0.0002    0.0000    0.0000   -0.0011
   157 O8     4pz        0.0000    0.0007   -0.0000   -0.0001   -0.0000   -0.0000    0.0001    0.0000   -0.0000    0.0004
   158 O8     3d2-      -0.0000    0.0000    0.0000   -0.0000   -0.0000   -0.0000   -0.0001   -0.0000    0.0000   -0.0002
   159 O8     3d1-       0.0000   -0.0001   -0.0000    0.0000   -0.0000    0.0001    0.0002   -0.0000    0.0000    0.0006
   160 O8     3d0       -0.0000    0.0000   -0.0000    0.0000    0.0000   -0.0000   -0.0000    0.0000    0.0000   -0.0000
   161 O8     3d1+      -0.0000   -0.0000   -0.0000   -0.0001    0.0000   -0.0000    0.0000   -0.0000    0.0000   -0.0003
   162 O8     3d2+      -0.0000    0.0001    0.0000    0.0000   -0.0000   -0.0001   -0.0002    0.0000   -0.0000   -0.0004
   163 H9     1s         0.0002   -0.0000   -0.0000   -0.0001   -0.0001   -0.0005    0.0000   -0.0000    0.0003    0.0145
   164 H9     2s         0.0001   -0.0000   -0.0000   -0.0000   -0.0000   -0.0004    0.0000   -0.0000   -0.0002    0.0036
   165 H9     2px       -0.0000   -0.0000    0.0000   -0.0000    0.0000   -0.0001   -0.0000   -0.0000   -0.0000    0.0009
   166 H9     2py       -0.0001   -0.0000   -0.0000    0.0000    0.0001   -0.0000   -0.0000   -0.0000    0.0000    0.0013
   167 H9     2pz       -0.0000    0.0000    0.0000    0.0000   -0.0000    0.0001    0.0000    0.0000    0.0001   -0.0006
   168 H10    1s         0.0000   -0.0003    0.0002    0.0001    0.0002    0.0000   -0.0000   -0.0000    0.0004    0.0114
   169 H10    2s        -0.0000   -0.0002    0.0001    0.0001    0.0002    0.0000   -0.0000   -0.0000   -0.0002    0.0013
   170 H10    2px       -0.0000   -0.0000    0.0001    0.0000    0.0001    0.0000   -0.0000   -0.0000   -0.0000    0.0006
   171 H10    2py       -0.0001   -0.0000   -0.0000   -0.0000    0.0001   -0.0000    0.0000   -0.0000    0.0000    0.0010
   172 H10    2pz        0.0000   -0.0000   -0.0000    0.0000    0.0001   -0.0000   -0.0000   -0.0000   -0.0001    0.0005
   173 H11    1s        -0.0005   -0.0002    0.0004    0.0000    0.0003   -0.0001   -0.0000   -0.0001    0.0004    0.0192
   174 H11    2s        -0.0003   -0.0001    0.0003    0.0000    0.0002   -0.0001   -0.0000   -0.0000   -0.0002    0.0051
   175 H11    2px       -0.0000    0.0000   -0.0001   -0.0000   -0.0000    0.0000    0.0000    0.0000    0.0001   -0.0001
   176 H11    2py       -0.0000   -0.0000    0.0000    0.0000    0.0001   -0.0000    0.0000   -0.0000   -0.0000    0.0019
   177 H11    2pz       -0.0000    0.0000   -0.0000   -0.0000   -0.0000   -0.0000    0.0000    0.0000   -0.0000    0.0001
   178 H12    1s        -0.0009    0.0002   -0.0006   -0.0001    0.0001   -0.0004    0.0001   -0.0000   -0.0004    0.0372
   179 H12    2s        -0.0005    0.0002   -0.0005   -0.0000   -0.0000   -0.0002    0.0000   -0.0000   -0.0002   -0.0025
   180 H12    2px        0.0000   -0.0000    0.0002    0.0000   -0.0001    0.0001   -0.0000   -0.0000    0.0000   -0.0040
   181 H12    2py       -0.0000    0.0000   -0.0003    0.0000    0.0000    0.0001    0.0000   -0.0000   -0.0000    0.0039
   182 H12    2pz       -0.0001   -0.0000   -0.0002    0.0000    0.0000   -0.0000    0.0000   -0.0000   -0.0000    0.0019
   183 H13    1s         0.0005    0.0003   -0.0003    0.0001   -0.0003    0.0009   -0.0007   -0.0003    0.0002    0.0102
   184 H13    2s         0.0004    0.0002   -0.0001    0.0000   -0.0001    0.0001   -0.0003   -0.0002    0.0002   -0.0054
   185 H13    2px        0.0000    0.0000    0.0000   -0.0000   -0.0001    0.0001    0.0000   -0.0000   -0.0000   -0.0003
   186 H13    2py       -0.0000   -0.0001   -0.0000   -0.0000    0.0000   -0.0001    0.0000    0.0000   -0.0000   -0.0009
   187 H13    2pz       -0.0000   -0.0000    0.0000    0.0000    0.0000   -0.0000   -0.0000   -0.0000   -0.0000    0.0008
   188 H14    1s         0.0001    0.0005   -0.0003    0.0001   -0.0005    0.0007   -0.0004   -0.0002   -0.0004    0.0175
   189 H14    2s         0.0000    0.0003   -0.0001    0.0001   -0.0003    0.0001   -0.0001   -0.0002   -0.0003    0.0062
   190 H14    2px       -0.0000   -0.0000    0.0000   -0.0000    0.0000    0.0001    0.0000    0.0000    0.0000   -0.0008
   191 H14    2py       -0.0000   -0.0001    0.0000   -0.0000    0.0000   -0.0000    0.0000   -0.0000    0.0000   -0.0006
   192 H14    2pz        0.0000   -0.0000   -0.0000    0.0000    0.0000    0.0000   -0.0001    0.0000    0.0000   -0.0011
   193 H15    1s        -0.0003   -0.0014   -0.0001   -0.0008   -0.0002    0.0003    0.0003   -0.0001   -0.0001    0.0088
   194 H15    2s        -0.0002   -0.0008   -0.0001   -0.0005   -0.0001    0.0002    0.0001   -0.0000   -0.0001    0.0046
   195 H15    2px       -0.0000   -0.0000    0.0000   -0.0001   -0.0000    0.0000   -0.0001    0.0000   -0.0000    0.0003
   196 H15    2py        0.0000    0.0001    0.0000    0.0004    0.0000   -0.0001   -0.0001    0.0000    0.0000   -0.0010
   197 H15    2pz        0.0000    0.0000   -0.0000    0.0003    0.0000   -0.0000    0.0000   -0.0000    0.0000   -0.0006
   198 H16    1s         0.0000    0.0004   -0.0001   -0.0005   -0.0002   -0.0002   -0.0004    0.0005   -0.0000    0.0030
   199 H16    2s         0.0000    0.0002   -0.0001   -0.0002   -0.0001   -0.0002   -0.0003   -0.0001   -0.0000    0.0022
   200 H16    2px       -0.0000   -0.0000   -0.0000    0.0000   -0.0000   -0.0000   -0.0000   -0.0000   -0.0000    0.0002
   201 H16    2py       -0.0000   -0.0000    0.0000    0.0000    0.0000    0.0000    0.0000    0.0000    0.0000   -0.0001
   202 H16    2pz       -0.0000    0.0000   -0.0000   -0.0000   -0.0000   -0.0000   -0.0001    0.0000   -0.0000    0.0002
   203 H17    1s        -0.0002    0.0002   -0.0000   -0.0004   -0.0000   -0.0000   -0.0003    0.0005   -0.0000    0.0039
   204 H17    2s        -0.0001    0.0001    0.0000   -0.0002   -0.0000    0.0000   -0.0002   -0.0001   -0.0000    0.0027
   205 H17    2px        0.0000   -0.0000    0.0000    0.0000    0.0000    0.0000    0.0001   -0.0000    0.0000   -0.0004
   206 H17    2py        0.0000   -0.0000   -0.0000    0.0000    0.0000   -0.0000    0.0000   -0.0000    0.0000   -0.0001
   207 H17    2pz        0.0000    0.0000    0.0000   -0.0000    0.0000    0.0000    0.0000    0.0000    0.0000   -0.0003
   208 H18    1s        -0.0000   -0.0000   -0.0001   -0.0002   -0.0002   -0.0000   -0.0000    0.0010   -0.0001    0.0041
   209 H18    2s        -0.0000    0.0000   -0.0000   -0.0000   -0.0002    0.0000    0.0000    0.0001   -0.0001    0.0026
   210 H18    2px       -0.0000   -0.0000    0.0000    0.0000    0.0000    0.0000   -0.0000   -0.0000   -0.0000   -0.0000
   211 H18    2py       -0.0000   -0.0000    0.0000    0.0000   -0.0000   -0.0000   -0.0000    0.0001   -0.0000    0.0004
   212 H18    2pz       -0.0000   -0.0000   -0.0000    0.0000   -0.0000    0.0000    0.0000    0.0001   -0.0000    0.0003
 
 
      Orbital                11        12        13        14        15        16        17        18        19        20
      Energy            -1.3624   -1.2533   -1.2138   -1.0272   -0.9710   -0.9126   -0.8122   -0.7768   -0.7182   -0.6937
      Occ. No.           2.0000    2.0000    2.0000    2.0000    2.0000    2.0000    2.0000    2.0000    2.0000    2.0000
 
     1 C1     1s         0.0041   -0.0079    0.0024   -0.0174   -0.0012    0.0070    0.0152    0.0015    0.0062    0.0032
     2 C1     2s         0.0094    0.1343    0.0116    0.2679   -0.0465   -0.0883   -0.3800   -0.0194   -0.2472   -0.0736
     3 C1     3s         0.0168    0.0010    0.0138   -0.0247   -0.0074    0.0117    0.0089    0.0040    0.0051    0.0175
     4 C1     4s         0.0048    0.0002    0.0041   -0.0069   -0.0023    0.0046    0.0034    0.0017    0.0031    0.0031
     5 C1     2px        0.0352    0.1502    0.0167   -0.0133    0.0988   -0.0972   -0.1255   -0.0061    0.1480    0.2721
     6 C1     3px        0.0176   -0.0493    0.0257   -0.0541   -0.0205    0.0362    0.0212   -0.0051   -0.0635   -0.0659
     7 C1     4px        0.0082    0.0232    0.0040   -0.0092    0.0133   -0.0075   -0.0098   -0.0007    0.0057    0.0171
     8 C1     2py        0.0068   -0.0324    0.0187   -0.1642    0.0627   -0.0020   -0.0572    0.0356    0.0574   -0.1339
     9 C1     3py        0.0266    0.0417    0.0219    0.0070   -0.0501    0.0439    0.0122   -0.0055   -0.0086    0.0567
    10 C1     4py        0.0016   -0.0048    0.0040   -0.0269    0.0067    0.0049   -0.0079    0.0015   -0.0017   -0.0084
    11 C1     2pz       -0.0021   -0.0115   -0.0036    0.0016    0.0121   -0.0126   -0.0246    0.0047    0.0118   -0.0006
    12 C1     3pz       -0.0022   -0.0132   -0.0053    0.0047    0.0071   -0.0080   -0.0010    0.0021    0.0009   -0.0012
    13 C1     4pz       -0.0006   -0.0008   -0.0008    0.0016    0.0021   -0.0029   -0.0014    0.0007    0.0024   -0.0008
    14 C1     3d2-       0.0039    0.0165   -0.0001    0.0083   -0.0082    0.0064   -0.0123    0.0072    0.0178    0.0087
    15 C1     3d1-      -0.0002   -0.0008   -0.0001    0.0009   -0.0004    0.0003   -0.0016    0.0004   -0.0008   -0.0015
    16 C1     3d0        0.0007   -0.0067   -0.0001   -0.0112   -0.0000    0.0053    0.0132    0.0008    0.0061    0.0025
    17 C1     3d1+      -0.0002    0.0004   -0.0002    0.0018    0.0014   -0.0016   -0.0049    0.0012    0.0044    0.0021
    18 C1     3d2+       0.0031    0.0266   -0.0006    0.0012    0.0147   -0.0137   -0.0077   -0.0013    0.0128    0.0166
    19 C3     1s        -0.0156   -0.0303   -0.0071    0.0342    0.0252   -0.0238    0.0077   -0.0065   -0.0004    0.0010
    20 C3     2s         0.0280    0.1737    0.0153   -0.2789   -0.2450    0.3151   -0.0972    0.0730   -0.0369    0.0388
    21 C3     3s        -0.0383   -0.0505   -0.0201    0.0603    0.0416   -0.0226    0.0154   -0.0130    0.0006    0.0019
    22 C3     4s        -0.0051   -0.0108   -0.0027    0.0160    0.0106   -0.0061    0.0042   -0.0043    0.0019   -0.0018
    23 C3     2px        0.0103   -0.0498    0.0247   -0.0359   -0.0727   -0.0001    0.0487   -0.1135   -0.2243    0.0597
    24 C3     3px        0.0043    0.0093    0.0135   -0.0413    0.0021    0.0099   -0.0165    0.0239    0.0339   -0.0069
    25 C3     4px        0.0091   -0.0046    0.0052   -0.0083   -0.0025   -0.0015    0.0030   -0.0041   -0.0044    0.0018
    26 C3     2py       -0.0326   -0.0927    0.0109   -0.0016   -0.0492   -0.0310   -0.1453    0.0051   -0.0436    0.2229
    27 C3     3py       -0.0001    0.0194   -0.0018   -0.0401    0.0042   -0.0262    0.0061    0.0161    0.0078   -0.0285
    28 C3     4py        0.0072   -0.0020    0.0042   -0.0126   -0.0091    0.0033   -0.0081    0.0082   -0.0030    0.0097
    29 C3     2pz       -0.0162    0.0075   -0.0171    0.0072    0.0321    0.0225   -0.0087    0.1080    0.1368   -0.0997
    30 C3     3pz        0.0072    0.0020   -0.0077   -0.0122   -0.0262    0.0069   -0.0051   -0.0101   -0.0172    0.0137
    31 C3     4pz       -0.0060    0.0071   -0.0029   -0.0055   -0.0055    0.0111   -0.0006    0.0077   -0.0012   -0.0001
    32 C3     3d2-      -0.0011    0.0184    0.0032   -0.0035    0.0050   -0.0013    0.0039    0.0045    0.0135   -0.0171
    33 C3     3d1-       0.0033   -0.0038   -0.0047    0.0017   -0.0007    0.0013    0.0003   -0.0016   -0.0108    0.0062
    34 C3     3d0        0.0009   -0.0107    0.0001    0.0021   -0.0074   -0.0013   -0.0022   -0.0086   -0.0169    0.0101
    35 C3     3d1+      -0.0024   -0.0046   -0.0021    0.0058    0.0084    0.0002   -0.0015    0.0097    0.0098   -0.0025
    36 C3     3d2+      -0.0006   -0.0111    0.0021    0.0014   -0.0079   -0.0029   -0.0179   -0.0061   -0.0055    0.0178
    37 C4     1s        -0.0397    0.0080   -0.0056    0.0073    0.0155    0.0079    0.0036    0.0162    0.0028   -0.0023
    38 C4     2s         0.3605    0.0114    0.1246   -0.1103   -0.2264   -0.0431   -0.0428   -0.3985   -0.0751    0.0445
    39 C4     3s        -0.0056    0.0230    0.0096    0.0117    0.0145    0.0199    0.0064    0.0091    0.0034   -0.0029
    40 C4     4s         0.0027    0.0064    0.0029    0.0041    0.0046    0.0062    0.0015    0.0050    0.0033   -0.0023
    41 C4     2px        0.0344   -0.0401    0.0696    0.0443    0.0664   -0.0475   -0.0056   -0.0662    0.1367   -0.0658
    42 C4     3px       -0.0083   -0.0099    0.0260   -0.0172    0.0437    0.0727   -0.0005    0.0044   -0.0578    0.0332
    43 C4     4px        0.0081   -0.0085    0.0177    0.0027    0.0148    0.0028   -0.0017   -0.0057    0.0026   -0.0003
    44 C4     2py       -0.0747   -0.0042    0.1613   -0.0284   -0.0578   -0.0738   -0.0222   -0.0935    0.0569    0.0098
    45 C4     3py        0.0536   -0.0379   -0.0398    0.0027    0.0467    0.0382   -0.0130    0.0228   -0.0251    0.0013
    46 C4     4py       -0.0203   -0.0051    0.0312   -0.0038   -0.0040   -0.0047   -0.0090   -0.0029    0.0032    0.0020
    47 C4     2pz       -0.0614    0.0405   -0.0098   -0.0623   -0.1036    0.0133    0.0133    0.0077   -0.1479    0.0705
    48 C4     3pz        0.0247   -0.0088   -0.0511    0.0274   -0.0132   -0.0781    0.0073    0.0036    0.0587   -0.0355
    49 C4     4pz       -0.0179    0.0080   -0.0069   -0.0066   -0.0156   -0.0072    0.0031    0.0035   -0.0036   -0.0003
    50 C4     3d2-      -0.0020    0.0016    0.0215   -0.0006   -0.0059   -0.0121    0.0038   -0.0141    0.0096   -0.0092
    51 C4     3d1-       0.0291   -0.0068   -0.0183    0.0005   -0.0011    0.0024   -0.0048    0.0082   -0.0091    0.0108
    52 C4     3d0       -0.0078    0.0027   -0.0089   -0.0033    0.0012    0.0123   -0.0001    0.0022   -0.0087    0.0019
    53 C4     3d1+      -0.0106   -0.0022   -0.0034    0.0084    0.0098   -0.0072    0.0036    0.0146    0.0024   -0.0008
    54 C4     3d2+      -0.0283    0.0074    0.0001   -0.0034    0.0031    0.0130   -0.0015   -0.0011    0.0010   -0.0017
    55 C6     1s        -0.0095    0.0039   -0.0348   -0.0110   -0.0380   -0.0425    0.0060    0.0073    0.0063   -0.0056
    56 C6     2s         0.0251    0.0016    0.1550    0.1013    0.2582    0.3628   -0.0288   -0.1161   -0.0509    0.0415
    57 C6     3s        -0.0147    0.0169   -0.0614   -0.0079   -0.0725   -0.0705    0.0180    0.0114    0.0166   -0.0159
    58 C6     4s        -0.0004    0.0054   -0.0101   -0.0001   -0.0159   -0.0142    0.0045    0.0033    0.0043   -0.0042
    59 C6     2px       -0.0176    0.0005   -0.0691   -0.0203   -0.0093    0.0342   -0.0213   -0.0529   -0.0824    0.0884
    60 C6     3px        0.0022   -0.0062    0.0159   -0.0013    0.0152    0.0087   -0.0021    0.0039    0.0121   -0.0136
    61 C6     4px       -0.0024   -0.0007   -0.0004    0.0033    0.0100    0.0136   -0.0022   -0.0058   -0.0044    0.0042
    62 C6     2py       -0.0086    0.0001   -0.0098   -0.0045    0.0080    0.0155    0.0097    0.1076   -0.1091    0.0695
    63 C6     3py       -0.0008   -0.0023    0.0040   -0.0012    0.0113    0.0110   -0.0029   -0.0015    0.0100   -0.0062
    64 C6     4py       -0.0008   -0.0001    0.0022    0.0010    0.0036    0.0027    0.0020    0.0056   -0.0060    0.0036
    65 C6     2pz        0.0157    0.0035    0.0799    0.0177    0.0122   -0.0209    0.0281    0.1013    0.0468   -0.0800
    66 C6     3pz       -0.0020    0.0107   -0.0123   -0.0030   -0.0170    0.0046   -0.0019   -0.0069   -0.0108    0.0143
    67 C6     4pz        0.0029    0.0012    0.0014   -0.0029   -0.0105   -0.0142    0.0028    0.0089    0.0022   -0.0036
    68 C6     3d2-       0.0009   -0.0001    0.0014    0.0003   -0.0000   -0.0006   -0.0009   -0.0078    0.0060   -0.0037
    69 C6     3d1-      -0.0009    0.0001   -0.0020    0.0001    0.0012    0.0021    0.0007    0.0053   -0.0034    0.0017
    70 C6     3d0        0.0014   -0.0003    0.0080    0.0015    0.0020   -0.0010    0.0019    0.0093    0.0005   -0.0030
    71 C6     3d1+      -0.0046    0.0011   -0.0203   -0.0048   -0.0063    0.0024   -0.0033   -0.0094   -0.0131    0.0144
    72 C6     3d2+       0.0015   -0.0001    0.0096    0.0013    0.0013   -0.0020    0.0022    0.0091    0.0005   -0.0035
    73 C19    1s         0.0010   -0.0087    0.0014   -0.0572    0.0414   -0.0213   -0.0129   -0.0040   -0.0089    0.0015
    74 C19    2s         0.0060    0.0094    0.0081    0.3015   -0.2709    0.1661    0.0791    0.0338    0.0962    0.0060
    75 C19    3s         0.0074   -0.0219    0.0101   -0.1161    0.0757   -0.0337   -0.0339   -0.0086   -0.0166    0.0106
    76 C19    4s         0.0030   -0.0023    0.0036   -0.0254    0.0171   -0.0073   -0.0096   -0.0023   -0.0051    0.0030
    77 C19    2px        0.0019    0.0277   -0.0002    0.0513   -0.0011   -0.0252   -0.0417   -0.0248   -0.0502    0.1301
    78 C19    3px       -0.0017    0.0025   -0.0007    0.0037    0.0023   -0.0002    0.0039    0.0035    0.0109   -0.0103
    79 C19    4px       -0.0014    0.0002   -0.0008   -0.0073    0.0113   -0.0087   -0.0014   -0.0030   -0.0059    0.0029
    80 C19    2py        0.0033    0.0087    0.0059    0.0466   -0.0115   -0.0176   -0.0700   -0.0327   -0.2019   -0.0642
    81 C19    3py        0.0050   -0.0037    0.0066   -0.0339    0.0184   -0.0030    0.0104    0.0007    0.0216    0.0130
    82 C19    4py        0.0003    0.0007    0.0002   -0.0135    0.0144   -0.0098   -0.0135   -0.0013   -0.0085   -0.0019
    83 C19    2pz        0.0023   -0.0059   -0.0005    0.0023    0.0013   -0.0025   -0.0091   -0.0029   -0.0028   -0.0002
    84 C19    3pz        0.0029   -0.0057   -0.0001   -0.0030    0.0010    0.0002   -0.0003   -0.0024    0.0006    0.0004
    85 C19    4pz        0.0004    0.0005    0.0002   -0.0009   -0.0004    0.0003   -0.0007   -0.0004   -0.0003    0.0002
    86 C19    3d2-       0.0003    0.0060   -0.0002    0.0105   -0.0018   -0.0029   -0.0073   -0.0025   -0.0125   -0.0009
    87 C19    3d1-       0.0000    0.0004    0.0001    0.0013   -0.0007   -0.0000   -0.0010   -0.0003   -0.0012    0.0004
    88 C19    3d0       -0.0001   -0.0010   -0.0000   -0.0088    0.0039    0.0005    0.0035    0.0025    0.0081   -0.0076
    89 C19    3d1+       0.0000    0.0009    0.0002    0.0004   -0.0005    0.0003   -0.0000   -0.0001   -0.0010   -0.0001
    90 C19    3d2+       0.0006    0.0020   -0.0002   -0.0080    0.0050   -0.0007    0.0040    0.0019    0.0145    0.0058
    91 N2     1s        -0.0075   -0.0418   -0.0007   -0.0032   -0.0041    0.0011   -0.0039    0.0010    0.0021   -0.0005
    92 N2     2s         0.0537    0.5777   -0.0207   -0.0122    0.2051   -0.1294    0.1539   -0.0067    0.1240   -0.0539
    93 N2     3s        -0.0199   -0.0833   -0.0063   -0.0072    0.0048   -0.0060   -0.0075    0.0059    0.0098    0.0002
    94 N2     4s        -0.0050   -0.0265   -0.0011   -0.0003   -0.0010   -0.0003   -0.0030    0.0015   -0.0003    0.0006
    95 N2     2px        0.0137   -0.0332    0.0045   -0.1408   -0.0365    0.1226    0.3757   -0.0119   -0.0983   -0.2840
    96 N2     3px        0.0057   -0.0101    0.0071    0.0158    0.0414   -0.0492   -0.0948   -0.0056   -0.0025    0.0599
    97 N2     4px        0.0037    0.0016    0.0018   -0.0073    0.0073   -0.0034    0.0014   -0.0016   -0.0016    0.0065
    98 N2     2py       -0.0012    0.0033    0.0043   -0.1266   -0.0466    0.1249   -0.2000    0.1547    0.2457   -0.1943
    99 N2     3py       -0.0106   -0.0390   -0.0011    0.0366    0.0445   -0.0534    0.0195   -0.0396   -0.0506    0.0284
   100 N2     4py        0.0007   -0.0109    0.0006   -0.0008    0.0043   -0.0039   -0.0077   -0.0026   -0.0016    0.0047
   101 N2     2pz       -0.0084   -0.0139    0.0071    0.0116   -0.0131    0.0050   -0.0503    0.0263    0.0689   -0.0174
   102 N2     3pz        0.0016    0.0377    0.0051    0.0061   -0.0123    0.0045    0.0245   -0.0094   -0.0128    0.0030
   103 N2     4pz       -0.0012    0.0011    0.0004    0.0009   -0.0021    0.0018   -0.0006   -0.0001   -0.0011    0.0015
   104 N2     3d2-       0.0010    0.0075    0.0001   -0.0015   -0.0068    0.0083   -0.0052    0.0043    0.0059   -0.0030
   105 N2     3d1-      -0.0001    0.0005   -0.0005    0.0036    0.0031   -0.0038    0.0077   -0.0026   -0.0050    0.0027
   106 N2     3d0       -0.0013   -0.0153    0.0004    0.0011   -0.0034    0.0012    0.0027   -0.0013   -0.0045   -0.0000
   107 N2     3d1+      -0.0008   -0.0007    0.0006    0.0026   -0.0003   -0.0019   -0.0092    0.0016    0.0042    0.0047
   108 N2     3d2+       0.0005    0.0046    0.0005    0.0102    0.0058   -0.0123   -0.0188   -0.0042   -0.0033    0.0150
   109 N5     1s        -0.0196    0.0023   -0.0423   -0.0019    0.0005    0.0032   -0.0018   -0.0033    0.0031   -0.0018
   110 N5     2s         0.1325   -0.0342    0.5764    0.0406   -0.0224   -0.2215    0.0604    0.1670    0.1020   -0.0982
   111 N5     3s        -0.0489    0.0058   -0.0790   -0.0029   -0.0070   -0.0127    0.0001    0.0003    0.0149   -0.0098
   112 N5     4s        -0.0116    0.0025   -0.0263   -0.0012   -0.0029   -0.0012   -0.0000   -0.0020    0.0017   -0.0008
   113 N5     2px        0.0074   -0.0087   -0.0135    0.0360    0.1208    0.1122    0.0016    0.0764    0.0250   -0.0647
   114 N5     3px        0.0175   -0.0118   -0.0108   -0.0192   -0.0385   -0.0605   -0.0120   -0.0156   -0.0053    0.0156
   115 N5     4px       -0.0059   -0.0026   -0.0022    0.0011    0.0020   -0.0028   -0.0026   -0.0013    0.0007    0.0012
   116 N5     2py       -0.0398    0.0058   -0.0120    0.0205    0.0746    0.0478    0.0661    0.3838   -0.2122    0.0922
   117 N5     3py        0.0118   -0.0054    0.0237   -0.0014   -0.0004   -0.0064   -0.0071   -0.0997    0.0352   -0.0166
   118 N5     4py       -0.0019   -0.0019    0.0098    0.0033    0.0040   -0.0009    0.0007    0.0065   -0.0024    0.0021
   119 N5     2pz       -0.0168    0.0125    0.0046   -0.0313   -0.1133   -0.1066    0.0142    0.0569   -0.1174    0.1148
   120 N5     3pz       -0.0129    0.0094    0.0243    0.0316    0.0426    0.0616    0.0053   -0.0179    0.0217   -0.0221
   121 N5     4pz        0.0050    0.0014    0.0056    0.0035   -0.0004    0.0024    0.0020    0.0045   -0.0011   -0.0006
   122 N5     3d2-       0.0037   -0.0011    0.0110   -0.0012   -0.0048   -0.0044   -0.0025   -0.0143    0.0053   -0.0012
   123 N5     3d1-      -0.0002   -0.0006   -0.0025    0.0015    0.0025   -0.0024    0.0022    0.0127   -0.0022    0.0010
   124 N5     3d0       -0.0029    0.0010   -0.0028    0.0013    0.0055    0.0074    0.0010    0.0062   -0.0019   -0.0009
   125 N5     3d1+      -0.0000    0.0002   -0.0152   -0.0015   -0.0044   -0.0043   -0.0006   -0.0036    0.0004    0.0015
   126 N5     3d2+      -0.0044    0.0017   -0.0033    0.0005    0.0043    0.0094   -0.0003    0.0003   -0.0009   -0.0009
   127 O7     1s         0.0013    0.0029   -0.0005   -0.0043    0.0022    0.0006    0.0141   -0.0011    0.0138    0.0217
   128 O7     2s        -0.0723   -0.2985    0.0001   -0.2062    0.0585    0.0280    0.3584   -0.0313    0.2282    0.3495
   129 O7     3s        -0.0008   -0.0077   -0.0021   -0.0195    0.0096    0.0000    0.0445   -0.0039    0.0385    0.0614
   130 O7     4s         0.0002    0.0002   -0.0007   -0.0032    0.0023   -0.0009    0.0088   -0.0009    0.0076    0.0130
   131 O7     2px       -0.0081   -0.0011   -0.0027   -0.0012    0.0241   -0.0320   -0.1863    0.0204   -0.1043   -0.2340
   132 O7     3px       -0.0018    0.0024   -0.0032   -0.0073    0.0020    0.0022    0.0246   -0.0035    0.0091    0.0218
   133 O7     4px       -0.0003    0.0008   -0.0003   -0.0007   -0.0004    0.0010    0.0024   -0.0003    0.0003    0.0015
   134 O7     2py        0.0099    0.0383   -0.0020   -0.0338    0.0247    0.0005    0.1595   -0.0055    0.2573    0.4086
   135 O7     3py       -0.0054   -0.0016   -0.0033    0.0135   -0.0003   -0.0052   -0.0259    0.0002   -0.0304   -0.0427
   136 O7     4py       -0.0012   -0.0015   -0.0009   -0.0006    0.0004    0.0003   -0.0032    0.0002   -0.0036   -0.0064
   137 O7     2pz        0.0006    0.0023    0.0008    0.0023   -0.0001   -0.0007   -0.0025   -0.0008   -0.0004    0.0062
   138 O7     3pz        0.0010    0.0028    0.0017    0.0001   -0.0012    0.0007    0.0013   -0.0012   -0.0013   -0.0008
   139 O7     4pz        0.0003    0.0007    0.0005   -0.0001   -0.0002    0.0001    0.0005   -0.0004    0.0001   -0.0000
   140 O7     3d2-       0.0014    0.0036   -0.0001    0.0007   -0.0017    0.0022    0.0122   -0.0007    0.0102    0.0189
   141 O7     3d1-      -0.0000   -0.0005   -0.0000   -0.0003   -0.0001    0.0003    0.0005   -0.0000   -0.0006   -0.0009
   142 O7     3d0        0.0010    0.0042   -0.0001    0.0015    0.0002   -0.0002    0.0053   -0.0007    0.0060    0.0119
   143 O7     3d1+       0.0000    0.0000    0.0000    0.0002    0.0001   -0.0001    0.0001   -0.0000    0.0002    0.0003
   144 O7     3d2+       0.0006    0.0046   -0.0002   -0.0026    0.0045   -0.0031   -0.0019    0.0008    0.0102    0.0116
   145 O8     1s        -0.0237    0.0024    0.0037    0.0010    0.0033   -0.0003    0.0011    0.0123    0.0015    0.0010
   146 O8     2s         0.6648   -0.1438   -0.3322    0.1045    0.1530    0.0021    0.0033    0.3488    0.0253    0.0398
   147 O8     3s        -0.0296   -0.0035   -0.0111    0.0067    0.0148   -0.0023    0.0009    0.0461    0.0045    0.0041
   148 O8     4s        -0.0129   -0.0003   -0.0004    0.0005    0.0018   -0.0010   -0.0007    0.0096    0.0009    0.0011
   149 O8     2px       -0.0079   -0.0082    0.0196    0.0111    0.0039   -0.0289   -0.0167   -0.0080    0.0758   -0.0214
   150 O8     3px        0.0047   -0.0049   -0.0045   -0.0017   -0.0033   -0.0079    0.0021   -0.0028   -0.0042   -0.0018
   151 O8     4px       -0.0007   -0.0018   -0.0021   -0.0004    0.0010   -0.0008    0.0004   -0.0003   -0.0016   -0.0003
   152 O8     2py        0.1207   -0.0277   -0.0274    0.0060   -0.0130   -0.0227   -0.0272   -0.1724    0.0526   -0.0504
   153 O8     3py       -0.0368    0.0007    0.0006    0.0047    0.0068   -0.0008    0.0026    0.0245   -0.0008    0.0022
   154 O8     4py       -0.0007   -0.0013    0.0008   -0.0003   -0.0006    0.0008   -0.0012    0.0030   -0.0009    0.0009
   155 O8     2pz        0.0738   -0.0017   -0.0310   -0.0166   -0.0197    0.0207    0.0063   -0.0783   -0.0703    0.0078
   156 O8     3pz       -0.0197    0.0064    0.0055    0.0003    0.0069    0.0092   -0.0026    0.0147    0.0039    0.0025
   157 O8     4pz        0.0000    0.0017    0.0029   -0.0008   -0.0007    0.0013   -0.0012    0.0018    0.0013    0.0001
   158 O8     3d2-      -0.0031   -0.0001    0.0025    0.0010    0.0008   -0.0023   -0.0002    0.0003    0.0044   -0.0016
   159 O8     3d1-       0.0152   -0.0020   -0.0061   -0.0000   -0.0004    0.0011   -0.0005   -0.0066   -0.0023   -0.0006
   160 O8     3d0       -0.0024    0.0011   -0.0007   -0.0015   -0.0008    0.0023    0.0012    0.0021   -0.0053    0.0019
[...]
AIVX     1  Mu1.0001  In1.023 Se1.046               0.21198715      0.00085751     -0.00135940     -0.00000117
AIVX     1  Mu1.0001  In1.024 Se1.046               0.24520795     -0.00143244      0.00203471     -0.00000291
AIVX     1  Mu1.0001  In1.025 Se1.046               0.15106762     -0.00040224      0.00089029     -0.00000036
AIVX     1  Mu1.0001  In1.026 Se1.046               0.25884496     -0.00038680      0.00077664     -0.00000030
AIVX     1  Mu1.0001  In1.027 Se1.046               0.10264310     -0.00036372      0.00045435     -0.00000017
AIVX     1  Mu1.0001  In1.028 Se1.046               0.06931439      0.00016627     -0.00039130     -0.00000007
AIVX     1  Mu1.0001  In1.018 Se1.047               0.28212558      0.00061363     -0.00091780     -0.00000056
AIVX     1  Mu1.0001  In1.021 Se1.047               0.23663532      0.00003240     -0.00026580     -0.00000001
AIVX     1  Mu1.0001  In1.022 Se1.047               0.14022766     -0.00039611      0.00106450     -0.00000042
AIVX     1  Mu1.0001  In1.023 Se1.047               0.21035928      0.00142590     -0.00265701     -0.00000379
AIVX     1  Mu1.0001  In1.024 Se1.047               0.24358008      0.00020458     -0.00045521     -0.00000009
AIVX     1  Mu1.0001  In1.025 Se1.047               0.14943975      0.00001638      0.00006425      0.00000000
AIVX     1  Mu1.0001  In1.026 Se1.047               0.25721709      0.00125308     -0.00255301     -0.00000320
AIVX     1  Mu1.0001  In1.027 Se1.047               0.10101523      0.00009581     -0.00031319     -0.00000003
AIVX     1  Mu1.0001  In1.028 Se1.047               0.06768652      0.00007758      0.00003765      0.00000000
AIVX     1  Mu1.0001  In1.018 Se1.048               0.29913278      0.00168850     -0.00265769     -0.00000449
AIVX     1  Mu1.0001  In1.021 Se1.048               0.25364252      0.00151638     -0.00254862     -0.00000386
AIVX     1  Mu1.0001  In1.022 Se1.048               0.15723486      0.00059277     -0.00082959     -0.00000049
AIVX     1  Mu1.0001  In1.023 Se1.048               0.22736648     -0.00036672      0.00092904     -0.00000034
AIVX     1  Mu1.0001  In1.024 Se1.048               0.26058728     -0.00087420      0.00121846     -0.00000107
AIVX     1  Mu1.0001  In1.025 Se1.048               0.16644694     -0.00001223     -0.00009804      0.00000000
AIVX     1  Mu1.0001  In1.026 Se1.048               0.27422429     -0.00126623      0.00223415     -0.00000283
AIVX     1  Mu1.0001  In1.027 Se1.048               0.11802242     -0.00091202      0.00208984     -0.00000191
AIVX     1  Mu1.0001  In1.028 Se1.048               0.08469372      0.00075547     -0.00156698     -0.00000118
AIVX     1  Mu1.0001  In1.021 Se1.049               0.27687700      0.00343791     -0.00549895     -0.00001890
AIVX     1  Mu1.0001  In1.022 Se1.049               0.18046934      0.00055364     -0.00056895     -0.00000031
AIVX     1  Mu1.0001  In1.023 Se1.049               0.25060096      0.00033951     -0.00008766     -0.00000003
AIVX     1  Mu1.0001  In1.024 Se1.049               0.28382176     -0.00178227      0.00250687     -0.00000447
AIVX     1  Mu1.0001  In1.025 Se1.049               0.18968143     -0.00035235      0.00047124     -0.00000017
AIVX     1  Mu1.0001  In1.026 Se1.049               0.29745877      0.00060406     -0.00073799     -0.00000045
AIVX     1  Mu1.0001  In1.027 Se1.049               0.14125691      0.00060523     -0.00131678     -0.00000080
AIVX     1  Mu1.0001  In1.028 Se1.049               0.10792820     -0.00093538      0.00214750     -0.00000201
AIVX     1  Mu1.0001  In1.021 Se1.050               0.26587372      0.00037634     -0.00030388     -0.00000011
AIVX     1  Mu1.0001  In1.022 Se1.050               0.16946605     -0.00029316      0.00064183     -0.00000019
AIVX     1  Mu1.0001  In1.023 Se1.050               0.23959768      0.00056234     -0.00091619     -0.00000052
AIVX     1  Mu1.0001  In1.024 Se1.050               0.27281848     -0.00113016      0.00184233     -0.00000208
AIVX     1  Mu1.0001  In1.025 Se1.050               0.17867814     -0.00005156      0.00010529     -0.00000001
AIVX     1  Mu1.0001  In1.026 Se1.050               0.28645549     -0.00082976      0.00124488     -0.00000103
AIVX     1  Mu1.0001  In1.027 Se1.050               0.13025362      0.00018438     -0.00020000     -0.00000004
AIVX     1  Mu1.0001  In1.028 Se1.050               0.09692492      0.00005061     -0.00047447     -0.00000002
AIVX     1  Mu1.0001  In1.022 Se1.051               0.20792466      0.00078354     -0.00113726     -0.00000089
AIVX     1  Mu1.0001  In1.023 Se1.051               0.27805628     -0.00140296      0.00230037     -0.00000323
AIVX     1  Mu1.0001  In1.025 Se1.051               0.21713675     -0.00022625      0.00037802     -0.00000009
AIVX     1  Mu1.0001  In1.027 Se1.051               0.16871223     -0.00056240      0.00037762     -0.00000021
AIVX     1  Mu1.0001  In1.028 Se1.051               0.13538352      0.00010260      0.00009806      0.00000001
AIVX     1  Mu1.0001  In1.022 Se1.052               0.23080923     -0.00079790      0.00109915     -0.00000088
AIVX     1  Mu1.0001  In1.025 Se1.052               0.24002132      0.00010940     -0.00011595     -0.00000001
AIVX     1  Mu1.0001  In1.027 Se1.052               0.19159680     -0.00009491     -0.00001348      0.00000000
AIVX     1  Mu1.0001  In1.028 Se1.052               0.15826809      0.00091855     -0.00182893     -0.00000168
AIVX     1  Mu1.0001  In1.022 Se1.053               0.27229111      0.00107503     -0.00165388     -0.00000178
AIVX     1  Mu1.0001  In1.025 Se1.053               0.28150320     -0.00043245      0.00076720     -0.00000033
AIVX     1  Mu1.0001  In1.027 Se1.053               0.23307868     -0.00071186      0.00140277     -0.00000100
AIVX     1  Mu1.0001  In1.028 Se1.053               0.19974997     -0.00037874      0.00115321     -0.00000044
AIVX     1  Mu1.0001  In1.022 Se1.054               0.25008777      0.00007257     -0.00001499     -0.00000000
AIVX     1  Mu1.0001  In1.025 Se1.054               0.25929986      0.00015421     -0.00015633     -0.00000002
AIVX     1  Mu1.0001  In1.027 Se1.054               0.21087534     -0.00051785      0.00081702     -0.00000042
AIVX     1  Mu1.0001  In1.028 Se1.054               0.17754663      0.00049574     -0.00076336     -0.00000038
AIVX     1  Mu1.0001  In1.027 Se1.055               0.26438792     -0.00207239      0.00358491     -0.00000743
AIVX     1  Mu1.0001  In1.028 Se1.055               0.23105922      0.00099819     -0.00199488     -0.00000199
AIVX     1  Mu1.0001  In1.022 Se1.056               0.29746003      0.00040874     -0.00043342     -0.00000018
AIVX     1  Mu1.0001  In1.027 Se1.056               0.25824760     -0.00059515      0.00097921     -0.00000058
AIVX     1  Mu1.0001  In1.028 Se1.056               0.22491889      0.00070641     -0.00168320     -0.00000119
AIVX     1  Mu1.0001  In1.028 Se1.057               0.26833181     -0.00010589      0.00007718     -0.00000001
AIVX     1  Mu1.0001  In1.022 Se1.058               0.28621719     -0.00017712     -0.00002999      0.00000001
AIVX     1  Mu1.0001  In1.025 Se1.058               0.29542927      0.00025494     -0.00022562     -0.00000006
AIVX     1  Mu1.0001  In1.027 Se1.058               0.24700475      0.00054079     -0.00097732     -0.00000053
AIVX     1  Mu1.0001  In1.028 Se1.058               0.21367605     -0.00094537      0.00223563     -0.00000211
AIVX     1  Mu1.0001  In1.027 Se1.059               0.28376641      0.00140773     -0.00215205     -0.00000303
AIVX     1  Mu1.0001  In1.028 Se1.059               0.25043770     -0.00060548      0.00127123     -0.00000077
AIVX     1  Mu1.0001  In1.028 Se1.060               0.29521668     -0.00044629      0.00082745     -0.00000037
AIVX     1  Mu1.0001  In1.027 Se1.061               0.29454492     -0.00077278      0.00109943     -0.00000085
AIVX     1  Mu1.0001  In1.028 Se1.061               0.26121622      0.00049695     -0.00060928     -0.00000030
AIVX     1  Mu1.0001  In1.022 Se1.209               0.25955031      0.00006943     -0.00034069     -0.00000002
AIVX     1  Mu1.0001  In1.025 Se1.209               0.26876239      0.00038096     -0.00050289     -0.00000019
AIVX     1  Mu1.0001  In1.027 Se1.209               0.22033787      0.00017424     -0.00073152     -0.00000013
AIVX     1  Mu1.0001  In1.028 Se1.209               0.18700917     -0.00007797      0.00007148     -0.00000001
--
 
   (Skipping property calculation,
    use PROP keyword to activate)
--
 
  Total CASPT2 energies:
::    CASPT2 Root  1     Total energy:   -455.21259140
::    CASPT2 Root  2     Total energy:   -455.02005326
::    CASPT2 Root  3     Total energy:   -454.99956766
::    CASPT2 Root  4     Total energy:   -454.94507387
::    CASPT2 Root  5     Total energy:   -454.91897777
::    CASPT2 Root  6     Total energy:   -454.94416670
::    CASPT2 Root  7     Total energy:   -454.91213404
 
++ Multi-State CASPT2 section:
********************************************************************************
  MULTI-STATE CASPT2 SECTION
--------------------------------------------------------------------------------
 
  Output diagonal energies have been shifted. Add   -455.000000000000     
 
  Effective Hamiltonian matrix (Symmetric):
 
                1               2               3               4               5
   1        -0.21259140
   2        -0.00042595     -0.02005326
   3        -0.00071386      0.00004075      0.00043234
   4         0.00531165      0.00039227      0.00072673      0.05492613
   5        -0.00290382     -0.00008673      0.00073560      0.00773374      0.08102223
   6        -0.01485041     -0.00052521     -0.00005566      0.00055310      0.00027910
   7         0.01212488      0.00043055     -0.00117771     -0.00209969      0.00141778
 
                6               7
   6         0.05583330
   7         0.01219281      0.08786596
 
       Total MS-CASPT2 energies:
::    MS-CASPT2 Root  1     Total energy:   -455.21409731
::    MS-CASPT2 Root  2     Total energy:   -455.02005985
::    MS-CASPT2 Root  3     Total energy:   -454.99959653
::    MS-CASPT2 Root  4     Total energy:   -454.94788984
::    MS-CASPT2 Root  5     Total energy:   -454.94633176
::    MS-CASPT2 Root  6     Total energy:   -454.91691945
::    MS-CASPT2 Root  7     Total energy:   -454.90766997
 
       Eigenvectors:
            0.99720584     -0.00320099     -0.00254515     -0.06321432     -0.03262616
            0.00248249      0.99994234      0.00222403     -0.00978187     -0.00218681
            0.00313241     -0.00219982      0.99979325     -0.00143474      0.01031762
           -0.02045137     -0.00528986     -0.01134174     -0.70128756      0.65945181
            0.01049135      0.00123131     -0.00836152      0.18709600     -0.18750493
            0.05681901      0.00706033     -0.00258746      0.63952147      0.70190670
           -0.04251835     -0.00457020      0.01402839     -0.24517207     -0.19004342
 
           -0.00726077      0.02122621
           -0.00001903      0.00193459
            0.01226077     -0.01183112
            0.26860795     -0.02437151
            0.95864676      0.10320793
           -0.02129181      0.30757275
           -0.09049737      0.94528244
 
--
 
  THE ORIGINAL CI ARRAYS ARE NOW MIXED AS LINEAR
  COMBINATIONS, GIVEN BY THE EIGENVECTORS.
  A NEW JOBIPH FILE NAMED 'JOBMIX' IS PREPARED.
********************************************************************************
 
++ Mixed CI coefficients:
  The CI coefficients for the MIXED state nr.   1
--------------------------------------------------------------------------------
 CI COEFFICIENTS LARGER THAN  0.50D-01
  Occupation of active orbitals, and spin coupling
  of open shells. (u,d: Spin up or down).
  SGUGA info is (Midvert:IsyUp:UpperWalk/LowerWalk)
        Conf  SGUGA info        Occupation    Coefficient         Weight
           1  ( 1:1:   1/   1)   22222200       -0.971075       0.942987
           6  ( 1:1:   6/   1)   22220220        0.082303       0.006774
           7  ( 1:1:   7/   1)   22222u0d       -0.055570       0.003088
          15  ( 1:1:  15/   1)   22222002        0.091482       0.008369
          61  ( 2:1:   1/   3)   2u2222d0       -0.102143       0.010433
          84  ( 2:1:   4/   4)   u222220d       -0.079610       0.006338
          93  ( 2:1:  13/   4)   u2222d02        0.050717       0.002572
         171  ( 3:1:   1/   8)   20222220        0.080857       0.006538
         195  ( 3:1:   5/  10)   02222202        0.093869       0.008811
 
  The CI coefficients for the MIXED state nr.   2
--------------------------------------------------------------------------------
 CI COEFFICIENTS LARGER THAN  0.50D-01
  Occupation of active orbitals, and spin coupling
  of open shells. (u,d: Spin up or down).
  SGUGA info is (Midvert:IsyUp:UpperWalk/LowerWalk)
        Conf  SGUGA info        Occupation    Coefficient         Weight
           7  ( 1:1:   7/   1)   22222u0d        0.062815       0.003946
          24  ( 2:1:   4/   1)   222u220d       -0.959741       0.921102
          32  ( 2:1:  12/   1)   222u022d        0.079174       0.006269
          33  ( 2:1:  13/   1)   222u2d02        0.100934       0.010188
         135  ( 3:1:   5/   4)   u22d2202        0.189778       0.036016
         207  ( 4:1:   1/   2)   2u2u22dd        0.084095       0.007072
         261  ( 5:1:   1/   7)   202u222d       -0.081689       0.006673
 
  The CI coefficients for the MIXED state nr.   3
--------------------------------------------------------------------------------
 CI COEFFICIENTS LARGER THAN  0.50D-01
  Occupation of active orbitals, and spin coupling
  of open shells. (u,d: Spin up or down).
  SGUGA info is (Midvert:IsyUp:UpperWalk/LowerWalk)
        Conf  SGUGA info        Occupation    Coefficient         Weight
          21  ( 2:1:   1/   1)   222u22d0       -0.081800       0.006691
          41  ( 2:1:   1/   2)   22u222d0        0.946510       0.895881
          43  ( 2:1:   3/   2)   22u2d220       -0.165471       0.027381
          45  ( 2:1:   5/   2)   22u22dud        0.063324       0.004010
          47  ( 2:1:   7/   2)   22u22udd       -0.112904       0.012747
          55  ( 2:1:  15/   2)   22u220d2        0.077353       0.005983
         151  ( 3:1:   1/   6)   2ud22220       -0.137045       0.018781
         225  ( 4:1:   1/   5)   u2u222dd        0.071830       0.005160
         228  ( 4:1:   4/   5)   u2u22dd2       -0.059777       0.003573
         302  ( 5:1:   2/  17)   02u222d2       -0.101624       0.010327
 
  The CI coefficients for the MIXED state nr.   4
--------------------------------------------------------------------------------
 CI COEFFICIENTS LARGER THAN  0.50D-01
  Occupation of active orbitals, and spin coupling
  of open shells. (u,d: Spin up or down).
  SGUGA info is (Midvert:IsyUp:UpperWalk/LowerWalk)
        Conf  SGUGA info        Occupation    Coefficient         Weight
           2  ( 1:1:   2/   1)   22222ud0        0.149367       0.022311
           3  ( 1:1:   3/   1)   2222u2d0        0.510890       0.261009
           7  ( 1:1:   7/   1)   22222u0d        0.760482       0.578332
          12  ( 1:1:  12/   1)   2222uudd       -0.050827       0.002583
          14  ( 1:1:  14/   1)   22220u2d        0.061671       0.003803
          15  ( 1:1:  15/   1)   22222002        0.139195       0.019375
          21  ( 2:1:   1/   1)   222u22d0       -0.074599       0.005565
          24  ( 2:1:   4/   1)   222u220d        0.054374       0.002957
          61  ( 2:1:   1/   3)   2u2222d0       -0.079073       0.006253
          63  ( 2:1:   3/   3)   2u22d220       -0.113735       0.012936
          67  ( 2:1:   7/   3)   2u222udd       -0.073262       0.005367
          70  ( 2:1:  10/   3)   2u22du2d        0.054531       0.002974
          93  ( 2:1:  13/   4)   u2222d02       -0.194897       0.037985
         173  ( 3:1:   3/   8)   20222u2d        0.067897       0.004610
         195  ( 3:1:   5/  10)   02222202       -0.094436       0.008918
         197  ( 3:1:   7/  10)   0222u2d2       -0.055027       0.003028
 
  The CI coefficients for the MIXED state nr.   5
--------------------------------------------------------------------------------
 CI COEFFICIENTS LARGER THAN  0.50D-01
  Occupation of active orbitals, and spin coupling
  of open shells. (u,d: Spin up or down).
  SGUGA info is (Midvert:IsyUp:UpperWalk/LowerWalk)
        Conf  SGUGA info        Occupation    Coefficient         Weight
           2  ( 1:1:   2/   1)   22222ud0       -0.218355       0.047679
           3  ( 1:1:   3/   1)   2222u2d0       -0.751805       0.565211
           7  ( 1:1:   7/   1)   22222u0d        0.523260       0.273801
          12  ( 1:1:  12/   1)   2222uudd        0.075350       0.005678
          15  ( 1:1:  15/   1)   22222002        0.098213       0.009646
          18  ( 1:1:  18/   1)   2222u0d2       -0.066540       0.004428
          63  ( 2:1:   3/   3)   2u22d220        0.180157       0.032457
          88  ( 2:1:   8/   4)   u222u2dd       -0.052526       0.002759
          93  ( 2:1:  13/   4)   u2222d02       -0.133366       0.017786
         171  ( 3:1:   1/   8)   20222220        0.056038       0.003140
         195  ( 3:1:   5/  10)   02222202       -0.065514       0.004292
         197  ( 3:1:   7/  10)   0222u2d2        0.076607       0.005869
 
  The CI coefficients for the MIXED state nr.   6
--------------------------------------------------------------------------------
 CI COEFFICIENTS LARGER THAN  0.50D-01
  Occupation of active orbitals, and spin coupling
  of open shells. (u,d: Spin up or down).
  SGUGA info is (Midvert:IsyUp:UpperWalk/LowerWalk)
        Conf  SGUGA info        Occupation    Coefficient         Weight
           2  ( 1:1:   2/   1)   22222ud0       -0.902007       0.813616
           3  ( 1:1:   3/   1)   2222u2d0        0.260340       0.067777
          21  ( 2:1:   1/   1)   222u22d0        0.142111       0.020196
          27  ( 2:1:   7/   1)   222u2udd        0.055946       0.003130
          41  ( 2:1:   1/   2)   22u222d0        0.050966       0.002598
          63  ( 2:1:   3/   3)   2u22d220       -0.060110       0.003613
          85  ( 2:1:   5/   4)   u2222dud        0.138933       0.019302
          87  ( 2:1:   7/   4)   u2222udd       -0.195064       0.038050
         196  ( 3:1:   6/  10)   02222ud2        0.132816       0.017640
 
  The CI coefficients for the MIXED state nr.   7
--------------------------------------------------------------------------------
 CI COEFFICIENTS LARGER THAN  0.50D-01
  Occupation of active orbitals, and spin coupling
  of open shells. (u,d: Spin up or down).
  SGUGA info is (Midvert:IsyUp:UpperWalk/LowerWalk)
        Conf  SGUGA info        Occupation    Coefficient         Weight
           2  ( 1:1:   2/   1)   22222ud0       -0.146984       0.021604
           7  ( 1:1:   7/   1)   22222u0d       -0.092033       0.008470
          21  ( 2:1:   1/   1)   222u22d0       -0.895236       0.801447
          25  ( 2:1:   5/   1)   222u2dud        0.209221       0.043774
          27  ( 2:1:   7/   1)   222u2udd       -0.299261       0.089557
          41  ( 2:1:   1/   2)   22u222d0       -0.069380       0.004814
         216  ( 4:1:   4/   3)   u22u2dd2       -0.071434       0.005103
         270  ( 5:1:   2/   9)   022u22d2        0.083619       0.006992
 
--
 
--- Stop Module: caspt2 at Wed Nov 13 20:41:41 2024 /rc=_RC_ALL_IS_WELL_ ---
*** files: xmldump
    saved to directory /home/pcaah4
--- Module caspt2 spent 6 minutes 53 seconds ---

.##################.
.# Happy landing! #.
.##################.

    Timing: Wall=663.12 User=579.49 System=75.34
******************************************************
*** WorkDir at /srv/COMMUNAL_SCRATCH/10398 cleaned ***
******************************************************
