   This run of MOLCAS is using the pymolcas driver

                             OPE
                             OPE          NMOL  CASOP  ENMOLC A   SO
                 OPE        NMOLC        AS  OP EN  MO LC     AS  OP
                OPENM       OL CA        SO  PE NM  OL CA     SOP EN
                OP EN      MO   LC       AS  OP ENMOL  CASO   PENMOL
                OP  EN     MO   LC       AS  OP EN     MO     LC ASO
               OP   E  NMOL  C  AS       OP  EN MO     LC     AS  OP
               OP  E   NMO   LC AS        OPEN  MO     LCASOP EN   M
               O  PEN   MO  LCA  SO
            OPE   NMO   L   CAS    OP
        OPENMOL  CASOP     ENMOL   CASOPE
     OPENMOLCA   SOPENMOLCASOPEN   MOLCASOPE
    OPENMOLCAS   OP           EN   MOL    CAS
    OPENMOLCAS       OP  ENM        O     LCA
    OPENMOLCAS    OPEN  MOLCASO     P  E  NMO
    OPENMOLCAS     OP               E  N  MOL
    OPENMOLCA   SO           PENM   O  L  CAS    OPEN    MO    LCAS
    OPENMOLCA   SOP           ENM   O  L  CAS   OP  EN  MOLC  AS   O
    OPENMOLCA   SOPE           NM      O  LCA   S      OP  EN MO
    OPENMOLC                AS         O  PEN   M      OL  CA  SOPE
    OPENMO        LCASOPE  NMOL        C  ASO   P      ENMOLC     AS
    OPE     NMO      LCA  SO     P     E   NM   OL  CA SO  PE N   MO
          OPENMOLCA            SOPE   NMO        LCAS  O    P  ENMO
     OPENMOLCASOPENMOLCASOPENMOLCASOPENMOLCA
        OPENMOLCASOPENMOLCASOPENMOLCASOPE
            OPENMOLCASOPENMOLCASOPENM
               OPENMOLCASOPENMOLCA        version: v23.06
                   OPENMOLCASO
                       OPE                tag:

 OpenMolcas is free software; you can redistribute it and/or modify it
 under the terms of the GNU Lesser General Public License version 2.1.
 OpenMolcas is distributed in the hope that it will be useful, but it
 is provided "as is" and without any express or implied warranties.
 For more details see the full text of the license in the file
 LICENSE or in <http://www.gnu.org/licenses/>.

                 Copyright (C) The OpenMolcas Authors
           For the author list and the recommended citation,
                   consult the file CONTRIBUTORS.md

           *************************************************
           * pymolcas version py2.24                       *
           *   build 4567b286dd94b1984b333a4ddf893180      *
           *   (after the EMIL interpreter by V. Veryazov) *
           *************************************************

configuration info
------------------
Host name: loginchem01.nottingham.ac.uk (Linux)
C Compiler ID: Intel
C flags: -std=gnu99 -gcc-sys -qopenmp
Fortran Compiler ID: Intel
Fortran flags: -fpp -i8 -heap-arrays -qopenmp
Definitions: _MOLCAS_;_I8_;_LINUX_
Parallel: OFF (GA=OFF)


   ------------------------------------------------------------------------------------------------------------
  |
  |              Project: orca_geometry_optimisation_225_150_BP86_def2-SVP_def2J_scf_cas1_ras12i11_cas2_ras12i8
  |       Submitted from: /home/pcaah4
  |         Scratch area: /srv/COMMUNAL_SCRATCH/10395
  |      Save outputs to: /home/pcaah4
  |               Molcas: /software/chemistry/openmolcas/openmolcas-23.06-openmp
  |
  | Scratch area is empty
  |
  |       MOLCAS_DRIVER = /software/chemistry/openmolcas/openmolcas-23.06-openmp/sbin/pymolcas
  | MOLCAS_KEEP_WORKDIR = NO
  |       MOLCAS_NPROCS = 1
  |       MOLCAS_SOURCE = /software/chemistry/openmolcas/openmolcas-23.06-openmp
  |    MOLCAS_STRUCTURE = 0
  |
   ------------------------------------------------------------------------------------------------------------

++ ---------   Input file   ---------

&SEWARD
TITLE
orca_geometry_optimisation_225_150_BP86_def2-SVP_def2J_scf_cas1_ras12i11
MULTIPOLES
2
SDIPOLE
ANGMOM
0 0 0
BASIS SET
C.ANO-S...4S3P1D.
C1            0.012424   -0.020390    0.077667 /Angstrom
C3            2.109417    1.271506   -0.024501 /Angstrom
C4            3.268055    1.093948   -1.016835 /Angstrom
C6            4.737364    2.255743   -2.635607 /Angstrom
C19          -0.587233   -1.422251    0.085097 /Angstrom
END OF BASIS
BASIS SET
N.ANO-S...4S3P1D.
N2            1.386652    0.026819    0.095505 /Angstrom
N5            3.620379    2.220019   -1.708613 /Angstrom
END OF BASIS
BASIS SET
O.ANO-S...4S3P1D.
O7           -0.684866    0.994897    0.072769 /Angstrom
O8            3.829928    0.003760   -1.144938 /Angstrom
END OF BASIS
BASIS SET
H.ANO-S...2S1P.
H9           -1.223055   -1.532426    0.986148 /Angstrom
H10          -1.253686   -1.527983   -0.793865 /Angstrom
H11           0.165046   -2.235048    0.072399 /Angstrom
H12           1.953480   -0.816344   -0.038731 /Angstrom
H13           1.382245    2.054347   -0.326892 /Angstrom
H14           2.546095    1.593460    0.952075 /Angstrom
H15           3.071992    3.068465   -1.559902 /Angstrom
H16           4.407614    2.530802   -3.659716 /Angstrom
H17           5.519441    2.974986   -2.310914 /Angstrom
H18           5.173232    1.239292   -2.661972 /Angstrom
END OF BASIS
END OF INPUT

&RASSCF
TITLE
orca_geometry_optimisation_225_150_BP86_def2-SVP_def2J_scf_cas1_ras12i11
LUMORB
SPIN
1
SYMMETRY
1
NACTEL
12  0  0
INACTIVE
29
DELETED  ! delete Rydberg orbitals from an initial CAS(12,11) if done
3
FROZEN
0
RAS2
8
ITERATIONS
64 25
CIROOT
7 7
1 2 3 4 5 6 7
1 1 1 1 1 1 1
LEVSHFT
0.3
CIMX
20
FILEorb = /home/pcaah4/outputs/cas1_ras12i11_rasorb_files/orca_geometry_optimisation_225_150_BP86_def2-SVP_def2J_scf_cas1_ras12i11.RasOrb
ALTEr
3
 1 38 210
 1 39 211
 1 40 212
END OF INPUT

&RASSI
NROF JOBIPH
    1 7
    1 2 3 5 4 6 7
TOFILE
TRDI
TDMN
1.0D-6
END OF INPUT

&CASPT2
TITLE
orca_geometry_optimisation_225_150_BP86_def2-SVP_def2J_scf_cas1_ras12i11
MULTISTATE
7 1 2 3 4 5 6 7
SHIFT
0.35
MAXITER
50
END OF INPUT

-- ----------------------------------

--- Start Module: seward at Wed Nov 13 20:30:33 2024 ---
 
()()()()()()()()()()()()()()()()()()()()()()()()()()()()()()()()()()()()()()()()()()()()()()()()()()

                                              &SEWARD

                                   only a single process is used
                       available to each process: 2.0 GB of memory, 1 thread
                                            pid: 1795614
()()()()()()()()()()()()()()()()()()()()()()()()()()()()()()()()()()()()()()()()()()()()()()()()()()
 
               SEWARD will generate:
                  Multipole Moment integrals up to order  2
                  Kinetic Energy integrals
                  Nuclear Attraction integrals (point charge)
                  One-Electron Hamiltonian integrals
                  Velocity integrals
                  Orbital angular momentum around ( 0.0000  0.0000  0.0000 )
                  Velocity quadrupole around ( 3.7310  1.3509 -1.3267 )
                  Two-Electron Repulsion integrals
 
 Title:
            orca_geometry_optimisation_225_150_BP86_def2-SVP_def2J_scf_cas1_ras12i11    
 
 
                   Integrals are discarded if absolute value <: 0.10E-13
                   Integral cutoff threshold is set to       <: 0.10E-15
 
++    Symmetry information:
      ---------------------
 
                    Character Table for C1 
 
                             E  
                    a        1  x, y, xy, Rz, z, xz, Ry, yz, Rx, I
--
 
 
++    Basis set information:
      ----------------------
 
 
      Basis set label: C.ANO-S...4S3P1D......
 
      Electronic valence basis set:
      ------------------
      Associated Effective Charge   6.000000 au
      Associated Actual Charge      6.000000 au
      Nuclear Model: Point charge
 
      Shell  nPrim  nBasis  Cartesian Spherical Contaminant
         s      10       4        X                  
         p       6       3        X                  
         d       3       1                 X         
 
 
      Basis set label: N.ANO-S...4S3P1D......
 
      Electronic valence basis set:
      ------------------
      Associated Effective Charge   7.000000 au
      Associated Actual Charge      7.000000 au
      Nuclear Model: Point charge
 
      Shell  nPrim  nBasis  Cartesian Spherical Contaminant
         s      10       4        X                  
         p       6       3        X                  
         d       3       1                 X         
 
 
      Basis set label: O.ANO-S...4S3P1D......
 
      Electronic valence basis set:
      ------------------
      Associated Effective Charge   8.000000 au
      Associated Actual Charge      8.000000 au
      Nuclear Model: Point charge
 
      Shell  nPrim  nBasis  Cartesian Spherical Contaminant
         s      10       4        X                  
         p       6       3        X                  
         d       3       1                 X         
 
 
      Basis set label: H.ANO-S...2S1P......
 
      Electronic valence basis set:
      ------------------
      Associated Effective Charge   1.000000 au
      Associated Actual Charge      1.000000 au
      Nuclear Model: Point charge
 
      Shell  nPrim  nBasis  Cartesian Spherical Contaminant
         s       7       2        X                  
         p       3       1        X                  
--
 
 
++    Molecular structure info:
      -------------------------
 
                    ************************************************ 
                    **** Cartesian Coordinates / Bohr, Angstrom **** 
                    ************************************************ 
 
     Center  Label                x              y              z                     x              y              z
        1      C1               0.023478      -0.038532       0.146769              0.012424      -0.020390       0.077667
        2      C3               3.986220       2.402798      -0.046300              2.109417       1.271506      -0.024501
        3      C4               6.175729       2.067262      -1.921540              3.268055       1.093948      -1.016835
        4      C6               8.952321       4.262736      -4.980575              4.737364       2.255743      -2.635607
        5      C19             -1.109710      -2.687665       0.160810             -0.587233      -1.422251       0.085097
        6      N2               2.620393       0.050681       0.180478              1.386652       0.026819       0.095505
        7      N5               6.841525       4.195228      -3.228811              3.620379       2.220019      -1.708613
        8      O7              -1.294209       1.880083       0.137513             -0.684866       0.994897       0.072769
        9      O8               7.237515       0.007105      -2.163619              3.829928       0.003760      -1.144938
       10      H9              -2.311239      -2.895865       1.863550             -1.223055      -1.532426       0.986148
       11      H10             -2.369123      -2.887469      -1.500187             -1.253686      -1.527983      -0.793865
       12      H11              0.311892      -4.223629       0.136814              0.165046      -2.235048       0.072399
       13      H12              3.691542      -1.542667      -0.073191              1.953480      -0.816344      -0.038731
       14      H13              2.612064       3.882153      -0.617736              1.382245       2.054347      -0.326892
       15      H14              4.811422       3.011203       1.799161              2.546095       1.593460       0.952075
       16      H15              5.805224       5.798558      -2.947788              3.071992       3.068465      -1.559902
       17      H16              8.329183       4.782523      -6.915861              4.407614       2.530802      -3.659716
       18      H17             10.430232       5.621909      -4.366995              5.519441       2.974986      -2.310914
       19      H18              9.775992       2.341922      -5.030398              5.173232       1.239292      -2.661972
 
                    ************************************************* 
                    **** InterNuclear Distances / Bohr, Angstrom **** 
                    ************************************************* 
 
     Atom centers         Bohr        Angstrom
   16 H15       7 N5      1.929654        1.021129
   13 H12       6 N2      1.936612        1.024811
   19 H18       4 C6      2.090560        1.106277
   12 H11       5 C19     2.093015        1.107576
   11 H10       5 C19     2.094029        1.108112
   10 H9        5 C19     2.094360        1.108287
   14 H13       2 C3      2.098413        1.110432
   17 H16       4 C6      2.098525        1.110492
   18 H17       4 C6      2.099536        1.111027
   15 H14       2 C3      2.111123        1.117158
    8 O7        1 C1      2.327545        1.231684
    9 O8        3 C4      2.330287        1.233135
    7 N5        3 C4      2.584662        1.367744
    6 N2        1 C1      2.598665        1.375154
    6 N2        2 C3      2.729354        1.444312
    7 N5        4 C6      2.743847        1.451981
    5 C19       1 C1      2.881357        1.524748
    3 C4        2 C3      2.902250        1.535805
   11 H10      10 H9      3.364246        1.780282
   15 H14      14 H13     3.381881        1.789615
   19 H18      17 H16     3.406575        1.802682
   18 H17      17 H16     3.408180        1.803531
   12 H11      10 H9      3.409602        1.804284
   19 H18      18 H17     3.409757        1.804366
   12 H11      11 H10     3.413640        1.806420
   16 H15       3 C4      3.887548        2.057202
   19 H18       7 N5      3.910442        2.069317
   14 H13       6 N2      3.913745        2.071065
   13 H12       2 C3      3.956545        2.093714
   13 H12       1 C1      3.970579        2.101140
   17 H16       7 N5      4.019003        2.126765
   15 H14       6 N2      4.023113        2.128940
   18 H17       7 N5      4.026127        2.130535
   16 H15       4 C6      4.049098        2.142690
   11 H10       1 C1      4.068594        2.153007
   10 H9        1 C1      4.069717        2.153601
   15 H14       3 C4      4.073815        2.155770
   12 H11       1 C1      4.195035        2.219917
   14 H13       3 C4      4.206357        2.225908
   13 H12      12 H11     4.318993        2.285512
    8 O7        6 N2      4.321188        2.286674
    9 O8        7 N5      4.339563        2.296398
   16 H15      14 H13     4.392950        2.324649
   13 H12       9 O8      4.398364        2.327514
   14 H13       8 O7      4.453949        2.356928
   19 H18       9 O8      4.484825        2.373267
    9 O8        2 C3      4.559967        2.413031
    8 O7        5 C19     4.571532        2.419150
    6 N2        3 C4      4.596248        2.432230
    6 N2        5 C19     4.627373        2.448701
    7 N5        2 C3      4.636156        2.453348
    2 C3        1 C1      4.658400        2.465119
    4 C6        3 C4      4.678383        2.475694
   13 H12       3 C4      4.755961        2.516746
   14 H13       1 C1      4.759939        2.518851
   19 H18       3 C4      4.764696        2.521369
   17 H16      16 H15     4.811269        2.546014
   16 H15       2 C3      4.822716        2.552071
   18 H17      16 H15     4.841080        2.561789
   12 H11       6 N2      4.858066        2.570778
   13 H12       5 C19     4.941437        2.614896
   14 H13       7 N5      4.980367        2.635497
   15 H14      13 H12     5.049511        2.672086
   11 H10       8 O7      5.154324        2.727551
    9 O8        6 N2      5.178273        2.740224
   10 H9        8 O7      5.179115        2.740670
    8 O7        2 C3      5.309421        2.809625
    9 O8        4 C6      5.383883        2.849028
   15 H14       9 O8      5.533006        2.927941
   15 H14       7 N5      5.550111        2.936992
   14 H13      13 H12     5.557920        2.941124
   16 H15      15 H14     5.593792        2.960107
   19 H18      16 H15     5.661501        2.995938
--
 
 
            Nuclear Potential Energy            447.99917049 au
 
 
      Basis set specifications :
      Symmetry species         a  
      Basis functions          212
 
 
      Input file to MOLDEN was generated!
 
--- Stop Module: seward at Wed Nov 13 20:32:21 2024 /rc=_RC_ALL_IS_WELL_ ---
*** files: orca_geometry_optimisation_225_150_BP86_def2-SVP_def2J_scf_cas1_ras12i11_cas2_ras12i8.GssOrb
           orca_geometry_optimisation_225_150_BP86_def2-SVP_def2J_scf_cas1_ras12i11_cas2_ras12i8.guessorb.molden xmldump
    saved to directory /home/pcaah4
--- Module seward spent 1 minute 47 seconds ---

*** symbolic link created: INPORB -> orca_geometry_optimisation_225_150_BP86_def2-SVP_def2J_scf_cas1_ras12i11_cas2_ras12i8.GssOrb
--- Start Module: rasscf at Wed Nov 13 20:32:21 2024 ---
 
()()()()()()()()()()()()()()()()()()()()()()()()()()()()()()()()()()()()()()()()()()()()()()()()()()

                                              &RASSCF

                                   only a single process is used
                       available to each process: 2.0 GB of memory, 1 thread
                                            pid: 1795882
()()()()()()()()()()()()()()()()()()()()()()()()()()()()()()()()()()()()()()()()()()()()()()()()()()
 
 
      Header of the ONEINT file:
      --------------------------
      orca_geometry_optimisation_225_150_BP86_def2-SVP_def2J_scf_cas1_ras12i11
      Integrals generated by Gateway/Seward, Wed Nov 13 20:30:34 2024
 
 
      OrdInt status: non-squared
 
 
      Cartesian coordinates in Angstrom:
      -----------------------------------------------------
      No.  Label        X            Y            Z        
      -----------------------------------------------------
       1   C1         0.01242400  -0.02039000   0.07766700
       2   C3         2.10941700   1.27150600  -0.02450100
       3   C4         3.26805500   1.09394800  -1.01683500
       4   C6         4.73736400   2.25574300  -2.63560700
       5   C19       -0.58723300  -1.42225100   0.08509700
       6   N2         1.38665200   0.02681900   0.09550500
       7   N5         3.62037900   2.22001900  -1.70861300
       8   O7        -0.68486600   0.99489700   0.07276900
       9   O8         3.82992800   0.00376000  -1.14493800
      10   H9        -1.22305500  -1.53242600   0.98614800
      11   H10       -1.25368600  -1.52798300  -0.79386500
      12   H11        0.16504600  -2.23504800   0.07239900
      13   H12        1.95348000  -0.81634400  -0.03873100
      14   H13        1.38224500   2.05434700  -0.32689200
      15   H14        2.54609500   1.59346000   0.95207500
      16   H15        3.07199200   3.06846500  -1.55990200
      17   H16        4.40761400   2.53080200  -3.65971600
      18   H17        5.51944100   2.97498600  -2.31091400
      19   H18        5.17323200   1.23929200  -2.66197200
      -----------------------------------------------------
      Nuclear repulsion energy =  447.99917049
 
++    Wave function specifications:
      -----------------------------
 
      Number of closed shell electrons          58
      Number of electrons in active shells      12
      Max number of holes in RAS1 space          0
      Max nr of electrons in RAS3 space          0
      Number of inactive orbitals               29
      Number of active orbitals                  8
      Number of secondary orbitals             172
      Spin quantum number                      0.0
      State symmetry                             1
--
 
++    Orbital specifications:
      -----------------------
 
      Symmetry species                           1
                                                 a
      Frozen orbitals                            0
      Inactive orbitals                         29
      Active orbitals                            8
      RAS1 orbitals                              0
      RAS2 orbitals                              8
      RAS3 orbitals                              0
      Secondary orbitals                       172
      Deleted orbitals                           3
      Number of basis functions                212
--
 
++    CI expansion specifications:
      ----------------------------
 
      Number of CSFs                           336
      Number of determinants                   406
      Number of root(s) required                 7
      Root chosen for geometry opt.              7
      CI roots used                              1     2     3     4     5     6     7
      weights                                0.143 0.143 0.143 0.143 0.143 0.143 0.143
      highest root included in the CI            7
      max. size of the explicit Hamiltonian    200
--
 
++    Optimization specifications:
      ----------------------------
 
      RASSCF algorithm: Conventional
      Maximum number of macro iterations        64
      Maximum number of SX iterations           25
      Threshold for RASSCF energy            0.100E-07
      Threshold for max MO rotation          0.100E+00
      Threshold for max BLB element          0.100E-03
      Level shift parameter                  0.300E+00
      Make Quasi-Newton update
--
 
      The MO-coefficients are taken from the file:
      /home/pcaah4/outputs/cas1_ras12i11_rasorb_files/orca_geometry_optimisation_225_150_BP86_def2-SVP_def2J_scf_cas1_ras12i11.RasOrb                                                                                                                                 
      Title: RASSCF average (pseudo-natural) orbitals                                      
 
      Total molecular charge    0.00
 
      Molecular orbitals exchanged:
        In symmetry  1 :  38 210
        In symmetry  1 :  39 211
        In symmetry  1 :  40 212
 
 
      ************************************************************************************************************************
      *                                                                                                                      *
      *                                            Wave function control section                                             *
      *                                                                                                                      *
      ************************************************************************************************************************
 
 
                                         RASSCF iterations: Energy and convergence statistics
                                         ----------------------------------------------------
 
      Iter CI   SX   CI       RASSCF       Energy    max ROT     max BLB   max BLB  Level Ln srch  Step   QN   Walltime
          iter iter root      energy       change     param      element    value   shift minimum  type update hh:mm:ss
 Nr of preliminary CI iterations:   4
        1   1   11    0  -453.70347208    0.00E+00   0.56E-01   34 143 1  0.19E-01*  0.20   0.00    SX    NO    0:00:13
        2   3    9    0  -453.70658245   -0.31E-02*  0.36E-01   34 143 1  0.31E-02*  0.20   0.00    SX    NO    0:00:06
        3   3    9    0  -453.70714023   -0.56E-03* -0.22E-01   36  54 1 -0.12E-02*  0.20   0.00    SX    NO    0:00:06
        4   4    8    0  -453.70731471   -0.17E-03* -0.14E-01   36  54 1 -0.75E-03*  0.20   0.00    SX    NO    0:00:06
        5   5    8    0  -453.70737976   -0.65E-04* -0.19E-01   36  54 1 -0.52E-03*  0.20   2.50    LS   YES    0:00:06
        6   4    7    0  -453.70742013   -0.40E-04* -0.46E-02   22  98 1  0.32E-03*  0.20   1.19    QN   YES    0:00:06
        7   4    7    0  -453.70742716   -0.70E-05*  0.15E-02   36  41 1  0.15E-03*  0.20   1.19    QN   YES    0:00:06
        8   6    7    0  -453.70742909   -0.19E-05* -0.11E-02   36  41 1  0.84E-04   0.20   1.43    QN   YES    0:00:06
        9   3    6    0  -453.70742962   -0.54E-06* -0.40E-03   36  41 1  0.38E-04   0.20   1.14    QN   YES    0:00:06
       10   3    6    0  -453.70742973   -0.10E-06*  0.37E-03   36  41 1  0.21E-04   0.20   1.70    QN   YES    0:00:06
       11   3    6    0  -453.70742977   -0.48E-07*  0.11E-03   36  49 1  0.75E-05   0.20   1.22    QN   YES    0:00:06
       12   1    5    0  -453.70742978   -0.78E-08   0.73E-04   36  42 1 -0.48E-05   0.20   1.35    QN   YES    0:00:06
      Convergence after 12 iterations
       13   1    5    0  -453.70742978   -0.24E-08   0.73E-04   36  42 1 -0.25E-05   0.20   1.35    QN   YES    0:00:06
 
      ************************************************************************************************************************
                                                      Wave function printout:
                       occupation of active orbitals, and spin coupling of open shells (u,d: Spin up or down)
      ************************************************************************************************************************
 
      Note: transformation to natural orbitals
      has been made, which may change the order of the CSFs.
 
      printout of CI-coefficients larger than  0.05 for root  1
      energy=    -453.958056
      conf/sym  11111111     Coeff  Weight
             1  22222200   0.96515 0.93151
             6  22220220  -0.07593 0.00577
             7  22222u0d   0.13070 0.01708
            15  22222002  -0.07946 0.00631
            64  2u22220d  -0.07858 0.00618
            73  2u222d02   0.06251 0.00391
            81  u22222d0   0.09936 0.00987
           175  20222202  -0.09938 0.00988
           191  02222220  -0.07556 0.00571
 
      printout of CI-coefficients larger than  0.05 for root  2
      energy=    -453.744573
      conf/sym  11111111     Coeff  Weight
            21  222u22d0   0.05985 0.00358
            24  222u220d  -0.96264 0.92668
            32  222u022d   0.07441 0.00554
            33  222u2d02   0.09670 0.00935
           125  2u2d2202  -0.18480 0.03415
           213  u22u22dd   0.08288 0.00687
           269  022u222d  -0.07608 0.00579
 
      printout of CI-coefficients larger than  0.05 for root  3
      energy=    -453.724012
      conf/sym  11111111     Coeff  Weight
             2  22222ud0  -0.17141 0.02938
             3  2222u2d0   0.05126 0.00263
            21  222u22d0  -0.09441 0.00891
            41  22u222d0  -0.93385 0.87208
            43  22u2d220  -0.15272 0.02332
            45  22u22dud  -0.06444 0.00415
            47  22u22udd   0.11619 0.01350
            55  22u220d2  -0.07807 0.00609
           161  u2d22220   0.11918 0.01420
           219  2uu222dd   0.06699 0.00449
           222  2uu22dd2  -0.05401 0.00292
           294  20u222d2   0.09702 0.00941
 
      printout of CI-coefficients larger than  0.05 for root  4
      energy=    -453.647375
      conf/sym  11111111     Coeff  Weight
             2  22222ud0   0.70711 0.50000
             3  2222u2d0  -0.61525 0.37853
            12  2222uudd   0.07146 0.00511
            18  2222u0d2  -0.05715 0.00327
            41  22u222d0  -0.15663 0.02453
            65  2u222dud   0.10257 0.01052
            67  2u222udd  -0.14760 0.02178
            83  u222d220   0.15688 0.02461
           176  20222ud2  -0.09947 0.00989
           177  2022u2d2   0.06034 0.00364
 
      printout of CI-coefficients larger than  0.05 for root  5
      energy=    -453.640357
      conf/sym  11111111     Coeff  Weight
             1  22222200   0.06363 0.00405
             2  22222ud0   0.56960 0.32444
             3  2222u2d0   0.65782 0.43272
             7  22222u0d  -0.35758 0.12787
            12  2222uudd  -0.05596 0.00313
            15  22222002  -0.07401 0.00548
            18  2222u0d2   0.05341 0.00285
            41  22u222d0  -0.06189 0.00383
            65  2u222dud   0.09654 0.00932
            67  2u222udd  -0.12704 0.01614
            68  2u22u2dd  -0.05044 0.00254
            73  2u222d02  -0.09282 0.00862
            81  u22222d0   0.05848 0.00342
            83  u222d220  -0.14503 0.02104
           176  20222ud2  -0.08168 0.00667
           177  2022u2d2  -0.06881 0.00474
 
      printout of CI-coefficients larger than  0.05 for root  6
      energy=    -453.622022
      conf/sym  11111111     Coeff  Weight
             1  22222200  -0.10911 0.01191
             2  22222ud0   0.23528 0.05536
             3  2222u2d0   0.28911 0.08358
             7  22222u0d   0.83128 0.69103
            14  22220u2d   0.06915 0.00478
            15  22222002   0.16307 0.02659
            21  222u22d0   0.16359 0.02676
            27  222u2udd   0.05927 0.00351
            67  2u222udd  -0.06469 0.00418
            73  2u222d02   0.21749 0.04730
            83  u222d220  -0.07431 0.00552
            87  u2222udd  -0.08043 0.00647
           175  20222202  -0.09262 0.00858
           193  02222u2d   0.06124 0.00375
 
      printout of CI-coefficients larger than  0.05 for root  7
      energy=    -453.615613
      conf/sym  11111111     Coeff  Weight
             7  22222u0d  -0.16817 0.02828
            21  222u22d0   0.88544 0.78400
            24  222u220d   0.05708 0.00326
            25  222u2dud  -0.21690 0.04704
            27  222u2udd   0.30806 0.09490
            41  22u222d0  -0.09123 0.00832
           210  2u2u2dd2  -0.07709 0.00594
           262  202u22d2  -0.08307 0.00690
 
      Natural orbitals and occupation numbers for root  1
      sym 1:   1.976428   1.995616   1.999893   1.999845   1.994372   1.956445   0.029308   0.048093
 
      Natural orbitals and occupation numbers for root  2
      sym 1:   1.975927   1.999951   1.999655   1.000531   1.994852   1.999823   0.029580   0.999680
 
      Natural orbitals and occupation numbers for root  3
      sym 1:   1.999865   1.994711   1.010109   1.998735   1.999195   1.954562   0.992612   0.050211
 
      Natural orbitals and occupation numbers for root  4
      sym 1:   1.987900   1.930310   1.999414   1.999625   1.975450   1.044156   0.990430   0.072716
 
      Natural orbitals and occupation numbers for root  5
      sym 1:   1.977636   1.939409   1.999482   1.999652   1.887033   1.102984   0.936767   0.157036
 
      Natural orbitals and occupation numbers for root  6
      sym 1:   1.981709   1.957023   1.999499   1.994587   1.882613   1.113562   0.151976   0.919031
 
      Natural orbitals and occupation numbers for root  7
      sym 1:   1.999518   1.987418   1.996033   1.133917   1.997653   1.909777   0.871848   0.103834
 
      ************************************************************************************************************************
      *                                                                                                                      *
      *                                                    Final results                                                     *
      *                                                                                                                      *
      ************************************************************************************************************************
 
 
++    Wave function specifications:
      -----------------------------
 
      Number of closed shell electrons          58
      Number of electrons in active shells      12
      Max number of holes in RAS1 space          0
      Max nr of electrons in RAS3 space          0
      Number of inactive orbitals               29
      Number of active orbitals                  8
      Number of secondary orbitals             172
      Spin quantum number                      0.0
      State symmetry                             1
--
 
++    Orbital specifications:
      -----------------------
 
      Symmetry species                           1
                                                 a
      Frozen orbitals                            0
      Inactive orbitals                         29
      Active orbitals                            8
      RAS1 orbitals                              0
      RAS2 orbitals                              8
      RAS3 orbitals                              0
      Secondary orbitals                       172
      Deleted orbitals                           3
      Number of basis functions                212
--
 
++    CI expansion specifications:
      ----------------------------
 
      Number of CSFs                           336
      Number of determinants                   406
      Number of root(s) required                 7
      CI roots used                              1     2     3     4     5     6     7
      weights                                0.143 0.143 0.143 0.143 0.143 0.143 0.143
      highest root included in the CI            7
      Root passed to geometry opt.               7
--
 
++    Final optimization conditions:
      ------------------------------
 
      Average CI energy                            -453.70742978
      RASSCF energy for state  7                   -453.61561283
      Super-CI energy                                -0.00000000
      RASSCF energy change                            0.00000000
      Max change in MO coefficients               0.681E-04
      Max non-diagonal density matrix element     0.731E-04
      Maximum BLB matrix element                 -0.251E-05
      (orbital pair  36,  42 in symmetry   1)
      Norm of electronic gradient            0.363E+00
--
 
 
      Final state energy(ies):
      ------------------------
 
::    RASSCF root number  1 Total energy:   -453.95805611
::    RASSCF root number  2 Total energy:   -453.74457307
::    RASSCF root number  3 Total energy:   -453.72401203
::    RASSCF root number  4 Total energy:   -453.64737526
::    RASSCF root number  5 Total energy:   -453.64035692
::    RASSCF root number  6 Total energy:   -453.62202228
::    RASSCF root number  7 Total energy:   -453.61561283
 
++    Molecular orbitals:
      -------------------
 
      Pseudonatural active orbitals and approximate occupation numbers
 
 
 
 
      Molecular orbitals for symmetry species 1: a  
 
 
      Orbital                 1         2         3         4         5         6         7         8         9        10
      Energy           -20.6045  -20.5358  -15.6342  -15.5858  -11.3407  -11.2921  -11.2887  -11.2634  -11.2564   -1.4244
      Occ. No.           2.0000    2.0000    2.0000    2.0000    2.0000    2.0000    2.0000    2.0000    2.0000    2.0000
 
     1 C1     1s         0.0003    0.0000    0.0003    0.0000    1.0000   -0.0000    0.0001   -0.0000   -0.0037   -0.0395
     2 C1     2s         0.0010    0.0001    0.0014    0.0002    0.0024   -0.0002   -0.0004   -0.0003   -0.0005    0.3493
     3 C1     3s        -0.0004    0.0000    0.0007    0.0001   -0.0000   -0.0002   -0.0005   -0.0002   -0.0007   -0.0076
     4 C1     4s        -0.0004   -0.0000    0.0001    0.0000    0.0013   -0.0001   -0.0002   -0.0001   -0.0002    0.0029
     5 C1     2px       -0.0014    0.0000    0.0017   -0.0001    0.0012   -0.0004   -0.0000   -0.0002   -0.0004   -0.0448
     6 C1     3px       -0.0010   -0.0002    0.0013   -0.0002    0.0012   -0.0006   -0.0004   -0.0002    0.0001    0.0296
     7 C1     4px        0.0002   -0.0001   -0.0001   -0.0001    0.0004   -0.0001   -0.0003   -0.0001    0.0002   -0.0137
     8 C1     2py        0.0030   -0.0001    0.0002   -0.0001    0.0011   -0.0005    0.0001   -0.0002   -0.0006    0.0944
     9 C1     3py        0.0020   -0.0001    0.0002   -0.0001    0.0009   -0.0007   -0.0004   -0.0003    0.0002   -0.0681
    10 C1     4py       -0.0004   -0.0000   -0.0000   -0.0000    0.0007   -0.0001   -0.0004   -0.0001    0.0003    0.0231
    11 C1     2pz        0.0000   -0.0002    0.0000   -0.0000    0.0001    0.0002    0.0000    0.0000   -0.0000   -0.0011
    12 C1     3pz        0.0000   -0.0003    0.0001   -0.0001    0.0000    0.0002    0.0000    0.0000   -0.0000   -0.0025
    13 C1     4pz       -0.0000   -0.0000    0.0000   -0.0001    0.0000    0.0000   -0.0000    0.0000   -0.0000   -0.0004
    14 C1     3d2-       0.0001   -0.0000    0.0001   -0.0000   -0.0004   -0.0000    0.0000   -0.0000    0.0000   -0.0333
    15 C1     3d1-       0.0000   -0.0000    0.0000   -0.0000    0.0000    0.0000   -0.0000    0.0000   -0.0000   -0.0002
    16 C1     3d0       -0.0000   -0.0000    0.0001   -0.0000   -0.0004    0.0000   -0.0001   -0.0000    0.0001   -0.0280
    17 C1     3d1+       0.0000   -0.0000   -0.0000    0.0000   -0.0000    0.0000   -0.0000   -0.0000    0.0000   -0.0001
    18 C1     3d2+       0.0001    0.0000   -0.0002    0.0000   -0.0000   -0.0000    0.0000    0.0000   -0.0000   -0.0088
    19 C3     1s         0.0001   -0.0000    0.0004   -0.0000   -0.0001    0.0853    0.9959    0.0000    0.0001   -0.0099
    20 C3     2s         0.0004   -0.0002    0.0020    0.0000    0.0007   -0.0001   -0.0012    0.0006    0.0008    0.0171
    21 C3     3s         0.0002   -0.0002    0.0009    0.0000    0.0004   -0.0005   -0.0025    0.0003    0.0005   -0.0190
    22 C3     4s         0.0000   -0.0002    0.0001   -0.0000   -0.0000    0.0000    0.0007    0.0000    0.0001   -0.0018
    23 C3     2px       -0.0001   -0.0004   -0.0003    0.0002    0.0008   -0.0004   -0.0009    0.0002    0.0003   -0.0234
    24 C3     3px        0.0001   -0.0004    0.0001    0.0000    0.0013   -0.0010   -0.0008   -0.0001    0.0004   -0.0124
    25 C3     4px        0.0001   -0.0001    0.0002   -0.0001    0.0004   -0.0003   -0.0004   -0.0002    0.0001   -0.0058
    26 C3     2py       -0.0002    0.0009   -0.0004   -0.0005    0.0005   -0.0000   -0.0002    0.0002   -0.0001   -0.0206
    27 C3     3py       -0.0002    0.0008    0.0002   -0.0005    0.0006   -0.0001   -0.0000    0.0003    0.0000   -0.0049
    28 C3     4py        0.0000   -0.0000    0.0002    0.0000    0.0001   -0.0001   -0.0008    0.0001    0.0001   -0.0047
    29 C3     2pz        0.0003   -0.0009   -0.0002    0.0005   -0.0002   -0.0000    0.0004   -0.0004    0.0001   -0.0022
    30 C3     3pz        0.0003   -0.0007   -0.0003    0.0006   -0.0003    0.0003    0.0001   -0.0003    0.0001    0.0002
    31 C3     4pz        0.0000    0.0001   -0.0000    0.0001   -0.0001    0.0000   -0.0001    0.0000   -0.0000    0.0016
    32 C3     3d2-       0.0001    0.0000    0.0000   -0.0000    0.0000   -0.0001   -0.0000   -0.0000    0.0000    0.0033
    33 C3     3d1-      -0.0000   -0.0001    0.0000    0.0000   -0.0000    0.0001    0.0000    0.0000    0.0000   -0.0002
    34 C3     3d0       -0.0000   -0.0000    0.0001   -0.0000   -0.0000    0.0000    0.0000    0.0000   -0.0000   -0.0027
    35 C3     3d1+       0.0000   -0.0001    0.0000   -0.0000    0.0000    0.0001    0.0001   -0.0001    0.0000   -0.0011
    36 C3     3d2+      -0.0000   -0.0000    0.0001   -0.0000    0.0000    0.0001    0.0000    0.0001   -0.0000   -0.0006
    37 C4     1s         0.0000    0.0003   -0.0002    0.0003   -0.0002    0.9964   -0.0853    0.0003   -0.0001   -0.0004
    38 C4     2s         0.0003    0.0012   -0.0012    0.0011   -0.0013    0.0029    0.0006   -0.0006   -0.0004    0.0343
    39 C4     3s         0.0001   -0.0002   -0.0009    0.0004   -0.0011    0.0004    0.0002   -0.0005   -0.0003    0.0098
    40 C4     4s        -0.0000   -0.0003   -0.0003    0.0001   -0.0004    0.0014   -0.0001   -0.0002   -0.0001    0.0036
    41 C4     2px       -0.0001    0.0016    0.0005    0.0005    0.0003    0.0005   -0.0007    0.0000    0.0002   -0.0056
    42 C4     3px        0.0001    0.0010    0.0006    0.0004    0.0005    0.0003   -0.0000   -0.0005    0.0003   -0.0096
    43 C4     4px        0.0001   -0.0002    0.0001   -0.0000    0.0001    0.0004    0.0002   -0.0004    0.0001   -0.0029
    44 C4     2py       -0.0001   -0.0029   -0.0003    0.0013   -0.0000    0.0008    0.0000   -0.0004    0.0001   -0.0066
    45 C4     3py       -0.0002   -0.0020   -0.0001    0.0009   -0.0001    0.0006    0.0003   -0.0005    0.0000    0.0003
    46 C4     4py       -0.0001    0.0004    0.0002   -0.0001   -0.0000    0.0001    0.0002   -0.0001   -0.0000   -0.0004
    47 C4     2pz       -0.0002   -0.0002   -0.0000   -0.0009   -0.0001   -0.0001    0.0009    0.0002   -0.0003    0.0073
    48 C4     3pz       -0.0004   -0.0001   -0.0001   -0.0007   -0.0002   -0.0002    0.0005    0.0007   -0.0003    0.0083
    49 C4     4pz       -0.0001    0.0001   -0.0001    0.0001   -0.0000   -0.0002   -0.0001    0.0004   -0.0000    0.0024
    50 C4     3d2-       0.0000    0.0001    0.0001   -0.0000   -0.0000   -0.0002    0.0000    0.0000    0.0000   -0.0013
    51 C4     3d1-      -0.0000   -0.0001    0.0001    0.0001    0.0000   -0.0001    0.0000   -0.0001   -0.0000   -0.0003
    52 C4     3d0        0.0000    0.0001   -0.0000    0.0001    0.0000   -0.0002    0.0001   -0.0000    0.0000   -0.0011
    53 C4     3d1+      -0.0000   -0.0001   -0.0000    0.0000    0.0000   -0.0001    0.0000   -0.0000    0.0000   -0.0006
    54 C4     3d2+       0.0000    0.0000   -0.0000    0.0002    0.0000   -0.0003    0.0001   -0.0000    0.0000   -0.0012
    55 C6     1s         0.0001    0.0001   -0.0000    0.0003   -0.0000   -0.0004    0.0001    0.9997    0.0000    0.0001
    56 C6     2s         0.0003    0.0006   -0.0002    0.0014   -0.0004   -0.0003    0.0004    0.0001   -0.0000    0.0051
    57 C6     3s         0.0002    0.0004   -0.0002    0.0003   -0.0004   -0.0004    0.0003   -0.0016   -0.0001    0.0048
    58 C6     4s         0.0000    0.0001   -0.0001   -0.0001   -0.0001   -0.0002    0.0001    0.0009   -0.0000    0.0022
    59 C6     2px        0.0000   -0.0002    0.0000   -0.0004    0.0002    0.0001   -0.0003   -0.0001    0.0001   -0.0052
    60 C6     3px        0.0001   -0.0001   -0.0000    0.0001    0.0002    0.0002   -0.0003    0.0002    0.0001   -0.0045
    61 C6     4px        0.0000    0.0000   -0.0000    0.0002    0.0000    0.0000    0.0000   -0.0005   -0.0000   -0.0003
    62 C6     2py        0.0000   -0.0002   -0.0000    0.0001   -0.0001    0.0003   -0.0000    0.0002    0.0000   -0.0009
    63 C6     3py        0.0001   -0.0001   -0.0000    0.0002   -0.0000    0.0004   -0.0001   -0.0001    0.0001   -0.0015
    64 C6     4py        0.0000    0.0001    0.0000    0.0000    0.0000    0.0001   -0.0000   -0.0001    0.0000   -0.0007
    65 C6     2pz        0.0001    0.0002   -0.0002    0.0003   -0.0002   -0.0004   -0.0000   -0.0000   -0.0000    0.0028
    66 C6     3pz        0.0001    0.0001   -0.0002   -0.0002   -0.0002   -0.0005   -0.0001   -0.0002   -0.0000    0.0030
    67 C6     4pz       -0.0000   -0.0000   -0.0000   -0.0002   -0.0001   -0.0001   -0.0000    0.0004   -0.0000    0.0009
    68 C6     3d2-       0.0000   -0.0000   -0.0000    0.0001   -0.0000    0.0000   -0.0000    0.0000    0.0000    0.0000
    69 C6     3d1-      -0.0000   -0.0000    0.0000   -0.0000    0.0000   -0.0001    0.0000   -0.0000    0.0000   -0.0001
    70 C6     3d0       -0.0000   -0.0000   -0.0000    0.0000   -0.0000    0.0000    0.0000    0.0000   -0.0000    0.0002
    71 C6     3d1+      -0.0000   -0.0000    0.0000    0.0001    0.0000   -0.0000   -0.0000    0.0001    0.0000   -0.0003
    72 C6     3d2+      -0.0000    0.0000   -0.0000   -0.0000   -0.0000   -0.0000    0.0000   -0.0001   -0.0000    0.0003
    73 C19    1s         0.0002    0.0000   -0.0000   -0.0000    0.0036   -0.0000    0.0002   -0.0000    1.0000   -0.0145
    74 C19    2s         0.0012    0.0001   -0.0001   -0.0001    0.0005   -0.0002    0.0008   -0.0002    0.0019   -0.0131
    75 C19    3s         0.0007    0.0001    0.0000   -0.0001    0.0002   -0.0002    0.0004   -0.0002   -0.0005   -0.0393
    76 C19    4s         0.0001   -0.0000   -0.0000   -0.0000    0.0001   -0.0001   -0.0000   -0.0001    0.0012   -0.0037
    77 C19    2px        0.0008    0.0000   -0.0003   -0.0000   -0.0002    0.0001    0.0002   -0.0000   -0.0002   -0.0109
    78 C19    3px        0.0005    0.0001   -0.0003    0.0000   -0.0003    0.0001    0.0002    0.0000   -0.0001   -0.0079
    79 C19    4px       -0.0002   -0.0000    0.0000    0.0000   -0.0000    0.0000   -0.0000    0.0000    0.0002    0.0075
    80 C19    2py       -0.0001   -0.0001    0.0004   -0.0000    0.0004   -0.0001    0.0002   -0.0001   -0.0002    0.0207
    81 C19    3py       -0.0003   -0.0001    0.0003   -0.0001   -0.0001   -0.0001    0.0000   -0.0001   -0.0000   -0.0062
    82 C19    4py       -0.0002   -0.0000   -0.0001   -0.0000   -0.0001   -0.0000   -0.0001    0.0000    0.0004    0.0058
    83 C19    2pz       -0.0000   -0.0001    0.0001    0.0001    0.0000   -0.0000    0.0002   -0.0000    0.0000    0.0001
    84 C19    3pz       -0.0000   -0.0001    0.0000    0.0001    0.0000   -0.0000    0.0001   -0.0000    0.0000    0.0004
    85 C19    4pz        0.0000    0.0000   -0.0000    0.0000   -0.0000   -0.0000   -0.0000    0.0000    0.0000    0.0000
    86 C19    3d2-       0.0001   -0.0000   -0.0000    0.0000    0.0000    0.0000    0.0001   -0.0000   -0.0001    0.0002
    87 C19    3d1-      -0.0000    0.0000   -0.0000   -0.0000    0.0000   -0.0000   -0.0000    0.0000    0.0000    0.0000
    88 C19    3d0       -0.0001   -0.0000   -0.0001    0.0000    0.0001    0.0000   -0.0000    0.0000    0.0001    0.0015
    89 C19    3d1+       0.0000    0.0000   -0.0000   -0.0000   -0.0000   -0.0000   -0.0000    0.0000    0.0000    0.0001
    90 C19    3d2+       0.0001   -0.0000   -0.0000   -0.0000   -0.0001    0.0000   -0.0000    0.0000    0.0001   -0.0069
    91 N2     1s         0.0001   -0.0000    0.9999   -0.0000   -0.0002    0.0001    0.0001    0.0000    0.0001   -0.0181
    92 N2     2s         0.0005   -0.0001    0.0002   -0.0000   -0.0001    0.0005    0.0013    0.0001    0.0006    0.1147
    93 N2     3s         0.0004    0.0000   -0.0013    0.0000   -0.0002    0.0003    0.0007    0.0001    0.0004   -0.0489
    94 N2     4s         0.0001    0.0000    0.0005    0.0000    0.0001    0.0001    0.0002    0.0000    0.0001   -0.0117
    95 N2     2px        0.0002    0.0001    0.0007    0.0001   -0.0001    0.0002    0.0009   -0.0001   -0.0004   -0.0317
    96 N2     3px        0.0002    0.0000    0.0008    0.0001    0.0001    0.0003    0.0008   -0.0002   -0.0004    0.0138
    97 N2     4px        0.0000   -0.0001   -0.0001    0.0000   -0.0002    0.0000    0.0000   -0.0001    0.0001   -0.0060
    98 N2     2py       -0.0015    0.0003   -0.0007   -0.0000    0.0002    0.0003    0.0007    0.0000   -0.0004    0.0376
    99 N2     3py       -0.0018    0.0003   -0.0002   -0.0001    0.0001    0.0003    0.0007    0.0000   -0.0003    0.0161
   100 N2     4py       -0.0000   -0.0000    0.0005   -0.0000   -0.0001   -0.0000    0.0002   -0.0000    0.0001   -0.0054
   101 N2     2pz       -0.0001    0.0004   -0.0002   -0.0002   -0.0000    0.0000   -0.0002    0.0001   -0.0001    0.0012
   102 N2     3pz       -0.0001    0.0006   -0.0001   -0.0002   -0.0001   -0.0001   -0.0003    0.0001   -0.0001    0.0054
   103 N2     4pz        0.0000    0.0001   -0.0002   -0.0000   -0.0000    0.0000   -0.0001    0.0000    0.0000   -0.0002
   104 N2     3d2-       0.0001    0.0000   -0.0002   -0.0000   -0.0001    0.0000   -0.0000   -0.0000   -0.0000   -0.0027
   105 N2     3d1-       0.0000    0.0000    0.0000   -0.0000   -0.0000   -0.0000    0.0000    0.0000    0.0000   -0.0006
   106 N2     3d0       -0.0000    0.0000   -0.0000    0.0000    0.0002   -0.0000    0.0001   -0.0000   -0.0001   -0.0028
   107 N2     3d1+      -0.0000    0.0000   -0.0000   -0.0000   -0.0000   -0.0000    0.0000    0.0000   -0.0000    0.0000
   108 N2     3d2+      -0.0000   -0.0000    0.0000   -0.0000    0.0001   -0.0000   -0.0000   -0.0000    0.0000    0.0048
   109 N5     1s         0.0000    0.0001    0.0001    0.9999    0.0001   -0.0003    0.0000    0.0001    0.0000   -0.0015
   110 N5     2s         0.0000    0.0009    0.0005    0.0006    0.0004   -0.0003    0.0001    0.0017    0.0000    0.0013
   111 N5     3s         0.0000    0.0006    0.0004   -0.0011    0.0003   -0.0004    0.0001    0.0010    0.0000   -0.0048
   112 N5     4s         0.0000    0.0001    0.0001    0.0006    0.0001    0.0000   -0.0000    0.0004    0.0000   -0.0010
   113 N5     2px       -0.0002   -0.0011   -0.0000   -0.0006    0.0002    0.0004   -0.0002    0.0007   -0.0000    0.0001
   114 N5     3px       -0.0003   -0.0013    0.0001   -0.0003    0.0003    0.0003   -0.0002    0.0007   -0.0001   -0.0008
   115 N5     4px       -0.0000    0.0000    0.0000    0.0002    0.0001   -0.0001    0.0000    0.0002   -0.0000   -0.0008
   116 N5     2py        0.0001    0.0009   -0.0002    0.0007    0.0000   -0.0002   -0.0003    0.0001    0.0001   -0.0034
   117 N5     3py        0.0001    0.0010   -0.0001    0.0003    0.0001   -0.0001   -0.0002   -0.0002    0.0000   -0.0017
   118 N5     4py       -0.0000    0.0000    0.0001   -0.0003    0.0000   -0.0002    0.0001   -0.0002   -0.0000   -0.0002
   119 N5     2pz        0.0002    0.0006    0.0000    0.0003   -0.0002    0.0000    0.0003   -0.0006   -0.0000    0.0042
   120 N5     3pz        0.0003    0.0008   -0.0001    0.0001   -0.0005   -0.0001    0.0004   -0.0005   -0.0001    0.0059
   121 N5     4pz        0.0000   -0.0000   -0.0000   -0.0000   -0.0001    0.0002   -0.0000   -0.0001   -0.0000    0.0019
   122 N5     3d2-      -0.0000   -0.0000    0.0000   -0.0001    0.0000    0.0000    0.0000   -0.0000   -0.0000    0.0002
   123 N5     3d1-      -0.0000   -0.0000   -0.0000    0.0001   -0.0000    0.0000   -0.0000    0.0000    0.0000   -0.0002
   124 N5     3d0       -0.0000    0.0000   -0.0000   -0.0001   -0.0000    0.0000   -0.0000    0.0000   -0.0000    0.0002
   125 N5     3d1+      -0.0000   -0.0001   -0.0000    0.0001    0.0000    0.0002   -0.0000    0.0001    0.0000   -0.0000
   126 N5     3d2+      -0.0000    0.0000   -0.0000   -0.0001   -0.0000   -0.0000   -0.0000    0.0000   -0.0000    0.0001
   127 O7     1s         0.9997    0.0000    0.0000   -0.0000   -0.0003    0.0000   -0.0000    0.0000    0.0001   -0.0237
   128 O7     2s        -0.0016    0.0000    0.0001   -0.0000    0.0004    0.0002   -0.0002    0.0000    0.0003    0.6925
   129 O7     3s        -0.0014    0.0000    0.0001    0.0000   -0.0000    0.0001   -0.0000    0.0000    0.0003   -0.0341
   130 O7     4s         0.0000    0.0000    0.0000    0.0000    0.0000    0.0000    0.0000    0.0000    0.0001   -0.0138
   131 O7     2px        0.0001    0.0000   -0.0003    0.0000    0.0004    0.0001   -0.0001    0.0000    0.0001    0.0890
   132 O7     3px       -0.0003    0.0001   -0.0004    0.0001   -0.0000    0.0001   -0.0000   -0.0000    0.0001   -0.0270
   133 O7     4px        0.0008    0.0000   -0.0001    0.0000    0.0001    0.0000    0.0000   -0.0000   -0.0000   -0.0017
   134 O7     2py       -0.0001   -0.0000   -0.0002    0.0000   -0.0006    0.0000    0.0000   -0.0000   -0.0001   -0.1184
   135 O7     3py        0.0006   -0.0000   -0.0002    0.0000   -0.0003    0.0001   -0.0000   -0.0000   -0.0001    0.0362
   136 O7     4py       -0.0011   -0.0000    0.0001    0.0000   -0.0003    0.0000   -0.0000   -0.0000    0.0000    0.0001
   137 O7     2pz       -0.0000    0.0000   -0.0000   -0.0000    0.0001   -0.0000    0.0000    0.0000   -0.0000    0.0026
   138 O7     3pz       -0.0000    0.0000   -0.0000   -0.0000   -0.0000   -0.0001    0.0000    0.0000    0.0000    0.0006
   139 O7     4pz       -0.0000    0.0000   -0.0000   -0.0000   -0.0000   -0.0000    0.0000   -0.0000   -0.0000    0.0003
   140 O7     3d2-       0.0001   -0.0000    0.0000   -0.0000   -0.0002   -0.0000    0.0000    0.0000   -0.0000   -0.0183
   141 O7     3d1-       0.0000   -0.0000    0.0000    0.0000   -0.0000   -0.0000    0.0000    0.0000   -0.0000   -0.0003
   142 O7     3d0       -0.0000   -0.0000   -0.0001    0.0000   -0.0001    0.0000   -0.0000    0.0000   -0.0000   -0.0106
   143 O7     3d1+      -0.0000   -0.0000    0.0000   -0.0000    0.0000    0.0000    0.0000    0.0000   -0.0000    0.0001
   144 O7     3d2+       0.0000   -0.0000   -0.0001    0.0000   -0.0001    0.0000   -0.0000    0.0000   -0.0000   -0.0059
   145 O8     1s        -0.0000    0.9997   -0.0000    0.0000    0.0000   -0.0002    0.0000   -0.0000    0.0000   -0.0017
   146 O8     2s        -0.0001   -0.0016   -0.0003    0.0002    0.0002    0.0006    0.0000   -0.0003    0.0001    0.0252
   147 O8     3s        -0.0001   -0.0014   -0.0002    0.0002    0.0002    0.0001    0.0001   -0.0001    0.0001   -0.0039
   148 O8     4s        -0.0000    0.0000   -0.0001    0.0000    0.0001    0.0001    0.0000   -0.0000    0.0000   -0.0011
   149 O8     2px        0.0000   -0.0001    0.0001   -0.0002   -0.0001   -0.0001    0.0000   -0.0000   -0.0001   -0.0026
   150 O8     3px        0.0000    0.0002    0.0001   -0.0001   -0.0001   -0.0001    0.0000   -0.0000   -0.0001    0.0019
   151 O8     4px        0.0000   -0.0006   -0.0000    0.0001   -0.0000   -0.0001    0.0000   -0.0000   -0.0000   -0.0001
   152 O8     2py        0.0001    0.0002   -0.0000   -0.0001    0.0001    0.0008   -0.0000   -0.0001    0.0000    0.0041
   153 O8     3py        0.0001   -0.0005   -0.0000   -0.0002    0.0000    0.0002    0.0000   -0.0000   -0.0000   -0.0030
   154 O8     4py        0.0000    0.0012   -0.0000   -0.0001   -0.0000    0.0001   -0.0001    0.0000   -0.0000    0.0002
   155 O8     2pz        0.0000   -0.0000   -0.0001    0.0002    0.0000    0.0002   -0.0001    0.0000    0.0001    0.0011
   156 O8     3pz        0.0000   -0.0001   -0.0001    0.0002    0.0000    0.0000   -0.0001   -0.0000    0.0001   -0.0009
   157 O8     4pz       -0.0000    0.0001   -0.0000   -0.0000   -0.0000    0.0000   -0.0000   -0.0000    0.0000    0.0000
   158 O8     3d2-      -0.0000    0.0001    0.0000   -0.0000   -0.0000   -0.0002    0.0000    0.0000   -0.0000   -0.0006
   159 O8     3d1-      -0.0000   -0.0000    0.0000    0.0000    0.0000    0.0001   -0.0000    0.0000    0.0000    0.0002
   160 O8     3d0       -0.0000    0.0000    0.0000   -0.0000    0.0000   -0.0001    0.0000    0.0000   -0.0000   -0.0004
   161 O8     3d1+       0.0000   -0.0000    0.0000   -0.0001   -0.0000    0.0000   -0.0000   -0.0000   -0.0000   -0.0001
   162 O8     3d2+      -0.0000    0.0001   -0.0000    0.0000    0.0000   -0.0002    0.0000    0.0000    0.0000   -0.0003
   163 H9     1s         0.0001    0.0001    0.0000   -0.0001   -0.0000   -0.0002   -0.0004   -0.0000    0.0003    0.0146
   164 H9     2s         0.0001    0.0001    0.0000   -0.0000    0.0000   -0.0001   -0.0003   -0.0000   -0.0003    0.0038
   165 H9     2px       -0.0000    0.0000    0.0000   -0.0000    0.0000   -0.0000   -0.0000   -0.0000   -0.0000    0.0009
   166 H9     2py       -0.0001    0.0000   -0.0000    0.0000    0.0001   -0.0000   -0.0000    0.0000    0.0000    0.0012
   167 H9     2pz       -0.0000   -0.0000    0.0000    0.0000   -0.0000    0.0000    0.0000    0.0000    0.0001   -0.0007
   168 H10    1s         0.0001   -0.0003    0.0002   -0.0000    0.0001   -0.0001   -0.0001   -0.0001    0.0003    0.0142
   169 H10    2s         0.0000   -0.0002    0.0001   -0.0000    0.0001   -0.0001   -0.0001   -0.0000   -0.0003    0.0033
   170 H10    2px       -0.0000   -0.0000    0.0001   -0.0000    0.0000   -0.0000   -0.0000   -0.0000   -0.0000    0.0008
   171 H10    2py       -0.0001   -0.0000   -0.0000   -0.0000    0.0001   -0.0000   -0.0000   -0.0000    0.0000    0.0011
   172 H10    2pz        0.0000   -0.0000   -0.0000   -0.0000    0.0000   -0.0000   -0.0000   -0.0000   -0.0001    0.0006
   173 H11    1s        -0.0005   -0.0001    0.0004   -0.0000    0.0003   -0.0001   -0.0001   -0.0001    0.0004    0.0210
   174 H11    2s        -0.0003   -0.0001    0.0004   -0.0000    0.0002   -0.0001   -0.0001   -0.0001   -0.0002    0.0064
   175 H11    2px       -0.0000    0.0000   -0.0001   -0.0000   -0.0000    0.0000    0.0000    0.0000    0.0001   -0.0002
   176 H11    2py       -0.0000   -0.0000    0.0000    0.0000    0.0001   -0.0000   -0.0000   -0.0000   -0.0000    0.0019
   177 H11    2pz       -0.0000    0.0000   -0.0000   -0.0000   -0.0000    0.0000   -0.0000    0.0000   -0.0000    0.0000
   178 H12    1s        -0.0011    0.0004   -0.0009   -0.0000    0.0001    0.0001   -0.0002   -0.0000   -0.0005    0.0369
   179 H12    2s        -0.0006    0.0003   -0.0006   -0.0000   -0.0000    0.0001   -0.0001   -0.0000   -0.0003   -0.0021
   180 H12    2px        0.0001   -0.0000    0.0002    0.0000   -0.0001   -0.0000    0.0000    0.0000    0.0001   -0.0045
   181 H12    2py       -0.0000    0.0000   -0.0004    0.0000    0.0000    0.0000    0.0000   -0.0000   -0.0000    0.0040
   182 H12    2pz       -0.0000   -0.0000   -0.0001   -0.0000    0.0000    0.0000    0.0000   -0.0000   -0.0000    0.0008
   183 H13    1s         0.0004   -0.0006   -0.0004    0.0005   -0.0003   -0.0002    0.0008   -0.0001    0.0002    0.0123
   184 H13    2s         0.0003   -0.0004   -0.0002    0.0004   -0.0001   -0.0002    0.0000   -0.0001    0.0001   -0.0033
   185 H13    2px        0.0000   -0.0000    0.0000    0.0000   -0.0000    0.0001    0.0000    0.0000    0.0000   -0.0004
   186 H13    2py       -0.0000   -0.0000   -0.0000   -0.0001    0.0000   -0.0000   -0.0001   -0.0000   -0.0000   -0.0011
   187 H13    2pz        0.0000   -0.0000    0.0000    0.0000   -0.0000   -0.0000   -0.0000   -0.0000   -0.0000    0.0008
   188 H14    1s         0.0001    0.0009   -0.0005   -0.0003   -0.0006   -0.0001    0.0009   -0.0001   -0.0003    0.0146
   189 H14    2s         0.0001    0.0005   -0.0002   -0.0002   -0.0004    0.0000    0.0001   -0.0001   -0.0002    0.0043
   190 H14    2px       -0.0000   -0.0000    0.0000   -0.0000    0.0000    0.0001    0.0000    0.0000   -0.0000   -0.0007
   191 H14    2py       -0.0000   -0.0001    0.0000    0.0000    0.0000   -0.0000   -0.0000   -0.0000    0.0000   -0.0005
   192 H14    2pz       -0.0000   -0.0000    0.0000    0.0000    0.0001   -0.0000    0.0000    0.0000    0.0000   -0.0012
   193 H15    1s        -0.0003   -0.0014    0.0001   -0.0008   -0.0000    0.0004    0.0001   -0.0001   -0.0001    0.0060
   194 H15    2s        -0.0002   -0.0008    0.0001   -0.0006   -0.0000    0.0001    0.0001   -0.0000   -0.0001    0.0026
   195 H15    2px       -0.0000   -0.0001    0.0000   -0.0003   -0.0000   -0.0000    0.0000    0.0000   -0.0000    0.0006
   196 H15    2py        0.0000    0.0001   -0.0000    0.0004    0.0000   -0.0002   -0.0000    0.0000    0.0000   -0.0006
   197 H15    2pz        0.0000    0.0000    0.0000    0.0001    0.0000    0.0001   -0.0000   -0.0000    0.0000   -0.0002
   198 H16    1s         0.0001    0.0003   -0.0002   -0.0005   -0.0001   -0.0004   -0.0002    0.0005   -0.0000    0.0029
   199 H16    2s         0.0001    0.0002   -0.0001   -0.0002   -0.0001   -0.0003   -0.0001   -0.0001   -0.0000    0.0023
   200 H16    2px       -0.0000   -0.0000   -0.0000    0.0000   -0.0000   -0.0000   -0.0000   -0.0000    0.0000    0.0001
   201 H16    2py       -0.0000   -0.0000    0.0000    0.0000    0.0000    0.0000    0.0000   -0.0000   -0.0000   -0.0000
   202 H16    2pz        0.0000    0.0000   -0.0000   -0.0000   -0.0000   -0.0001   -0.0000    0.0000   -0.0000    0.0002
   203 H17    1s        -0.0001    0.0003    0.0001   -0.0005   -0.0001   -0.0003    0.0002    0.0005   -0.0001    0.0034
   204 H17    2s        -0.0001    0.0002    0.0001   -0.0002   -0.0001   -0.0002    0.0001   -0.0001   -0.0000    0.0023
   205 H17    2px        0.0000   -0.0000   -0.0000    0.0000    0.0000    0.0000   -0.0000   -0.0000    0.0000   -0.0002
   206 H17    2py        0.0000   -0.0000   -0.0000    0.0000    0.0000    0.0000   -0.0000    0.0000    0.0000   -0.0004
   207 H17    2pz        0.0000    0.0000    0.0000   -0.0000    0.0000    0.0000   -0.0000    0.0000    0.0000   -0.0003
   208 H18    1s        -0.0001   -0.0000   -0.0001   -0.0001   -0.0002   -0.0000    0.0001    0.0010   -0.0000    0.0045
   209 H18    2s        -0.0001    0.0000   -0.0001   -0.0000   -0.0002    0.0001    0.0001    0.0001   -0.0000    0.0027
   210 H18    2px        0.0000    0.0000    0.0000   -0.0000    0.0000   -0.0000   -0.0000   -0.0001   -0.0000   -0.0002
   211 H18    2py       -0.0000   -0.0000   -0.0000    0.0000   -0.0000   -0.0000    0.0000    0.0001   -0.0000    0.0006
   212 H18    2pz       -0.0000    0.0000    0.0000   -0.0000   -0.0000    0.0000    0.0000    0.0000   -0.0000    0.0001
 
 
      Orbital                11        12        13        14        15        16        17        18        19        20
      Energy            -1.3690   -1.2541   -1.2167   -1.0289   -0.9725   -0.9154   -0.8174   -0.7799   -0.7201   -0.6943
      Occ. No.           2.0000    2.0000    2.0000    2.0000    2.0000    2.0000    2.0000    2.0000    2.0000    2.0000
 
     1 C1     1s         0.0040   -0.0087    0.0023   -0.0163   -0.0000    0.0066   -0.0139    0.0020    0.0067    0.0032
     2 C1     2s         0.0055    0.1309    0.0062    0.2783   -0.0430   -0.0893    0.3756   -0.0276   -0.2598   -0.0720
     3 C1     3s         0.0159   -0.0001    0.0130   -0.0168   -0.0021    0.0104   -0.0049    0.0040    0.0058    0.0177
     4 C1     4s         0.0048    0.0007    0.0042   -0.0048   -0.0014    0.0045   -0.0027    0.0013    0.0035    0.0032
     5 C1     2px        0.0321    0.1528    0.0139   -0.0049    0.1006   -0.0989    0.1324   -0.0057    0.1444    0.2643
     6 C1     3px        0.0193   -0.0405    0.0293   -0.0492   -0.0264    0.0374   -0.0241   -0.0061   -0.0673   -0.0586
     7 C1     4px        0.0092    0.0273    0.0049   -0.0087    0.0112   -0.0071    0.0097   -0.0019    0.0051    0.0177
     8 C1     2py        0.0078   -0.0330    0.0217   -0.1577    0.0639    0.0007    0.0580    0.0351    0.0553   -0.1445
     9 C1     3py        0.0262    0.0452    0.0240    0.0124   -0.0505    0.0447   -0.0088   -0.0012   -0.0059    0.0620
    10 C1     4py        0.0007   -0.0050    0.0047   -0.0252    0.0069    0.0040    0.0078    0.0023   -0.0021   -0.0084
    11 C1     2pz        0.0011   -0.0085   -0.0030    0.0064    0.0044   -0.0070    0.0110    0.0013    0.0060   -0.0016
    12 C1     3pz        0.0009   -0.0114   -0.0048    0.0058    0.0057   -0.0087    0.0046    0.0005    0.0031   -0.0015
    13 C1     4pz       -0.0003   -0.0017   -0.0013    0.0026    0.0014   -0.0028    0.0006    0.0005    0.0017   -0.0010
    14 C1     3d2-       0.0035    0.0156   -0.0004    0.0082   -0.0086    0.0065    0.0132    0.0070    0.0177    0.0071
    15 C1     3d1-      -0.0001   -0.0001    0.0000   -0.0001    0.0002   -0.0001    0.0003    0.0001   -0.0000   -0.0002
    16 C1     3d0        0.0009   -0.0066    0.0002   -0.0116    0.0000    0.0050   -0.0134    0.0010    0.0062    0.0025
    17 C1     3d1+       0.0001   -0.0006    0.0001    0.0006    0.0009   -0.0006    0.0018    0.0006    0.0020    0.0001
    18 C1     3d2+       0.0025    0.0272   -0.0013    0.0024    0.0150   -0.0137    0.0094   -0.0010    0.0137    0.0170
    19 C3     1s        -0.0157   -0.0302   -0.0062    0.0338    0.0255   -0.0217   -0.0091   -0.0067   -0.0002    0.0001
    20 C3     2s         0.0234    0.1761    0.0122   -0.2925   -0.2360    0.3186    0.1011    0.0707   -0.0291    0.0363
    21 C3     3s        -0.0394   -0.0495   -0.0177    0.0578    0.0432   -0.0161   -0.0192   -0.0145    0.0024   -0.0002
    22 C3     4s        -0.0051   -0.0103   -0.0020    0.0159    0.0104   -0.0050   -0.0050   -0.0048    0.0021   -0.0019
    23 C3     2px        0.0216   -0.0555    0.0235   -0.0284   -0.0662    0.0114   -0.0530   -0.1271   -0.2503    0.0886
    24 C3     3px        0.0067    0.0043    0.0165   -0.0264    0.0170    0.0207    0.0111    0.0212    0.0368   -0.0111
    25 C3     4px        0.0086   -0.0061    0.0067   -0.0051    0.0004    0.0005   -0.0026   -0.0073   -0.0035    0.0025
    26 C3     2py       -0.0349   -0.0975    0.0133    0.0065   -0.0388   -0.0348    0.1446    0.0080   -0.0324    0.2210
    27 C3     3py       -0.0036    0.0097   -0.0028   -0.0337    0.0118   -0.0272   -0.0095    0.0118    0.0071   -0.0317
    28 C3     4py        0.0056   -0.0032    0.0030   -0.0124   -0.0076    0.0035    0.0078    0.0089   -0.0026    0.0091
    29 C3     2pz       -0.0011    0.0042   -0.0202    0.0115    0.0328    0.0383    0.0040    0.0810    0.0918   -0.0823
    30 C3     3pz        0.0152    0.0076   -0.0027   -0.0127   -0.0220    0.0234    0.0047   -0.0141   -0.0119    0.0109
    31 C3     4pz       -0.0055    0.0085   -0.0015   -0.0070   -0.0051    0.0142    0.0011    0.0037   -0.0014   -0.0002
    32 C3     3d2-      -0.0001    0.0186    0.0039   -0.0030    0.0062   -0.0021   -0.0041    0.0040    0.0165   -0.0199
    33 C3     3d1-       0.0050   -0.0027   -0.0031    0.0008   -0.0013    0.0013   -0.0014   -0.0030   -0.0095    0.0029
    34 C3     3d0       -0.0016   -0.0111    0.0025    0.0039   -0.0051   -0.0027    0.0030   -0.0066   -0.0122    0.0100
    35 C3     3d1+      -0.0019   -0.0044   -0.0022    0.0060    0.0089    0.0007    0.0039    0.0103    0.0121   -0.0017
    36 C3     3d2+       0.0012   -0.0097    0.0017    0.0004   -0.0085   -0.0027    0.0175   -0.0073   -0.0077    0.0176
    37 C4     1s        -0.0399    0.0069   -0.0065    0.0087    0.0150    0.0076   -0.0034    0.0161    0.0031   -0.0023
    38 C4     2s         0.3570    0.0171    0.1288   -0.1072   -0.2275   -0.0504    0.0302   -0.4024   -0.0822    0.0439
    39 C4     3s        -0.0077    0.0199    0.0078    0.0176    0.0127    0.0180   -0.0083    0.0091    0.0042   -0.0027
    40 C4     4s         0.0021    0.0056    0.0025    0.0056    0.0040    0.0056   -0.0019    0.0050    0.0035   -0.0022
    41 C4     2px        0.0661   -0.0446    0.0242    0.0559    0.0980   -0.0251    0.0105   -0.0397    0.1339   -0.0706
    42 C4     3px       -0.0253    0.0015    0.0452   -0.0317    0.0322    0.0714    0.0044   -0.0019   -0.0579    0.0336
    43 C4     4px        0.0166   -0.0098    0.0094    0.0046    0.0179    0.0053    0.0033   -0.0051    0.0024    0.0003
    44 C4     2py       -0.0726    0.0031    0.1607   -0.0313   -0.0717   -0.0729    0.0205   -0.0945    0.0441    0.0233
    45 C4     3py        0.0602   -0.0354   -0.0414    0.0131    0.0403    0.0326    0.0150    0.0210   -0.0235   -0.0017
    46 C4     4py       -0.0212   -0.0029    0.0305   -0.0023   -0.0058   -0.0054    0.0093   -0.0032    0.0028    0.0019
    47 C4     2pz       -0.0276    0.0229   -0.0756   -0.0448   -0.0649    0.0373   -0.0137    0.0463   -0.1530    0.0608
    48 C4     3pz       -0.0056   -0.0071   -0.0307    0.0225   -0.0233   -0.0915   -0.0080   -0.0049    0.0609   -0.0334
    49 C4     4pz       -0.0082    0.0048   -0.0191   -0.0057   -0.0111   -0.0051   -0.0036    0.0052   -0.0049   -0.0005
    50 C4     3d2-      -0.0269    0.0056    0.0203    0.0002    0.0001   -0.0048   -0.0061   -0.0092    0.0090   -0.0109
    51 C4     3d1-      -0.0002   -0.0020   -0.0200    0.0004    0.0047    0.0125    0.0036    0.0120   -0.0099    0.0088
    52 C4     3d0       -0.0216    0.0045    0.0047   -0.0016    0.0017    0.0055   -0.0018   -0.0020   -0.0007   -0.0025
    53 C4     3d1+      -0.0092   -0.0026   -0.0058    0.0086    0.0103   -0.0063   -0.0020    0.0163    0.0027    0.0004
    54 C4     3d2+      -0.0237    0.0066   -0.0053   -0.0049    0.0029    0.0163    0.0020   -0.0001   -0.0016   -0.0009
    55 C6     1s        -0.0088    0.0047   -0.0345   -0.0141   -0.0377   -0.0422   -0.0057    0.0074    0.0060   -0.0059
    56 C6     2s         0.0258    0.0159    0.1566    0.0840    0.2504    0.3721    0.0324   -0.1148   -0.0471    0.0430
    57 C6     3s        -0.0130    0.0229   -0.0600   -0.0228   -0.0726   -0.0676   -0.0170    0.0120    0.0157   -0.0169
    58 C6     4s        -0.0002    0.0068   -0.0098   -0.0038   -0.0158   -0.0137   -0.0045    0.0034    0.0040   -0.0045
    59 C6     2px       -0.0166   -0.0039   -0.0815   -0.0199   -0.0137    0.0275    0.0294   -0.0986   -0.0521    0.0915
    60 C6     3px        0.0028   -0.0080    0.0150    0.0021    0.0149    0.0031    0.0011    0.0064    0.0105   -0.0149
    61 C6     4px       -0.0028   -0.0005   -0.0013    0.0035    0.0101    0.0154    0.0033   -0.0089   -0.0026    0.0042
    62 C6     2py       -0.0073    0.0022   -0.0044   -0.0026    0.0076    0.0156   -0.0098    0.1119   -0.1047    0.0599
    63 C6     3py       -0.0004    0.0009    0.0032   -0.0013    0.0090    0.0127    0.0035   -0.0023    0.0087   -0.0047
    64 C6     4py       -0.0005    0.0001    0.0024    0.0004    0.0030    0.0020   -0.0022    0.0061   -0.0059    0.0031
    65 C6     2pz        0.0158    0.0070    0.0684    0.0113    0.0056   -0.0227   -0.0177    0.0412    0.0734   -0.0912
    66 C6     3pz       -0.0009    0.0122   -0.0128   -0.0068   -0.0190   -0.0008    0.0003   -0.0030   -0.0111    0.0146
    67 C6     4pz        0.0026    0.0014    0.0003   -0.0023   -0.0103   -0.0129   -0.0018    0.0050    0.0037   -0.0042
    68 C6     3d2-       0.0003    0.0001    0.0003   -0.0005   -0.0015   -0.0016    0.0009   -0.0065    0.0025   -0.0007
    69 C6     3d1-      -0.0007    0.0002    0.0001   -0.0004    0.0002    0.0006   -0.0010    0.0089   -0.0058    0.0029
    70 C6     3d0        0.0007    0.0000    0.0028    0.0000   -0.0006   -0.0013   -0.0007    0.0013   -0.0004   -0.0009
    71 C6     3d1+      -0.0044    0.0006   -0.0201   -0.0045   -0.0060    0.0021    0.0032   -0.0082   -0.0123    0.0150
    72 C6     3d2+       0.0020   -0.0000    0.0127    0.0024    0.0026   -0.0020   -0.0027    0.0122    0.0015   -0.0058
    73 C19    1s         0.0009   -0.0098    0.0017   -0.0558    0.0432   -0.0218    0.0132   -0.0036   -0.0092    0.0019
    74 C19    2s         0.0050    0.0014    0.0076    0.2968   -0.2758    0.1633   -0.0731    0.0393    0.0982    0.0032
    75 C19    3s         0.0070   -0.0272    0.0110   -0.1106    0.0809   -0.0368    0.0358   -0.0060   -0.0173    0.0115
    76 C19    4s         0.0029   -0.0032    0.0039   -0.0236    0.0182   -0.0081    0.0098   -0.0019   -0.0054    0.0033
    77 C19    2px        0.0016    0.0240   -0.0019    0.0538   -0.0002   -0.0268    0.0425   -0.0234   -0.0541    0.1310
    78 C19    3px       -0.0016   -0.0016   -0.0017    0.0049    0.0048   -0.0023   -0.0028    0.0049    0.0125   -0.0114
    79 C19    4px       -0.0013    0.0002   -0.0008   -0.0073    0.0120   -0.0086    0.0011   -0.0033   -0.0060    0.0029
    80 C19    2py        0.0046    0.0087    0.0068    0.0470   -0.0125   -0.0154    0.0637   -0.0343   -0.2051   -0.0567
    81 C19    3py        0.0063   -0.0028    0.0079   -0.0310    0.0184   -0.0026   -0.0102   -0.0002    0.0212    0.0128
    82 C19    4py        0.0002    0.0011    0.0002   -0.0126    0.0143   -0.0098    0.0131   -0.0019   -0.0088   -0.0017
    83 C19    2pz        0.0031   -0.0024    0.0004   -0.0014    0.0004    0.0017    0.0023   -0.0016    0.0040   -0.0014
    84 C19    3pz        0.0031   -0.0014    0.0009   -0.0021   -0.0009    0.0027    0.0003   -0.0026   -0.0011    0.0001
    85 C19    4pz        0.0000    0.0005    0.0003   -0.0003   -0.0008    0.0006   -0.0003   -0.0000   -0.0001    0.0002
    86 C19    3d2-       0.0005    0.0060   -0.0002    0.0107   -0.0022   -0.0026    0.0071   -0.0028   -0.0133   -0.0006
    87 C19    3d1-      -0.0001    0.0002    0.0000   -0.0000   -0.0000    0.0000    0.0001    0.0001    0.0003    0.0001
    88 C19    3d0       -0.0001   -0.0008    0.0001   -0.0088    0.0040    0.0006   -0.0033    0.0024    0.0083   -0.0080
    89 C19    3d1+      -0.0002    0.0003    0.0001   -0.0002   -0.0002    0.0001   -0.0003    0.0001   -0.0003   -0.0003
    90 C19    3d2+       0.0005    0.0022   -0.0002   -0.0076    0.0051   -0.0010   -0.0033    0.0020    0.0143    0.0051
    91 N2     1s        -0.0059   -0.0413    0.0009   -0.0041   -0.0042    0.0013    0.0037    0.0002    0.0021   -0.0006
    92 N2     2s         0.0549    0.5847   -0.0286   -0.0126    0.2060   -0.1235   -0.1565   -0.0116    0.1221   -0.0502
    93 N2     3s        -0.0130   -0.0798   -0.0005   -0.0101    0.0037   -0.0042    0.0067    0.0008    0.0104   -0.0005
    94 N2     4s        -0.0034   -0.0257    0.0005   -0.0009   -0.0014    0.0004    0.0029    0.0001   -0.0001    0.0004
    95 N2     2px        0.0167   -0.0358    0.0054   -0.1454   -0.0328    0.1207   -0.3700   -0.0006   -0.0891   -0.2735
    96 N2     3px        0.0072   -0.0184    0.0083    0.0245    0.0471   -0.0608    0.1082   -0.0013   -0.0048    0.0614
    97 N2     4px        0.0041    0.0005    0.0020   -0.0065    0.0076   -0.0049   -0.0018   -0.0002   -0.0022    0.0061
    98 N2     2py       -0.0031   -0.0042    0.0028   -0.1201   -0.0430    0.1119    0.2142    0.1456    0.2436   -0.2073
    99 N2     3py       -0.0120   -0.0467   -0.0040    0.0432    0.0468   -0.0579   -0.0279   -0.0384   -0.0542    0.0289
   100 N2     4py        0.0003   -0.0120    0.0001   -0.0005    0.0046   -0.0049    0.0084   -0.0025   -0.0016    0.0046
   101 N2     2pz       -0.0097   -0.0038    0.0020    0.0114    0.0002   -0.0052    0.0163    0.0181    0.0369   -0.0132
   102 N2     3pz       -0.0078    0.0188    0.0008    0.0019   -0.0056   -0.0031   -0.0185    0.0005   -0.0068    0.0018
   103 N2     4pz       -0.0019    0.0007    0.0000    0.0006   -0.0002   -0.0001   -0.0012    0.0012   -0.0011    0.0010
   104 N2     3d2-       0.0010    0.0072    0.0001   -0.0020   -0.0077    0.0088    0.0067    0.0043    0.0065   -0.0034
   105 N2     3d1-      -0.0002   -0.0001   -0.0003    0.0018    0.0017   -0.0015   -0.0033   -0.0005   -0.0018    0.0009
   106 N2     3d0       -0.0018   -0.0168    0.0009    0.0013   -0.0040    0.0014   -0.0001   -0.0006   -0.0025   -0.0000
   107 N2     3d1+      -0.0007   -0.0007    0.0004    0.0011   -0.0004   -0.0008    0.0038    0.0008    0.0021    0.0015
   108 N2     3d2+       0.0009    0.0054    0.0004    0.0102    0.0056   -0.0116    0.0185   -0.0045   -0.0040    0.0143
   109 N5     1s        -0.0196    0.0004   -0.0428   -0.0014    0.0012    0.0027    0.0017   -0.0035    0.0032   -0.0020
   110 N5     2s         0.1241   -0.0241    0.5772    0.0445   -0.0164   -0.2200   -0.0617    0.1677    0.0944   -0.1035
   111 N5     3s        -0.0497    0.0007   -0.0805   -0.0029   -0.0038   -0.0143   -0.0008   -0.0004    0.0148   -0.0110
   112 N5     4s        -0.0116    0.0012   -0.0266   -0.0018   -0.0021   -0.0016   -0.0003   -0.0022    0.0017   -0.0010
   113 N5     2px        0.0204   -0.0184   -0.0074    0.0464    0.1134    0.1120    0.0109   -0.0529    0.0965   -0.1151
   114 N5     3px        0.0111   -0.0218   -0.0258   -0.0044   -0.0406   -0.0754    0.0031    0.0154   -0.0183    0.0241
   115 N5     4px       -0.0065   -0.0038   -0.0067    0.0026    0.0015   -0.0043    0.0015   -0.0045    0.0015    0.0005
   116 N5     2py       -0.0360    0.0072   -0.0112    0.0159    0.0606    0.0450   -0.0605    0.3787   -0.2186    0.0927
   117 N5     3py        0.0116   -0.0030    0.0278    0.0014    0.0018   -0.0005    0.0056   -0.0984    0.0359   -0.0163
   118 N5     4py       -0.0021   -0.0019    0.0099    0.0041    0.0039   -0.0005   -0.0003    0.0071   -0.0018    0.0022
   119 N5     2pz        0.0043    0.0176    0.0155   -0.0432   -0.1277   -0.1075    0.0061   -0.1027   -0.0141    0.0631
   120 N5     3pz       -0.0145    0.0226    0.0114    0.0198    0.0306    0.0598   -0.0087    0.0225    0.0044   -0.0142
   121 N5     4pz        0.0055    0.0039    0.0013    0.0012   -0.0028    0.0026   -0.0023    0.0011   -0.0003   -0.0011
   122 N5     3d2-       0.0004    0.0003    0.0025   -0.0016   -0.0032    0.0008    0.0024   -0.0142    0.0037   -0.0010
   123 N5     3d1-      -0.0039    0.0006   -0.0107    0.0015    0.0054    0.0054   -0.0021    0.0130   -0.0041    0.0003
   124 N5     3d0       -0.0018    0.0010   -0.0020   -0.0007    0.0003    0.0044    0.0009   -0.0041   -0.0001   -0.0004
   125 N5     3d1+      -0.0001   -0.0002   -0.0156   -0.0016   -0.0039   -0.0042    0.0002   -0.0018   -0.0004    0.0018
   126 N5     3d2+      -0.0046    0.0016   -0.0029    0.0010    0.0064    0.0112   -0.0005    0.0049   -0.0025   -0.0013
   127 O7     1s         0.0011    0.0026   -0.0006   -0.0043    0.0024    0.0004   -0.0134   -0.0006    0.0142    0.0216
   128 O7     2s        -0.0706   -0.3042    0.0054   -0.2079    0.0611    0.0283   -0.3455   -0.0204    0.2384    0.3522
   129 O7     3s        -0.0009   -0.0093   -0.0023   -0.0199    0.0106   -0.0005   -0.0424   -0.0023    0.0396    0.0613
   130 O7     4s         0.0003   -0.0003   -0.0008   -0.0033    0.0027   -0.0009   -0.0083   -0.0007    0.0078    0.0130
   131 O7     2px       -0.0086   -0.0027   -0.0031   -0.0008    0.0270   -0.0322    0.1747    0.0149   -0.1068   -0.2335
   132 O7     3px       -0.0021   -0.0006   -0.0037   -0.0073    0.0044    0.0029   -0.0225   -0.0017    0.0102    0.0206
   133 O7     4px       -0.0004    0.0001   -0.0005   -0.0007    0.0001    0.0012   -0.0020    0.0001    0.0007    0.0012
   134 O7     2py        0.0104    0.0390   -0.0021   -0.0325    0.0258    0.0018   -0.1519   -0.0011    0.2659    0.4082
   135 O7     3py       -0.0041   -0.0016   -0.0021    0.0137    0.0003   -0.0030    0.0239   -0.0028   -0.0311   -0.0433
   136 O7     4py       -0.0010   -0.0018   -0.0005   -0.0005    0.0009    0.0007    0.0028   -0.0004   -0.0036   -0.0066
   137 O7     2pz       -0.0004    0.0013    0.0007    0.0017   -0.0002   -0.0002    0.0023   -0.0005   -0.0057   -0.0052
   138 O7     3pz       -0.0000    0.0023    0.0017   -0.0002   -0.0006    0.0004   -0.0019   -0.0006   -0.0006    0.0004
   139 O7     4pz        0.0000    0.0006    0.0006    0.0001   -0.0001   -0.0000   -0.0006   -0.0003   -0.0001    0.0001
   140 O7     3d2-       0.0015    0.0037   -0.0001    0.0007   -0.0020    0.0024   -0.0118   -0.0004    0.0103    0.0186
   141 O7     3d1-       0.0001    0.0000    0.0000   -0.0001    0.0000    0.0000   -0.0002   -0.0000    0.0001    0.0002
   142 O7     3d0        0.0010    0.0043   -0.0002    0.0014    0.0001   -0.0002   -0.0049   -0.0005    0.0063    0.0120
   143 O7     3d1+      -0.0000   -0.0000    0.0001    0.0002    0.0001   -0.0001    0.0001   -0.0000   -0.0001   -0.0003
   144 O7     3d2+       0.0007    0.0048   -0.0003   -0.0023    0.0046   -0.0030    0.0017    0.0007    0.0106    0.0117
   145 O8     1s        -0.0234    0.0020    0.0034    0.0009    0.0031    0.0000   -0.0007    0.0127    0.0022    0.0014
   146 O8     2s         0.6722   -0.1435   -0.3222    0.1092    0.1520    0.0025    0.0086    0.3535    0.0416    0.0461
   147 O8     3s        -0.0291   -0.0047   -0.0108    0.0064    0.0137   -0.0007    0.0006    0.0465    0.0069    0.0049
   148 O8     4s        -0.0126   -0.0008   -0.0005    0.0004    0.0016   -0.0005    0.0011    0.0098    0.0015    0.0011
   149 O8     2px       -0.0544    0.0016    0.0329    0.0142    0.0078   -0.0239    0.0162    0.0556    0.0829   -0.0048
   150 O8     3px        0.0197   -0.0021   -0.0036    0.0004   -0.0102   -0.0066   -0.0015   -0.0124   -0.0058   -0.0026
   151 O8     4px        0.0005   -0.0006   -0.0023    0.0009   -0.0000   -0.0003   -0.0005   -0.0009   -0.0017   -0.0002
   152 O8     2py        0.1310   -0.0261   -0.0260    0.0024   -0.0194   -0.0219    0.0248   -0.1916    0.0345   -0.0518
   153 O8     3py       -0.0382    0.0020    0.0010    0.0050    0.0058    0.0015   -0.0004    0.0281    0.0019    0.0038
   154 O8     4py       -0.0010   -0.0005    0.0011    0.0001   -0.0013    0.0013    0.0020    0.0037   -0.0001    0.0010
   155 O8     2pz        0.0174    0.0078   -0.0165   -0.0207   -0.0158    0.0320   -0.0161    0.0006   -0.0880    0.0238
   156 O8     3pz       -0.0018    0.0043    0.0047   -0.0028    0.0039    0.0097    0.0026    0.0030    0.0053    0.0004
   157 O8     4pz        0.0007    0.0016    0.0021   -0.0011   -0.0000    0.0011    0.0004    0.0006    0.0020   -0.0004
   158 O8     3d2-      -0.0137    0.0018    0.0060    0.0001    0.0001   -0.0015   -0.0000    0.0055    0.0035    0.0005
   159 O8     3d1-       0.0031    0.0002   -0.0022   -0.0017   -0.0016    0.0026   -0.0004   -0.0008   -0.0060    0.0018
   160 O8     3d0       -0.0102    0.0017    0.0032   -0.0009   -0.0005    0.0007   -0.0004    0.0049   -0.0009    0.0015
[...]
AIVX     1  Mu1.0001  In1.029 Se1.046               0.05600345      0.00000363     -0.00006201     -0.00000000
AIVX     1  Mu1.0001  In1.018 Se1.047               0.25634073     -0.00035095      0.00027668     -0.00000010
AIVX     1  Mu1.0001  In1.021 Se1.047               0.20634974     -0.00100765      0.00188842     -0.00000190
AIVX     1  Mu1.0001  In1.022 Se1.047               0.10396027     -0.00001571     -0.00012025      0.00000000
AIVX     1  Mu1.0001  In1.023 Se1.047               0.29639035      0.00120989     -0.00217462     -0.00000263
AIVX     1  Mu1.0001  In1.024 Se1.047               0.11973364      0.00015089     -0.00016504     -0.00000002
AIVX     1  Mu1.0001  In1.025 Se1.047               0.19011693      0.00052060     -0.00118399     -0.00000062
AIVX     1  Mu1.0001  In1.026 Se1.047               0.26072964     -0.00001101     -0.00012926      0.00000000
AIVX     1  Mu1.0001  In1.027 Se1.047               0.23735429      0.00126896     -0.00221397     -0.00000281
AIVX     1  Mu1.0001  In1.028 Se1.047               0.02760388      0.00005336     -0.00027536     -0.00000001
AIVX     1  Mu1.0001  In1.029 Se1.047               0.06633703     -0.00003631      0.00010119     -0.00000000
AIVX     1  Mu1.0001  In1.021 Se1.048               0.25145985     -0.00002845     -0.00011995      0.00000000
AIVX     1  Mu1.0001  In1.022 Se1.048               0.14907038     -0.00024769      0.00050171     -0.00000012
AIVX     1  Mu1.0001  In1.024 Se1.048               0.16484375     -0.00005622      0.00004636     -0.00000000
AIVX     1  Mu1.0001  In1.025 Se1.048               0.23522703      0.00007554     -0.00028667     -0.00000002
AIVX     1  Mu1.0001  In1.027 Se1.048               0.28246440      0.00034351     -0.00028780     -0.00000010
AIVX     1  Mu1.0001  In1.028 Se1.048               0.07271399      0.00016761      0.00000190      0.00000000
AIVX     1  Mu1.0001  In1.029 Se1.048               0.11144714      0.00021018     -0.00022022     -0.00000005
AIVX     1  Mu1.0001  In1.021 Se1.049               0.27422090      0.00012107      0.00001900      0.00000000
AIVX     1  Mu1.0001  In1.022 Se1.049               0.17183143      0.00039518     -0.00019774     -0.00000008
AIVX     1  Mu1.0001  In1.024 Se1.049               0.18760480     -0.00009629      0.00003201     -0.00000000
AIVX     1  Mu1.0001  In1.025 Se1.049               0.25798809     -0.00073147      0.00101843     -0.00000074
AIVX     1  Mu1.0001  In1.028 Se1.049               0.09547504      0.00027985     -0.00055548     -0.00000016
AIVX     1  Mu1.0001  In1.029 Se1.049               0.13420819      0.00008653     -0.00028103     -0.00000002
AIVX     1  Mu1.0001  In1.021 Se1.050               0.28622003      0.00068602     -0.00148829     -0.00000102
AIVX     1  Mu1.0001  In1.022 Se1.050               0.18383056     -0.00001641      0.00001394     -0.00000000
AIVX     1  Mu1.0001  In1.024 Se1.050               0.19960393      0.00003652     -0.00016415     -0.00000001
AIVX     1  Mu1.0001  In1.025 Se1.050               0.26998721     -0.00127592      0.00184034     -0.00000235
AIVX     1  Mu1.0001  In1.028 Se1.050               0.10747417      0.00008842     -0.00009792     -0.00000001
AIVX     1  Mu1.0001  In1.029 Se1.050               0.14620732      0.00051398     -0.00058388     -0.00000030
AIVX     1  Mu1.0001  In1.022 Se1.051               0.20240157      0.00004467      0.00018079      0.00000001
AIVX     1  Mu1.0001  In1.024 Se1.051               0.21817494     -0.00002128      0.00006495     -0.00000000
AIVX     1  Mu1.0001  In1.025 Se1.051               0.28855822      0.00055073     -0.00104323     -0.00000057
AIVX     1  Mu1.0001  In1.028 Se1.051               0.12604518     -0.00017967      0.00055885     -0.00000010
AIVX     1  Mu1.0001  In1.029 Se1.051               0.16477833     -0.00017619      0.00039308     -0.00000007
AIVX     1  Mu1.0001  In1.022 Se1.052               0.23194805      0.00000257     -0.00015216     -0.00000000
AIVX     1  Mu1.0001  In1.024 Se1.052               0.24772141     -0.00005566      0.00010338     -0.00000001
AIVX     1  Mu1.0001  In1.028 Se1.052               0.15559165      0.00018391     -0.00035268     -0.00000006
AIVX     1  Mu1.0001  In1.029 Se1.052               0.19432481      0.00025547     -0.00024395     -0.00000006
AIVX     1  Mu1.0001  In1.022 Se1.053               0.24848409     -0.00054217      0.00075450     -0.00000041
AIVX     1  Mu1.0001  In1.024 Se1.053               0.26425745      0.00009975     -0.00019222     -0.00000002
AIVX     1  Mu1.0001  In1.028 Se1.053               0.17212769      0.00006755     -0.00011928     -0.00000001
AIVX     1  Mu1.0001  In1.029 Se1.053               0.21086085      0.00000623     -0.00024100     -0.00000000
AIVX     1  Mu1.0001  In1.022 Se1.054               0.23785687      0.00071733     -0.00100414     -0.00000072
AIVX     1  Mu1.0001  In1.024 Se1.054               0.25363024     -0.00002900     -0.00003272      0.00000000
AIVX     1  Mu1.0001  In1.028 Se1.054               0.16150048      0.00035457     -0.00069325     -0.00000025
AIVX     1  Mu1.0001  In1.029 Se1.054               0.20023363     -0.00023682      0.00045824     -0.00000011
AIVX     1  Mu1.0001  In1.022 Se1.055               0.27158817      0.00024730      0.00002461      0.00000001
AIVX     1  Mu1.0001  In1.024 Se1.055               0.28736154     -0.00007482      0.00003428     -0.00000000
AIVX     1  Mu1.0001  In1.028 Se1.055               0.19523178     -0.00003236      0.00041347     -0.00000001
AIVX     1  Mu1.0001  In1.029 Se1.055               0.23396493     -0.00015590      0.00012413     -0.00000002
AIVX     1  Mu1.0001  In1.022 Se1.056               0.29962072     -0.00029731      0.00051671     -0.00000015
AIVX     1  Mu1.0001  In1.028 Se1.056               0.22326433      0.00016983     -0.00063115     -0.00000011
AIVX     1  Mu1.0001  In1.029 Se1.056               0.26199748      0.00044001     -0.00075769     -0.00000033
AIVX     1  Mu1.0001  In1.022 Se1.057               0.29048261      0.00115458     -0.00164865     -0.00000190
AIVX     1  Mu1.0001  In1.028 Se1.057               0.21412622     -0.00053026      0.00085628     -0.00000045
AIVX     1  Mu1.0001  In1.029 Se1.057               0.25285937     -0.00104269      0.00172195     -0.00000180
AIVX     1  Mu1.0001  In1.022 Se1.058               0.26690044      0.00018995     -0.00027957     -0.00000005
AIVX     1  Mu1.0001  In1.024 Se1.058               0.28267381      0.00005671      0.00003652      0.00000000
AIVX     1  Mu1.0001  In1.028 Se1.058               0.19054405      0.00000824     -0.00005237     -0.00000000
AIVX     1  Mu1.0001  In1.029 Se1.058               0.22927721     -0.00020524      0.00035524     -0.00000007
AIVX     1  Mu1.0001  In1.028 Se1.059               0.23639695      0.00003950     -0.00042817     -0.00000002
AIVX     1  Mu1.0001  In1.029 Se1.059               0.27513010      0.00025473     -0.00041536     -0.00000011
AIVX     1  Mu1.0001  In1.028 Se1.060               0.29227685      0.00012507     -0.00034571     -0.00000004
AIVX     1  Mu1.0001  In1.028 Se1.066               0.27954395     -0.00015459      0.00028841     -0.00000004
AIVX     1  Mu1.0001  In1.018 Se1.208               0.29980375      0.00027906     -0.00037986     -0.00000011
AIVX     1  Mu1.0001  In1.021 Se1.208               0.24981277     -0.00109817      0.00183495     -0.00000202
AIVX     1  Mu1.0001  In1.022 Se1.208               0.14742330     -0.00026139      0.00038681     -0.00000010
AIVX     1  Mu1.0001  In1.024 Se1.208               0.16319667      0.00004660      0.00003885      0.00000000
AIVX     1  Mu1.0001  In1.025 Se1.208               0.23357995     -0.00001194      0.00001078     -0.00000000
AIVX     1  Mu1.0001  In1.027 Se1.208               0.28081732      0.00038510     -0.00071872     -0.00000028
AIVX     1  Mu1.0001  In1.028 Se1.208               0.07106691      0.00029942     -0.00076998     -0.00000023
AIVX     1  Mu1.0001  In1.029 Se1.208               0.10980006      0.00022597     -0.00044890     -0.00000010
AIVX     1  Mu1.0001  In1.028 Se1.209               0.25022463      0.00015081     -0.00030693     -0.00000005
AIVX     1  Mu1.0001  In1.029 Se1.209               0.28895779      0.00023953     -0.00021056     -0.00000005
--
 
   (Skipping property calculation,
    use PROP keyword to activate)
--
 
  Total CASPT2 energies:
::    CASPT2 Root  1     Total energy:   -455.20847375
::    CASPT2 Root  2     Total energy:   -455.01323760
::    CASPT2 Root  3     Total energy:   -454.99329461
::    CASPT2 Root  4     Total energy:   -454.93816999
::    CASPT2 Root  5     Total energy:   -454.93656227
::    CASPT2 Root  6     Total energy:   -454.93778669
::    CASPT2 Root  7     Total energy:   -454.90887051
 
++ Multi-State CASPT2 section:
********************************************************************************
  MULTI-STATE CASPT2 SECTION
--------------------------------------------------------------------------------
 
  Output diagonal energies have been shifted. Add   -455.000000000000     
 
  Effective Hamiltonian matrix (Symmetric):
 
                1               2               3               4               5
   1        -0.20847375
   2        -0.00001269     -0.01323760
   3        -0.00030815      0.00009415      0.00670539
   4         0.00103563     -0.00012393      0.00078629      0.06183001
   5        -0.00934462      0.00031203      0.00023161      0.00839667      0.06343773
   6         0.01230132      0.00060200      0.00065759      0.00318363      0.00728835
   7        -0.00565860      0.00054044      0.00143473      0.00013711     -0.00078015
 
                6               7
   6         0.06221331
   7         0.00522310      0.09112949
 
       Total MS-CASPT2 energies:
::    MS-CASPT2 Root  1     Total energy:   -455.20949642
::    MS-CASPT2 Root  2     Total energy:   -455.01324645
::    MS-CASPT2 Root  3     Total energy:   -454.99333433
::    MS-CASPT2 Root  4     Total energy:   -454.94648296
::    MS-CASPT2 Root  5     Total energy:   -454.94118558
::    MS-CASPT2 Root  6     Total energy:   -454.92480508
::    MS-CASPT2 Root  7     Total energy:   -454.90784460
 
       Eigenvectors:
            0.99808027     -0.00019092     -0.00151589      0.04631672      0.03919624
            0.00009282      0.99994311      0.00406879     -0.00169114      0.00631871
            0.00141106     -0.00418811      0.99972171      0.00916514     -0.00306816
           -0.00438009      0.00243007     -0.01343185      0.58524337     -0.60213940
            0.03560260     -0.00369829     -0.00143180     -0.72193129     -0.08350621
           -0.04647247     -0.00732310     -0.00903021      0.36110892      0.78399016
            0.01968149     -0.00479470     -0.01654215     -0.06061069     -0.11928372
 
            0.00227909     -0.01211068
            0.00410204      0.00613187
            0.01041904      0.01830310
            0.54192710      0.03206026
            0.68522345      0.03205417
            0.47001741      0.17818122
           -0.12544678      0.98268858
 
--
 
  THE ORIGINAL CI ARRAYS ARE NOW MIXED AS LINEAR
  COMBINATIONS, GIVEN BY THE EIGENVECTORS.
  A NEW JOBIPH FILE NAMED 'JOBMIX' IS PREPARED.
********************************************************************************
 
++ Mixed CI coefficients:
  The CI coefficients for the MIXED state nr.   1
--------------------------------------------------------------------------------
 CI COEFFICIENTS LARGER THAN  0.50D-01
  Occupation of active orbitals, and spin coupling
  of open shells. (u,d: Spin up or down).
  SGUGA info is (Midvert:IsyUp:UpperWalk/LowerWalk)
        Conf  SGUGA info        Occupation    Coefficient         Weight
           1  ( 1:1:   1/   1)   22222200        0.971144       0.943122
           6  ( 1:1:   6/   1)   22220220       -0.078062       0.006094
           7  ( 1:1:   7/   1)   22222u0d        0.075729       0.005735
          15  ( 1:1:  15/   1)   22222002       -0.090240       0.008143
          64  ( 2:1:   4/   3)   2u22220d       -0.078773       0.006205
          81  ( 2:1:   1/   4)   u22222d0        0.103630       0.010739
         175  ( 3:1:   5/   8)   20222202       -0.093055       0.008659
         191  ( 3:1:   1/  10)   02222220       -0.075299       0.005670
 
  The CI coefficients for the MIXED state nr.   2
--------------------------------------------------------------------------------
 CI COEFFICIENTS LARGER THAN  0.50D-01
  Occupation of active orbitals, and spin coupling
  of open shells. (u,d: Spin up or down).
  SGUGA info is (Midvert:IsyUp:UpperWalk/LowerWalk)
        Conf  SGUGA info        Occupation    Coefficient         Weight
          21  ( 2:1:   1/   1)   222u22d0        0.054858       0.003009
          24  ( 2:1:   4/   1)   222u220d       -0.962794       0.926973
          32  ( 2:1:  12/   1)   222u022d        0.074427       0.005539
          33  ( 2:1:  13/   1)   222u2d02        0.096753       0.009361
         125  ( 3:1:   5/   3)   2u2d2202       -0.184819       0.034158
         213  ( 4:1:   1/   3)   u22u22dd        0.082948       0.006880
         269  ( 5:1:   1/   9)   022u222d       -0.076084       0.005789
 
  The CI coefficients for the MIXED state nr.   3
--------------------------------------------------------------------------------
 CI COEFFICIENTS LARGER THAN  0.50D-01
  Occupation of active orbitals, and spin coupling
  of open shells. (u,d: Spin up or down).
  SGUGA info is (Midvert:IsyUp:UpperWalk/LowerWalk)
        Conf  SGUGA info        Occupation    Coefficient         Weight
           2  ( 1:1:   2/   1)   22222ud0       -0.183698       0.033745
           3  ( 1:1:   3/   1)   2222u2d0        0.056711       0.003216
          21  ( 2:1:   1/   1)   222u22d0       -0.109680       0.012030
          41  ( 2:1:   1/   2)   22u222d0       -0.929473       0.863919
          43  ( 2:1:   3/   2)   22u2d220       -0.152183       0.023160
          45  ( 2:1:   5/   2)   22u22dud       -0.064093       0.004108
          47  ( 2:1:   7/   2)   22u22udd        0.115966       0.013448
          55  ( 2:1:  15/   2)   22u220d2       -0.077796       0.006052
         161  ( 3:1:   1/   7)   u2d22220        0.118628       0.014072
         219  ( 4:1:   1/   4)   2uu222dd        0.066619       0.004438
         222  ( 4:1:   4/   4)   2uu22dd2       -0.053751       0.002889
         294  ( 5:1:   2/  15)   20u222d2        0.096522       0.009316
 
  The CI coefficients for the MIXED state nr.   4
--------------------------------------------------------------------------------
 CI COEFFICIENTS LARGER THAN  0.50D-01
  Occupation of active orbitals, and spin coupling
  of open shells. (u,d: Spin up or down).
  SGUGA info is (Midvert:IsyUp:UpperWalk/LowerWalk)
        Conf  SGUGA info        Occupation    Coefficient         Weight
           2  ( 1:1:   2/   1)   22222ud0        0.086358       0.007458
           3  ( 1:1:   3/   1)   2222u2d0       -0.728009       0.529997
           7  ( 1:1:   7/   1)   22222u0d        0.580930       0.337479
          12  ( 1:1:  12/   1)   2222uudd        0.075210       0.005657
          15  ( 1:1:  15/   1)   22222002        0.110139       0.012130
          18  ( 1:1:  18/   1)   2222u0d2       -0.061509       0.003783
          41  ( 2:1:   1/   2)   22u222d0       -0.064981       0.004222
          68  ( 2:1:   8/   3)   2u22u2dd        0.056301       0.003170
          73  ( 2:1:  13/   3)   2u222d02        0.152513       0.023260
          81  ( 2:1:   1/   4)   u22222d0       -0.077377       0.005987
          83  ( 2:1:   3/   4)   u222d220        0.170487       0.029066
          87  ( 2:1:   7/   4)   u2222udd       -0.059363       0.003524
         175  ( 3:1:   5/   8)   20222202       -0.067425       0.004546
         177  ( 3:1:   7/   8)   2022u2d2        0.075201       0.005655
         193  ( 3:1:   3/  10)   02222u2d        0.050192       0.002519
 
  The CI coefficients for the MIXED state nr.   5
--------------------------------------------------------------------------------
 CI COEFFICIENTS LARGER THAN  0.50D-01
  Occupation of active orbitals, and spin coupling
  of open shells. (u,d: Spin up or down).
  SGUGA info is (Midvert:IsyUp:UpperWalk/LowerWalk)
        Conf  SGUGA info        Occupation    Coefficient         Weight
           2  ( 1:1:   2/   1)   22222ud0       -0.287650       0.082743
           3  ( 1:1:   3/   1)   2222u2d0        0.546834       0.299027
           7  ( 1:1:   7/   1)   22222u0d        0.700180       0.490252
          12  ( 1:1:  12/   1)   2222uudd       -0.053850       0.002900
          14  ( 1:1:  14/   1)   22220u2d        0.060074       0.003609
          15  ( 1:1:  15/   1)   22222002        0.136087       0.018520
          18  ( 1:1:  18/   1)   2222u0d2        0.052585       0.002765
          21  ( 2:1:   1/   1)   222u22d0        0.050038       0.002504
          41  ( 2:1:   1/   2)   22u222d0        0.080882       0.006542
          73  ( 2:1:  13/   3)   2u222d02        0.184384       0.033998
          83  ( 2:1:   3/   4)   u222d220       -0.140794       0.019823
          87  ( 2:1:   7/   4)   u2222udd       -0.066370       0.004405
         175  ( 3:1:   5/   8)   20222202       -0.083514       0.006975
         177  ( 3:1:   7/   8)   2022u2d2       -0.051810       0.002684
         193  ( 3:1:   3/  10)   02222u2d        0.050560       0.002556
 
  The CI coefficients for the MIXED state nr.   6
--------------------------------------------------------------------------------
 CI COEFFICIENTS LARGER THAN  0.50D-01
  Occupation of active orbitals, and spin coupling
  of open shells. (u,d: Spin up or down).
  SGUGA info is (Midvert:IsyUp:UpperWalk/LowerWalk)
        Conf  SGUGA info        Occupation    Coefficient         Weight
           2  ( 1:1:   2/   1)   22222ud0        0.883055       0.779786
           3  ( 1:1:   3/   1)   2222u2d0        0.259320       0.067247
           7  ( 1:1:   7/   1)   22222u0d        0.172895       0.029893
          21  ( 2:1:   1/   1)   222u22d0       -0.083925       0.007043
          41  ( 2:1:   1/   2)   22u222d0       -0.144955       0.021012
          65  ( 2:1:   5/   3)   2u222dud        0.142588       0.020331
          67  ( 2:1:   7/   3)   2u222udd       -0.197969       0.039192
          83  ( 2:1:   3/   4)   u222d220       -0.051051       0.002606
         176  ( 3:1:   6/   8)   20222ud2       -0.128794       0.016588
 
  The CI coefficients for the MIXED state nr.   7
--------------------------------------------------------------------------------
 CI COEFFICIENTS LARGER THAN  0.50D-01
  Occupation of active orbitals, and spin coupling
  of open shells. (u,d: Spin up or down).
  SGUGA info is (Midvert:IsyUp:UpperWalk/LowerWalk)
        Conf  SGUGA info        Occupation    Coefficient         Weight
           2  ( 1:1:   2/   1)   22222ud0        0.073844       0.005453
          21  ( 2:1:   1/   1)   222u22d0        0.895361       0.801672
          25  ( 2:1:   5/   1)   222u2dud       -0.220273       0.048520
          27  ( 2:1:   7/   1)   222u2udd        0.312689       0.097774
          41  ( 2:1:   1/   2)   22u222d0       -0.121039       0.014650
         210  ( 4:1:   4/   2)   2u2u2dd2       -0.078357       0.006140
         262  ( 5:1:   2/   7)   202u22d2       -0.084025       0.007060
 
--
 
--- Stop Module: caspt2 at Wed Nov 13 20:41:41 2024 /rc=_RC_ALL_IS_WELL_ ---
*** files: xmldump
    saved to directory /home/pcaah4
--- Module caspt2 spent 6 minutes 54 seconds ---

.##################.
.# Happy landing! #.
.##################.

    Timing: Wall=663.16 User=578.40 System=75.89
******************************************************
*** WorkDir at /srv/COMMUNAL_SCRATCH/10395 cleaned ***
******************************************************
