   This run of MOLCAS is using the pymolcas driver

                             OPE
                             OPE          NMOL  CASOP  ENMOLC A   SO
                 OPE        NMOLC        AS  OP EN  MO LC     AS  OP
                OPENM       OL CA        SO  PE NM  OL CA     SOP EN
                OP EN      MO   LC       AS  OP ENMOL  CASO   PENMOL
                OP  EN     MO   LC       AS  OP EN     MO     LC ASO
               OP   E  NMOL  C  AS       OP  EN MO     LC     AS  OP
               OP  E   NMO   LC AS        OPEN  MO     LCASOP EN   M
               O  PEN   MO  LCA  SO
            OPE   NMO   L   CAS    OP
        OPENMOL  CASOP     ENMOL   CASOPE
     OPENMOLCA   SOPENMOLCASOPEN   MOLCASOPE
    OPENMOLCAS   OP           EN   MOL    CAS
    OPENMOLCAS       OP  ENM        O     LCA
    OPENMOLCAS    OPEN  MOLCASO     P  E  NMO
    OPENMOLCAS     OP               E  N  MOL
    OPENMOLCA   SO           PENM   O  L  CAS    OPEN    MO    LCAS
    OPENMOLCA   SOP           ENM   O  L  CAS   OP  EN  MOLC  AS   O
    OPENMOLCA   SOPE           NM      O  LCA   S      OP  EN MO
    OPENMOLC                AS         O  PEN   M      OL  CA  SOPE
    OPENMO        LCASOPE  NMOL        C  ASO   P      ENMOLC     AS
    OPE     NMO      LCA  SO     P     E   NM   OL  CA SO  PE N   MO
          OPENMOLCA            SOPE   NMO        LCAS  O    P  ENMO
     OPENMOLCASOPENMOLCASOPENMOLCASOPENMOLCA
        OPENMOLCASOPENMOLCASOPENMOLCASOPE
            OPENMOLCASOPENMOLCASOPENM
               OPENMOLCASOPENMOLCA        version: v23.06
                   OPENMOLCASO
                       OPE                tag:

 OpenMolcas is free software; you can redistribute it and/or modify it
 under the terms of the GNU Lesser General Public License version 2.1.
 OpenMolcas is distributed in the hope that it will be useful, but it
 is provided "as is" and without any express or implied warranties.
 For more details see the full text of the license in the file
 LICENSE or in <http://www.gnu.org/licenses/>.

                 Copyright (C) The OpenMolcas Authors
           For the author list and the recommended citation,
                   consult the file CONTRIBUTORS.md

           *************************************************
           * pymolcas version py2.24                       *
           *   build 4567b286dd94b1984b333a4ddf893180      *
           *   (after the EMIL interpreter by V. Veryazov) *
           *************************************************

configuration info
------------------
Host name: loginchem01.nottingham.ac.uk (Linux)
C Compiler ID: Intel
C flags: -std=gnu99 -gcc-sys -qopenmp
Fortran Compiler ID: Intel
Fortran flags: -fpp -i8 -heap-arrays -qopenmp
Definitions: _MOLCAS_;_I8_;_LINUX_
Parallel: OFF (GA=OFF)


   ------------------------------------------------------------------------------------------------------------
  |
  |              Project: orca_geometry_optimisation_225_105_BP86_def2-SVP_def2J_scf_cas1_ras12i11_cas2_ras12i8
  |       Submitted from: /home/pcaah4
  |         Scratch area: /srv/COMMUNAL_SCRATCH/10394
  |      Save outputs to: /home/pcaah4
  |               Molcas: /software/chemistry/openmolcas/openmolcas-23.06-openmp
  |
  | Scratch area is empty
  |
  |       MOLCAS_DRIVER = /software/chemistry/openmolcas/openmolcas-23.06-openmp/sbin/pymolcas
  | MOLCAS_KEEP_WORKDIR = NO
  |       MOLCAS_NPROCS = 1
  |       MOLCAS_SOURCE = /software/chemistry/openmolcas/openmolcas-23.06-openmp
  |    MOLCAS_STRUCTURE = 0
  |
   ------------------------------------------------------------------------------------------------------------

++ ---------   Input file   ---------

&SEWARD
TITLE
orca_geometry_optimisation_225_105_BP86_def2-SVP_def2J_scf_cas1_ras12i11
MULTIPOLES
2
SDIPOLE
ANGMOM
0 0 0
BASIS SET
C.ANO-S...4S3P1D.
C1           -0.009746   -0.043750   -0.026202 /Angstrom
C3            2.127601    1.211727   -0.035188 /Angstrom
C4            3.282852    1.082172   -1.039482 /Angstrom
C6            4.064084    1.689199   -3.308980 /Angstrom
C19          -0.640223   -1.427471    0.086911 /Angstrom
END OF BASIS
BASIS SET
N.ANO-S...4S3P1D.
N2            1.367216   -0.026251   -0.007508 /Angstrom
N5            3.103421    1.749752   -2.223342 /Angstrom
END OF BASIS
BASIS SET
O.ANO-S...4S3P1D.
O7           -0.684214    0.980601   -0.130444 /Angstrom
O8            4.257431    0.369689   -0.793816 /Angstrom
END OF BASIS
BASIS SET
H.ANO-S...2S1P.
H9           -1.234242   -1.472269    1.021964 /Angstrom
H10          -1.350424   -1.563311   -0.752221 /Angstrom
H11           0.090215   -2.260323    0.084640 /Angstrom
H12           1.894693   -0.892570    0.117637 /Angstrom
H13           1.404276    2.016183   -0.276762 /Angstrom
H14           2.578177    1.432361    0.958167 /Angstrom
H15           2.251420    2.299392   -2.343556 /Angstrom
H16           3.619358    1.245143   -4.225263 /Angstrom
H17           4.462402    2.694768   -3.562298 /Angstrom
H18           4.899262    1.047538   -2.969237 /Angstrom
END OF BASIS
END OF INPUT

&RASSCF
TITLE
orca_geometry_optimisation_225_105_BP86_def2-SVP_def2J_scf_cas1_ras12i11
LUMORB
SPIN
1
SYMMETRY
1
NACTEL
12  0  0
INACTIVE
29
DELETED  ! delete Rydberg orbitals from an initial CAS(12,11) if done
3
FROZEN
0
RAS2
8
ITERATIONS
64 25
CIROOT
7 7
1 2 3 4 5 6 7
1 1 1 1 1 1 1
LEVSHFT
0.3
CIMX
20
FILEorb = /home/pcaah4/outputs/cas1_ras12i11_rasorb_files/orca_geometry_optimisation_225_105_BP86_def2-SVP_def2J_scf_cas1_ras12i11.RasOrb
ALTEr
3
 1 38 210
 1 39 211
 1 40 212
END OF INPUT

&RASSI
NROF JOBIPH
    1 7
    1 2 3 5 4 6 7
TOFILE
TRDI
TDMN
1.0D-6
END OF INPUT

&CASPT2
TITLE
orca_geometry_optimisation_225_105_BP86_def2-SVP_def2J_scf_cas1_ras12i11
MULTISTATE
7 1 2 3 4 5 6 7
SHIFT
0.35
MAXITER
50
END OF INPUT

-- ----------------------------------

--- Start Module: seward at Wed Nov 13 20:30:33 2024 ---
 
()()()()()()()()()()()()()()()()()()()()()()()()()()()()()()()()()()()()()()()()()()()()()()()()()()

                                              &SEWARD

                                   only a single process is used
                       available to each process: 2.0 GB of memory, 1 thread
                                            pid: 1795613
()()()()()()()()()()()()()()()()()()()()()()()()()()()()()()()()()()()()()()()()()()()()()()()()()()
 
               SEWARD will generate:
                  Multipole Moment integrals up to order  2
                  Kinetic Energy integrals
                  Nuclear Attraction integrals (point charge)
                  One-Electron Hamiltonian integrals
                  Velocity integrals
                  Orbital angular momentum around ( 0.0000  0.0000  0.0000 )
                  Velocity quadrupole around ( 3.5508  1.1689 -1.5972 )
                  Two-Electron Repulsion integrals
 
 Title:
            orca_geometry_optimisation_225_105_BP86_def2-SVP_def2J_scf_cas1_ras12i11    
 
 
                   Integrals are discarded if absolute value <: 0.10E-13
                   Integral cutoff threshold is set to       <: 0.10E-15
 
++    Symmetry information:
      ---------------------
 
                    Character Table for C1 
 
                             E  
                    a        1  x, y, xy, Rz, z, xz, Ry, yz, Rx, I
--
 
 
++    Basis set information:
      ----------------------
 
 
      Basis set label: C.ANO-S...4S3P1D......
 
      Electronic valence basis set:
      ------------------
      Associated Effective Charge   6.000000 au
      Associated Actual Charge      6.000000 au
      Nuclear Model: Point charge
 
      Shell  nPrim  nBasis  Cartesian Spherical Contaminant
         s      10       4        X                  
         p       6       3        X                  
         d       3       1                 X         
 
 
      Basis set label: N.ANO-S...4S3P1D......
 
      Electronic valence basis set:
      ------------------
      Associated Effective Charge   7.000000 au
      Associated Actual Charge      7.000000 au
      Nuclear Model: Point charge
 
      Shell  nPrim  nBasis  Cartesian Spherical Contaminant
         s      10       4        X                  
         p       6       3        X                  
         d       3       1                 X         
 
 
      Basis set label: O.ANO-S...4S3P1D......
 
      Electronic valence basis set:
      ------------------
      Associated Effective Charge   8.000000 au
      Associated Actual Charge      8.000000 au
      Nuclear Model: Point charge
 
      Shell  nPrim  nBasis  Cartesian Spherical Contaminant
         s      10       4        X                  
         p       6       3        X                  
         d       3       1                 X         
 
 
      Basis set label: H.ANO-S...2S1P......
 
      Electronic valence basis set:
      ------------------
      Associated Effective Charge   1.000000 au
      Associated Actual Charge      1.000000 au
      Nuclear Model: Point charge
 
      Shell  nPrim  nBasis  Cartesian Spherical Contaminant
         s       7       2        X                  
         p       3       1        X                  
--
 
 
++    Molecular structure info:
      -------------------------
 
                    ************************************************ 
                    **** Cartesian Coordinates / Bohr, Angstrom **** 
                    ************************************************ 
 
     Center  Label                x              y              z                     x              y              z
        1      C1              -0.018417      -0.082676      -0.049515             -0.009746      -0.043750      -0.026202
        2      C3               4.020583       2.289832      -0.066496              2.127601       1.211727      -0.035188
        3      C4               6.203691       2.045009      -1.964336              3.282852       1.082172      -1.039482
        4      C6               7.680006       3.192123      -6.253066              4.064084       1.689199      -3.308980
        5      C19             -1.209846      -2.697529       0.164238             -0.640223      -1.427471       0.086911
        6      N2               2.583664      -0.049607      -0.014188              1.367216      -0.026251      -0.007508
        7      N5               5.864616       3.306552      -4.201507              3.103421       1.749752      -2.223342
        8      O7              -1.292977       1.853067      -0.246503             -0.684214       0.980601      -0.130444
        9      O8               8.045379       0.698611      -1.500095              4.257431       0.369689      -0.793816
       10      H9              -2.332379      -2.782185       1.931232             -1.234242      -1.472269       1.021964
       11      H10             -2.551932      -2.954230      -1.421492             -1.350424      -1.563311      -0.752221
       12      H11              0.170482      -4.271391       0.159946              0.090215      -2.260323       0.084640
       13      H12              3.580451      -1.686713       0.222302              1.894693      -0.892570       0.117637
       14      H13              2.653697       3.810034      -0.523004              1.404276       2.016183      -0.276762
       15      H14              4.872048       2.706770       1.810673              2.578177       1.432361       0.958167
       16      H15              4.254567       4.345221      -4.428679              2.251420       2.299392      -2.343556
       17      H16              6.839595       2.352979      -7.984590              3.619358       1.245143      -4.225263
       18      H17              8.432718       5.092373      -6.731768              4.462402       2.694768      -3.562298
       19      H18              9.258263       1.979560      -5.611045              4.899262       1.047538      -2.969237
 
                    ************************************************* 
                    **** InterNuclear Distances / Bohr, Angstrom **** 
                    ************************************************* 
 
     Atom centers         Bohr        Angstrom
   16 H15       7 N5      1.929429        1.021010
   13 H12       6 N2      1.931224        1.021960
   19 H18       4 C6      2.091267        1.106651
   11 H10       5 C19     2.093234        1.107692
   12 H11       5 C19     2.093410        1.107785
   14 H13       2 C3      2.094705        1.108470
   10 H9        5 C19     2.095117        1.108688
   18 H17       4 C6      2.099210        1.110854
   17 H16       4 C6      2.099673        1.111099
   15 H14       2 C3      2.102996        1.112858
    8 O7        1 C1      2.326028        1.230881
    9 O8        3 C4      2.328115        1.231985
    7 N5        3 C4      2.590637        1.370906
    6 N2        1 C1      2.602531        1.377200
    7 N5        4 C6      2.741829        1.450913
    6 N2        2 C3      2.745988        1.453114
    5 C19       1 C1      2.881432        1.524788
    3 C4        2 C3      2.903050        1.536228
   11 H10      10 H9      3.364307        1.780314
   15 H14      14 H13     3.403575        1.801094
   18 H17      17 H16     3.407621        1.803236
   12 H11      10 H9      3.408739        1.803827
   19 H18      17 H16     3.409269        1.804107
   19 H18      18 H17     3.409861        1.804421
   12 H11      11 H10     3.412828        1.805991
   14 H13       6 N2      3.893665        2.060439
   16 H15       3 C4      3.893976        2.060603
   19 H18       7 N5      3.906987        2.067489
   13 H12       1 C1      3.949515        2.089994
   13 H12       2 C3      4.011238        2.122656
   15 H14       6 N2      4.020502        2.127558
   17 H16       7 N5      4.021393        2.128029
   18 H17       7 N5      4.023248        2.129011
   16 H15       4 C6      4.048660        2.142459
   15 H14       3 C4      4.057326        2.147045
   11 H10       1 C1      4.067781        2.152577
   10 H9        1 C1      4.070028        2.153766
   12 H11       1 C1      4.198202        2.221593
   14 H13       3 C4      4.218437        2.232301
   16 H15      14 H13     4.254821        2.251555
   13 H12      12 H11     4.279292        2.264504
    8 O7        6 N2      4.324637        2.288499
    9 O8        7 N5      4.342201        2.297794
   14 H13       8 O7      4.413888        2.335729
   19 H18       9 O8      4.473458        2.367252
    9 O8        2 C3      4.559185        2.412617
    8 O7        5 C19     4.569852        2.418262
    6 N2        3 C4      4.614661        2.441973
    6 N2        5 C19     4.629692        2.449927
    7 N5        2 C3      4.640312        2.455547
    4 C6        3 C4      4.678523        2.475768
    2 C3        1 C1      4.684294        2.478821
   14 H13       1 C1      4.745268        2.511088
   19 H18       3 C4      4.757434        2.517526
   17 H16      16 H15     4.826583        2.554118
   16 H15       2 C3      4.827838        2.554782
   18 H17      16 H15     4.829016        2.555405
   15 H14      13 H12     4.847044        2.564945
   12 H11       6 N2      4.865926        2.574937
   13 H12       5 C19     4.896128        2.590919
   14 H13       7 N5      4.908653        2.597547
   15 H14       9 O8      5.006387        2.649266
   13 H12       3 C4      5.058510        2.676848
   11 H10       8 O7      5.106434        2.702208
   10 H9        8 O7      5.225749        2.765347
    8 O7        2 C3      5.334519        2.822906
   13 H12       9 O8      5.347149        2.829589
    9 O8        4 C6      5.379762        2.846847
   14 H13      13 H12     5.623929        2.976055
   19 H18      16 H15     5.659622        2.994943
--
 
 
            Nuclear Potential Energy            448.86766590 au
 
 
      Basis set specifications :
      Symmetry species         a  
      Basis functions          212
 
 
      Input file to MOLDEN was generated!
 
--- Stop Module: seward at Wed Nov 13 20:32:22 2024 /rc=_RC_ALL_IS_WELL_ ---
*** files: orca_geometry_optimisation_225_105_BP86_def2-SVP_def2J_scf_cas1_ras12i11_cas2_ras12i8.GssOrb
           orca_geometry_optimisation_225_105_BP86_def2-SVP_def2J_scf_cas1_ras12i11_cas2_ras12i8.guessorb.molden xmldump
    saved to directory /home/pcaah4
--- Module seward spent 1 minute 49 seconds ---

*** symbolic link created: INPORB -> orca_geometry_optimisation_225_105_BP86_def2-SVP_def2J_scf_cas1_ras12i11_cas2_ras12i8.GssOrb
--- Start Module: rasscf at Wed Nov 13 20:32:23 2024 ---
 
()()()()()()()()()()()()()()()()()()()()()()()()()()()()()()()()()()()()()()()()()()()()()()()()()()

                                              &RASSCF

                                   only a single process is used
                       available to each process: 2.0 GB of memory, 1 thread
                                            pid: 1796030
()()()()()()()()()()()()()()()()()()()()()()()()()()()()()()()()()()()()()()()()()()()()()()()()()()
 
 
      Header of the ONEINT file:
      --------------------------
      orca_geometry_optimisation_225_105_BP86_def2-SVP_def2J_scf_cas1_ras12i11
      Integrals generated by Gateway/Seward, Wed Nov 13 20:30:34 2024
 
 
      OrdInt status: non-squared
 
 
      Cartesian coordinates in Angstrom:
      -----------------------------------------------------
      No.  Label        X            Y            Z        
      -----------------------------------------------------
       1   C1        -0.00974600  -0.04375000  -0.02620200
       2   C3         2.12760100   1.21172700  -0.03518800
       3   C4         3.28285200   1.08217200  -1.03948200
       4   C6         4.06408400   1.68919900  -3.30898000
       5   C19       -0.64022300  -1.42747100   0.08691100
       6   N2         1.36721600  -0.02625100  -0.00750800
       7   N5         3.10342100   1.74975200  -2.22334200
       8   O7        -0.68421400   0.98060100  -0.13044400
       9   O8         4.25743100   0.36968900  -0.79381600
      10   H9        -1.23424200  -1.47226900   1.02196400
      11   H10       -1.35042400  -1.56331100  -0.75222100
      12   H11        0.09021500  -2.26032300   0.08464000
      13   H12        1.89469300  -0.89257000   0.11763700
      14   H13        1.40427600   2.01618300  -0.27676200
      15   H14        2.57817700   1.43236100   0.95816700
      16   H15        2.25142000   2.29939200  -2.34355600
      17   H16        3.61935800   1.24514300  -4.22526300
      18   H17        4.46240200   2.69476800  -3.56229800
      19   H18        4.89926200   1.04753800  -2.96923700
      -----------------------------------------------------
      Nuclear repulsion energy =  448.86766590
 
++    Wave function specifications:
      -----------------------------
 
      Number of closed shell electrons          58
      Number of electrons in active shells      12
      Max number of holes in RAS1 space          0
      Max nr of electrons in RAS3 space          0
      Number of inactive orbitals               29
      Number of active orbitals                  8
      Number of secondary orbitals             172
      Spin quantum number                      0.0
      State symmetry                             1
--
 
++    Orbital specifications:
      -----------------------
 
      Symmetry species                           1
                                                 a
      Frozen orbitals                            0
      Inactive orbitals                         29
      Active orbitals                            8
      RAS1 orbitals                              0
      RAS2 orbitals                              8
      RAS3 orbitals                              0
      Secondary orbitals                       172
      Deleted orbitals                           3
      Number of basis functions                212
--
 
++    CI expansion specifications:
      ----------------------------
 
      Number of CSFs                           336
      Number of determinants                   406
      Number of root(s) required                 7
      Root chosen for geometry opt.              7
      CI roots used                              1     2     3     4     5     6     7
      weights                                0.143 0.143 0.143 0.143 0.143 0.143 0.143
      highest root included in the CI            7
      max. size of the explicit Hamiltonian    200
--
 
++    Optimization specifications:
      ----------------------------
 
      RASSCF algorithm: Conventional
      Maximum number of macro iterations        64
      Maximum number of SX iterations           25
      Threshold for RASSCF energy            0.100E-07
      Threshold for max MO rotation          0.100E+00
      Threshold for max BLB element          0.100E-03
      Level shift parameter                  0.300E+00
      Make Quasi-Newton update
--
 
      The MO-coefficients are taken from the file:
      /home/pcaah4/outputs/cas1_ras12i11_rasorb_files/orca_geometry_optimisation_225_105_BP86_def2-SVP_def2J_scf_cas1_ras12i11.RasOrb                                                                                                                                 
      Title: RASSCF average (pseudo-natural) orbitals                                      
 
      Total molecular charge    0.00
 
      Molecular orbitals exchanged:
        In symmetry  1 :  38 210
        In symmetry  1 :  39 211
        In symmetry  1 :  40 212
 
 
      ************************************************************************************************************************
      *                                                                                                                      *
      *                                            Wave function control section                                             *
      *                                                                                                                      *
      ************************************************************************************************************************
 
 
                                         RASSCF iterations: Energy and convergence statistics
                                         ----------------------------------------------------
 
      Iter CI   SX   CI       RASSCF       Energy    max ROT     max BLB   max BLB  Level Ln srch  Step   QN   Walltime
          iter iter root      energy       change     param      element    value   shift minimum  type update hh:mm:ss
 Nr of preliminary CI iterations:   5
        1   1   11    0  -453.70281754    0.00E+00  -0.27E-01   34 142 1  0.12E-01*  0.18   0.00    SX    NO    0:00:13
        2   3    8    0  -453.70599696   -0.32E-02*  0.14E-01   11  40 1  0.35E-02*  0.18   0.00    SX    NO    0:00:06
        3   1    8    0  -453.70627790   -0.28E-03*  0.53E-02   22  98 1  0.13E-02*  0.18   0.00    SX    NO    0:00:06
        4   5    7    0  -453.70638360   -0.11E-03* -0.39E-02   22  79 1  0.40E-03*  0.18   0.00    SX    NO    0:00:06
        5   3    7    0  -453.70640747   -0.24E-04* -0.48E-02   22  98 1  0.41E-03*  0.18   1.47    QN   YES    0:00:06
        6   4    6    0  -453.70641901   -0.12E-04* -0.48E-03   22  98 1 -0.13E-03*  0.18   0.95    QN   YES    0:00:06
        7   3    6    0  -453.70641958   -0.56E-06*  0.60E-03   22  98 1  0.13E-03*  0.18   1.16    QN   YES    0:00:06
        8   4    6    0  -453.70641992   -0.34E-06* -0.14E-03   22  98 1  0.31E-04   0.18   1.16    QN   YES    0:00:06
        9   3    5    0  -453.70641997   -0.48E-07*  0.11E-03   22  98 1  0.20E-04   0.18   1.42    QN   YES    0:00:06
       10   3    5    0  -453.70641998   -0.18E-07* -0.29E-04   13 209 1 -0.38E-05   0.18   0.98    QN   YES    0:00:06
       11   1    4    0  -453.70641998   -0.17E-08  -0.35E-04   22  98 1  0.37E-05   0.18   1.71    QN   YES    0:00:06
      Convergence after 11 iterations
       12   1    4    0  -453.70641999   -0.71E-09  -0.35E-04   20  74 1 -0.14E-05   0.18   1.71    QN   YES    0:00:06
 
      ************************************************************************************************************************
                                                      Wave function printout:
                       occupation of active orbitals, and spin coupling of open shells (u,d: Spin up or down)
      ************************************************************************************************************************
 
      Note: transformation to natural orbitals
      has been made, which may change the order of the CSFs.
 
      printout of CI-coefficients larger than  0.05 for root  1
      energy=    -453.958324
      conf/sym  11111111     Coeff  Weight
             1  22222200  -0.96278 0.92695
             6  22220220   0.08626 0.00744
             7  22222u0d  -0.14051 0.01974
            15  22222002   0.07561 0.00572
            64  2u22220d   0.07663 0.00587
            73  2u222d02  -0.05999 0.00360
            81  u22222d0   0.09343 0.00873
           175  20222202   0.09735 0.00948
           191  02222220   0.07671 0.00588
 
      printout of CI-coefficients larger than  0.05 for root  2
      energy=    -453.744925
      conf/sym  11111111     Coeff  Weight
            21  222u22d0   0.13886 0.01928
            24  222u220d   0.95274 0.90771
            32  222u022d  -0.08352 0.00698
            33  222u2d02  -0.08528 0.00727
           115  22ud2202   0.05962 0.00355
           125  2u2d2202   0.18166 0.03300
           213  u22u22dd   0.07673 0.00589
           269  022u222d   0.07696 0.00592
 
      printout of CI-coefficients larger than  0.05 for root  3
      energy=    -453.736898
      conf/sym  11111111     Coeff  Weight
             2  22222ud0  -0.26500 0.07023
            41  22u222d0  -0.91154 0.83090
            43  22u2d220   0.17100 0.02924
            45  22u22dud  -0.06350 0.00403
            47  22u22udd   0.10690 0.01143
            55  22u220d2  -0.07835 0.00614
           161  u2d22220  -0.12264 0.01504
           219  2uu222dd   0.06344 0.00402
           294  20u222d2   0.09137 0.00835
 
      printout of CI-coefficients larger than  0.05 for root  4
      energy=    -453.646701
      conf/sym  11111111     Coeff  Weight
             1  22222200  -0.06753 0.00456
             2  22222ud0   0.38271 0.14647
             3  2222u2d0   0.77565 0.60163
             6  22220220   0.06008 0.00361
             7  22222u0d   0.33896 0.11489
            12  2222uudd  -0.07974 0.00636
            15  22222002   0.07523 0.00566
            18  2222u0d2   0.06477 0.00419
            21  222u22d0   0.05453 0.00297
            41  22u222d0  -0.10823 0.01171
            65  2u222dud   0.05839 0.00341
            67  2u222udd  -0.07357 0.00541
            68  2u22u2dd  -0.05722 0.00327
            73  2u222d02   0.08758 0.00767
            81  u22222d0   0.09281 0.00861
            83  u222d220   0.18600 0.03460
           177  2022u2d2  -0.07677 0.00589
 
      printout of CI-coefficients larger than  0.05 for root  5
      energy=    -453.636425
      conf/sym  11111111     Coeff  Weight
             1  22222200   0.05499 0.00302
             2  22222ud0  -0.63833 0.40747
             3  2222u2d0   0.52968 0.28056
             7  22222u0d  -0.39636 0.15710
            12  2222uudd  -0.05035 0.00254
            15  22222002  -0.08769 0.00769
            41  22u222d0   0.20072 0.04029
            65  2u222dud  -0.10395 0.01081
            67  2u222udd   0.13233 0.01751
            73  2u222d02  -0.10460 0.01094
            83  u222d220   0.14837 0.02201
           176  20222ud2   0.08471 0.00718
           177  2022u2d2  -0.05045 0.00255
 
      printout of CI-coefficients larger than  0.05 for root  6
      energy=    -453.620420
      conf/sym  11111111     Coeff  Weight
             1  22222200   0.08633 0.00745
             2  22222ud0   0.49693 0.24694
             3  2222u2d0   0.08413 0.00708
             7  22222u0d  -0.65285 0.42622
            14  22220u2d  -0.06083 0.00370
            15  22222002  -0.11967 0.01432
            21  222u22d0  -0.40181 0.16145
            24  222u220d   0.05236 0.00274
            25  222u2dud   0.10036 0.01007
            27  222u2udd  -0.14235 0.02026
            41  22u222d0  -0.09964 0.00993
            65  2u222dud   0.08092 0.00655
            67  2u222udd  -0.12987 0.01687
            73  2u222d02  -0.17006 0.02892
            87  u2222udd  -0.06145 0.00378
           175  20222202   0.06517 0.00425
           176  20222ud2  -0.07892 0.00623
 
      printout of CI-coefficients larger than  0.05 for root  7
      energy=    -453.601246
      conf/sym  11111111     Coeff  Weight
             2  22222ud0   0.18694 0.03495
             7  22222u0d  -0.36610 0.13403
            15  22222002  -0.08314 0.00691
            21  222u22d0   0.78597 0.61774
            24  222u220d  -0.11973 0.01433
            25  222u2dud  -0.20290 0.04117
            27  222u2udd   0.28287 0.08002
            41  22u222d0  -0.08554 0.00732
            67  2u222udd  -0.05006 0.00251
            73  2u222d02  -0.09265 0.00858
            81  u22222d0  -0.05699 0.00325
           112  22ud22ud  -0.07323 0.00536
           201  22uu22dd  -0.07295 0.00532
           210  2u2u2dd2  -0.07082 0.00502
           262  202u22d2  -0.07061 0.00499
 
      Natural orbitals and occupation numbers for root  1
      sym 1:   1.971383   1.995514   1.999861   1.999721   1.994149   1.956750   0.034708   0.047913
 
      Natural orbitals and occupation numbers for root  2
      sym 1:   1.971496   1.999651   1.998327   1.005271   1.994692   1.999468   0.035617   0.995478
 
      Natural orbitals and occupation numbers for root  3
      sym 1:   1.999779   1.993145   1.004827   1.998033   1.998415   1.955979   0.998815   0.051007
 
      Natural orbitals and occupation numbers for root  4
      sym 1:   1.967665   1.953422   1.999023   1.999281   1.151166   1.856031   0.897123   0.176289
 
      Natural orbitals and occupation numbers for root  5
      sym 1:   1.981078   1.933990   1.997892   1.998931   1.888883   1.102300   0.939160   0.157765
 
      Natural orbitals and occupation numbers for root  6
      sym 1:   1.991312   1.947168   1.997250   1.893295   1.983306   1.138366   0.182384   0.866918
 
      Natural orbitals and occupation numbers for root  7
      sym 1:   1.998249   1.973599   1.993377   1.278981   1.987160   1.813305   0.734661   0.220668
 
      ************************************************************************************************************************
      *                                                                                                                      *
      *                                                    Final results                                                     *
      *                                                                                                                      *
      ************************************************************************************************************************
 
 
++    Wave function specifications:
      -----------------------------
 
      Number of closed shell electrons          58
      Number of electrons in active shells      12
      Max number of holes in RAS1 space          0
      Max nr of electrons in RAS3 space          0
      Number of inactive orbitals               29
      Number of active orbitals                  8
      Number of secondary orbitals             172
      Spin quantum number                      0.0
      State symmetry                             1
--
 
++    Orbital specifications:
      -----------------------
 
      Symmetry species                           1
                                                 a
      Frozen orbitals                            0
      Inactive orbitals                         29
      Active orbitals                            8
      RAS1 orbitals                              0
      RAS2 orbitals                              8
      RAS3 orbitals                              0
      Secondary orbitals                       172
      Deleted orbitals                           3
      Number of basis functions                212
--
 
++    CI expansion specifications:
      ----------------------------
 
      Number of CSFs                           336
      Number of determinants                   406
      Number of root(s) required                 7
      CI roots used                              1     2     3     4     5     6     7
      weights                                0.143 0.143 0.143 0.143 0.143 0.143 0.143
      highest root included in the CI            7
      Root passed to geometry opt.               7
--
 
++    Final optimization conditions:
      ------------------------------
 
      Average CI energy                            -453.70641999
      RASSCF energy for state  7                   -453.60124574
      Super-CI energy                                -0.00000000
      RASSCF energy change                            0.00000000
      Max change in MO coefficients              -0.498E-04
      Max non-diagonal density matrix element    -0.346E-04
      Maximum BLB matrix element                 -0.143E-05
      (orbital pair  20,  74 in symmetry   1)
      Norm of electronic gradient            0.275E+00
--
 
 
      Final state energy(ies):
      ------------------------
 
::    RASSCF root number  1 Total energy:   -453.95832414
::    RASSCF root number  2 Total energy:   -453.74492531
::    RASSCF root number  3 Total energy:   -453.73689802
::    RASSCF root number  4 Total energy:   -453.64670117
::    RASSCF root number  5 Total energy:   -453.63642514
::    RASSCF root number  6 Total energy:   -453.62042038
::    RASSCF root number  7 Total energy:   -453.60124574
 
++    Molecular orbitals:
      -------------------
 
      Pseudonatural active orbitals and approximate occupation numbers
 
 
 
 
      Molecular orbitals for symmetry species 1: a  
 
 
      Orbital                 1         2         3         4         5         6         7         8         9        10
      Energy           -20.6086  -20.5179  -15.6379  -15.5809  -11.3439  -11.2880  -11.2855  -11.2604  -11.2604   -1.4284
      Occ. No.           2.0000    2.0000    2.0000    2.0000    2.0000    2.0000    2.0000    2.0000    2.0000    2.0000
 
     1 C1     1s         0.0003   -0.0000    0.0002   -0.0001    0.9999    0.0001    0.0001   -0.0001    0.0037   -0.0388
     2 C1     2s         0.0009   -0.0003    0.0009   -0.0004    0.0020   -0.0007    0.0002   -0.0004    0.0005    0.3540
     3 C1     3s        -0.0005   -0.0002    0.0003   -0.0003   -0.0003   -0.0006    0.0002   -0.0003    0.0008   -0.0037
     4 C1     4s        -0.0004   -0.0001    0.0000   -0.0001    0.0012   -0.0003    0.0001   -0.0001    0.0003    0.0039
     5 C1     2px       -0.0013   -0.0002    0.0017   -0.0005    0.0013    0.0001    0.0003   -0.0002    0.0004   -0.0435
     6 C1     3px       -0.0009   -0.0001    0.0012   -0.0006    0.0014   -0.0002    0.0006   -0.0003   -0.0001    0.0288
     7 C1     4px        0.0001    0.0000   -0.0001   -0.0001    0.0005   -0.0003    0.0001   -0.0001   -0.0002   -0.0133
     8 C1     2py        0.0031   -0.0002    0.0001   -0.0001    0.0011    0.0001    0.0004   -0.0002    0.0006    0.0960
     9 C1     3py        0.0021   -0.0003    0.0001   -0.0001    0.0010   -0.0004    0.0004   -0.0002   -0.0001   -0.0682
    10 C1     4py       -0.0004   -0.0000    0.0000   -0.0000    0.0007   -0.0004    0.0000   -0.0000   -0.0003    0.0231
    11 C1     2pz       -0.0003   -0.0002    0.0001   -0.0001   -0.0001   -0.0000   -0.0001    0.0000   -0.0000   -0.0082
    12 C1     3pz       -0.0002   -0.0004    0.0001   -0.0001   -0.0001    0.0000   -0.0001    0.0000    0.0001    0.0061
    13 C1     4pz        0.0000   -0.0001    0.0000   -0.0000   -0.0001    0.0000   -0.0000    0.0000    0.0000   -0.0028
    14 C1     3d2-       0.0001    0.0000    0.0001    0.0000   -0.0004    0.0000    0.0000   -0.0000   -0.0001   -0.0330
    15 C1     3d1-      -0.0000   -0.0000    0.0000   -0.0000   -0.0001    0.0000   -0.0000    0.0000   -0.0000   -0.0059
    16 C1     3d0       -0.0000   -0.0000    0.0001    0.0000   -0.0004   -0.0001   -0.0000    0.0000   -0.0001   -0.0275
    17 C1     3d1+      -0.0000   -0.0000   -0.0000   -0.0000    0.0001    0.0000   -0.0000   -0.0000    0.0000    0.0037
    18 C1     3d2+       0.0001   -0.0000   -0.0002    0.0000   -0.0000    0.0000   -0.0000    0.0000    0.0000   -0.0103
    19 C3     1s         0.0001    0.0002    0.0003    0.0001   -0.0001    0.9922    0.1199    0.0000   -0.0001   -0.0090
    20 C3     2s         0.0006    0.0011    0.0014    0.0009    0.0002   -0.0018    0.0006    0.0005   -0.0007    0.0166
    21 C3     3s         0.0004    0.0007    0.0007    0.0007    0.0001   -0.0029    0.0005    0.0003   -0.0004   -0.0178
    22 C3     4s         0.0001    0.0001    0.0001    0.0001   -0.0000    0.0006    0.0002    0.0000   -0.0000   -0.0020
    23 C3     2px        0.0001   -0.0004   -0.0004    0.0003    0.0008   -0.0009   -0.0001   -0.0001   -0.0002   -0.0208
    24 C3     3px        0.0003   -0.0005    0.0001    0.0003    0.0012   -0.0009    0.0004   -0.0004   -0.0003   -0.0101
    25 C3     4px        0.0002   -0.0001    0.0002   -0.0000    0.0004   -0.0005    0.0001   -0.0002   -0.0001   -0.0059
    26 C3     2py       -0.0002    0.0003   -0.0006   -0.0006    0.0003   -0.0000   -0.0003    0.0000    0.0000   -0.0180
    27 C3     3py       -0.0001    0.0004   -0.0000   -0.0004    0.0004    0.0002   -0.0001    0.0001   -0.0001   -0.0044
    28 C3     4py        0.0000    0.0000    0.0002    0.0001    0.0001   -0.0008    0.0000    0.0000   -0.0001   -0.0046
    29 C3     2pz       -0.0000   -0.0006   -0.0004    0.0004   -0.0005   -0.0001    0.0000   -0.0005    0.0001    0.0069
    30 C3     3pz        0.0000   -0.0003   -0.0006    0.0004   -0.0007   -0.0003   -0.0003   -0.0005    0.0001    0.0113
    31 C3     4pz        0.0000    0.0002   -0.0001    0.0001   -0.0001   -0.0002   -0.0001   -0.0000   -0.0000    0.0021
    32 C3     3d2-       0.0000    0.0000    0.0000   -0.0000    0.0000   -0.0001    0.0000    0.0000   -0.0000    0.0034
    33 C3     3d1-      -0.0000   -0.0001   -0.0000   -0.0000   -0.0000   -0.0000   -0.0001    0.0000    0.0000    0.0001
    34 C3     3d0       -0.0000    0.0001    0.0001   -0.0000   -0.0000    0.0000    0.0000    0.0000    0.0000   -0.0022
    35 C3     3d1+       0.0000   -0.0000   -0.0000   -0.0000    0.0000    0.0001    0.0000   -0.0001   -0.0000   -0.0006
    36 C3     3d2+      -0.0000   -0.0000    0.0001    0.0000    0.0000    0.0001   -0.0000    0.0000    0.0000   -0.0004
    37 C4     1s         0.0000    0.0004    0.0000    0.0002   -0.0002    0.1198   -0.9928    0.0003    0.0001    0.0003
    38 C4     2s         0.0001    0.0013    0.0001    0.0010   -0.0012    0.0012   -0.0026   -0.0004    0.0005    0.0278
    39 C4     3s        -0.0000   -0.0001    0.0001    0.0004   -0.0010    0.0003   -0.0002   -0.0003    0.0004    0.0092
    40 C4     4s        -0.0000   -0.0002   -0.0000    0.0001   -0.0003    0.0002   -0.0014   -0.0002    0.0001    0.0032
    41 C4     2px       -0.0001    0.0026   -0.0003   -0.0001    0.0001   -0.0008    0.0000    0.0002   -0.0002   -0.0012
    42 C4     3px       -0.0001    0.0016   -0.0003   -0.0002    0.0001   -0.0002    0.0000   -0.0003   -0.0003   -0.0016
    43 C4     4px        0.0000   -0.0004    0.0000   -0.0000    0.0000    0.0002   -0.0002   -0.0003   -0.0001   -0.0013
    44 C4     2py       -0.0000   -0.0020    0.0002    0.0006   -0.0001    0.0003   -0.0002   -0.0002    0.0001   -0.0010
    45 C4     3py       -0.0001   -0.0015    0.0001    0.0004   -0.0003    0.0004   -0.0001   -0.0003    0.0002    0.0051
    46 C4     4py       -0.0000    0.0002   -0.0000   -0.0001   -0.0001    0.0001    0.0001   -0.0001    0.0000    0.0015
    47 C4     2pz       -0.0003    0.0006    0.0002   -0.0015   -0.0001    0.0011    0.0008    0.0004    0.0001    0.0043
    48 C4     3pz       -0.0005    0.0005    0.0004   -0.0011   -0.0002    0.0009    0.0004    0.0010    0.0002    0.0039
    49 C4     4pz       -0.0001    0.0000    0.0001    0.0001   -0.0000   -0.0000    0.0003    0.0005    0.0000    0.0017
    50 C4     3d2-       0.0000    0.0001    0.0000    0.0001    0.0000    0.0000    0.0004   -0.0000   -0.0000   -0.0012
    51 C4     3d1-       0.0000   -0.0000    0.0000    0.0002    0.0000    0.0000    0.0003   -0.0001   -0.0000   -0.0010
    52 C4     3d0        0.0000    0.0001   -0.0000   -0.0001   -0.0000   -0.0000    0.0000    0.0001    0.0000   -0.0002
    53 C4     3d1+      -0.0000   -0.0001   -0.0000   -0.0001   -0.0000   -0.0000   -0.0002   -0.0000    0.0000    0.0003
    54 C4     3d2+       0.0000   -0.0000   -0.0000    0.0000   -0.0000    0.0000   -0.0001   -0.0000    0.0000    0.0007
    55 C6     1s        -0.0000    0.0001   -0.0001    0.0003   -0.0001   -0.0000    0.0004    0.9997   -0.0004    0.0012
    56 C6     2s        -0.0002    0.0007   -0.0010    0.0014   -0.0007   -0.0001    0.0002    0.0001   -0.0000    0.0116
    57 C6     3s        -0.0002    0.0005   -0.0007    0.0003   -0.0006   -0.0001    0.0003   -0.0016    0.0000    0.0092
    58 C6     4s        -0.0001    0.0001   -0.0002   -0.0001   -0.0002   -0.0001    0.0002    0.0009    0.0000    0.0030
    59 C6     2px        0.0001   -0.0001    0.0002   -0.0003    0.0002   -0.0002   -0.0001   -0.0001   -0.0001   -0.0050
    60 C6     3px        0.0000   -0.0001    0.0002    0.0001    0.0002   -0.0002   -0.0001    0.0002   -0.0001   -0.0043
    61 C6     4px       -0.0000   -0.0000   -0.0000    0.0001    0.0000    0.0000    0.0000   -0.0004    0.0000   -0.0001
    62 C6     2py        0.0001   -0.0000   -0.0003    0.0002   -0.0002   -0.0001   -0.0002    0.0001   -0.0000    0.0014
    63 C6     3py        0.0001    0.0000   -0.0002    0.0002   -0.0001   -0.0002   -0.0003   -0.0001   -0.0000    0.0009
    64 C6     4py        0.0000    0.0000    0.0000    0.0000    0.0000   -0.0000   -0.0001    0.0000   -0.0000   -0.0003
    65 C6     2pz       -0.0001    0.0004   -0.0002    0.0003   -0.0002   -0.0000    0.0004   -0.0001   -0.0000    0.0045
    66 C6     3pz       -0.0001    0.0003   -0.0002   -0.0002   -0.0003   -0.0001    0.0005   -0.0002    0.0000    0.0045
    67 C6     4pz       -0.0000   -0.0000   -0.0000   -0.0002   -0.0000   -0.0001    0.0001    0.0005    0.0000    0.0009
    68 C6     3d2-       0.0000   -0.0000   -0.0000    0.0001   -0.0000   -0.0000   -0.0000    0.0000    0.0000    0.0002
    69 C6     3d1-      -0.0000   -0.0000   -0.0000    0.0000    0.0000    0.0000    0.0001   -0.0000    0.0000    0.0001
    70 C6     3d0       -0.0000    0.0000    0.0000   -0.0000    0.0000    0.0000   -0.0001    0.0000    0.0000    0.0001
    71 C6     3d1+       0.0000   -0.0000    0.0000    0.0001    0.0000   -0.0000    0.0000    0.0001   -0.0000   -0.0004
    72 C6     3d2+      -0.0000    0.0000    0.0000   -0.0001    0.0000    0.0000    0.0000   -0.0001   -0.0000    0.0000
    73 C19    1s         0.0002   -0.0001   -0.0000    0.0000    0.0036    0.0002    0.0000   -0.0004   -1.0000   -0.0146
    74 C19    2s         0.0012   -0.0004   -0.0001   -0.0000    0.0007    0.0009    0.0000   -0.0001   -0.0020   -0.0133
    75 C19    3s         0.0007   -0.0003   -0.0000   -0.0001    0.0003    0.0005    0.0000   -0.0002    0.0005   -0.0393
    76 C19    4s         0.0001   -0.0001   -0.0000   -0.0001    0.0001    0.0000    0.0000   -0.0001   -0.0012   -0.0036
    77 C19    2px        0.0008   -0.0001   -0.0003    0.0000   -0.0002    0.0002   -0.0001   -0.0000    0.0002   -0.0103
    78 C19    3px        0.0005   -0.0001   -0.0003    0.0000   -0.0003    0.0002   -0.0001   -0.0000    0.0001   -0.0077
    79 C19    4px       -0.0002    0.0000   -0.0000    0.0000   -0.0000   -0.0000   -0.0000    0.0000   -0.0002    0.0078
    80 C19    2py       -0.0001   -0.0001    0.0003   -0.0002    0.0004    0.0003    0.0001   -0.0001    0.0003    0.0214
    81 C19    3py       -0.0003   -0.0001    0.0003   -0.0002   -0.0000    0.0001    0.0001   -0.0001    0.0000   -0.0056
    82 C19    4py       -0.0002    0.0000   -0.0001   -0.0000   -0.0001   -0.0001    0.0000   -0.0000   -0.0004    0.0056
    83 C19    2pz       -0.0001   -0.0001   -0.0000   -0.0001   -0.0000    0.0000    0.0000   -0.0001   -0.0000   -0.0018
    84 C19    3pz       -0.0000   -0.0000   -0.0000   -0.0000    0.0000    0.0000    0.0000   -0.0001   -0.0000    0.0006
    85 C19    4pz        0.0000    0.0000    0.0000    0.0000    0.0000    0.0000   -0.0000    0.0000    0.0000   -0.0004
    86 C19    3d2-       0.0001   -0.0000   -0.0000   -0.0000    0.0000    0.0001   -0.0000   -0.0000    0.0001    0.0006
    87 C19    3d1-       0.0000    0.0000   -0.0000   -0.0000    0.0000   -0.0000   -0.0000    0.0000   -0.0000   -0.0006
    88 C19    3d0       -0.0001    0.0000   -0.0001    0.0000    0.0001   -0.0000    0.0000    0.0000   -0.0001    0.0015
    89 C19    3d1+       0.0000    0.0000    0.0000    0.0000   -0.0000   -0.0000   -0.0000    0.0000   -0.0000   -0.0000
    90 C19    3d2+       0.0001    0.0000   -0.0000    0.0000   -0.0001   -0.0000   -0.0000    0.0000   -0.0001   -0.0069
    91 N2     1s         0.0001    0.0000    0.9999   -0.0000   -0.0002    0.0001   -0.0001    0.0000   -0.0001   -0.0176
    92 N2     2s         0.0005    0.0000    0.0001   -0.0003   -0.0001    0.0015   -0.0005    0.0001   -0.0007    0.1120
    93 N2     3s         0.0004    0.0000   -0.0013   -0.0002   -0.0003    0.0008   -0.0005    0.0000   -0.0005   -0.0470
    94 N2     4s         0.0001    0.0000    0.0004   -0.0000    0.0001    0.0003   -0.0001    0.0000   -0.0001   -0.0111
    95 N2     2px        0.0001   -0.0005    0.0005   -0.0005   -0.0002    0.0009   -0.0002   -0.0001    0.0004   -0.0284
    96 N2     3px        0.0001   -0.0007    0.0004   -0.0007   -0.0001    0.0008   -0.0003   -0.0003    0.0004    0.0184
    97 N2     4px        0.0000   -0.0001   -0.0002   -0.0000   -0.0002    0.0000    0.0001   -0.0001   -0.0001   -0.0054
    98 N2     2py       -0.0016   -0.0001   -0.0008   -0.0002    0.0003    0.0009   -0.0003   -0.0001    0.0003    0.0375
    99 N2     3py       -0.0019   -0.0002   -0.0001   -0.0004    0.0003    0.0010   -0.0004   -0.0001    0.0003    0.0154
   100 N2     4py       -0.0000   -0.0000    0.0004   -0.0000   -0.0000    0.0002    0.0000   -0.0000   -0.0001   -0.0059
   101 N2     2pz        0.0002    0.0003    0.0002    0.0001    0.0001   -0.0000   -0.0001    0.0001   -0.0000   -0.0035
   102 N2     3pz        0.0003    0.0004    0.0000    0.0001    0.0001   -0.0001   -0.0001    0.0001   -0.0001   -0.0050
   103 N2     4pz        0.0000    0.0001    0.0000    0.0000    0.0000   -0.0001   -0.0001    0.0000   -0.0000   -0.0003
   104 N2     3d2-       0.0001   -0.0000   -0.0002   -0.0000   -0.0001   -0.0000   -0.0000   -0.0000    0.0000   -0.0028
   105 N2     3d1-      -0.0000    0.0000   -0.0000    0.0000    0.0000   -0.0000    0.0000    0.0000    0.0000    0.0002
   106 N2     3d0       -0.0000    0.0000   -0.0000    0.0000    0.0001    0.0001    0.0000   -0.0000    0.0001   -0.0026
   107 N2     3d1+      -0.0000    0.0000    0.0000    0.0000   -0.0000   -0.0000    0.0000    0.0000   -0.0000    0.0004
   108 N2     3d2+      -0.0000   -0.0000   -0.0000   -0.0000    0.0001   -0.0000   -0.0000   -0.0000   -0.0000    0.0046
   109 N5     1s         0.0000    0.0001    0.0000    0.9999    0.0001    0.0000    0.0002    0.0001   -0.0000   -0.0016
   110 N5     2s         0.0001    0.0007    0.0000    0.0006    0.0006    0.0002    0.0002    0.0017   -0.0002   -0.0014
   111 N5     3s         0.0001    0.0005   -0.0000   -0.0010    0.0004    0.0002    0.0003    0.0010   -0.0002   -0.0056
   112 N5     4s         0.0000    0.0001   -0.0000    0.0006    0.0001    0.0000   -0.0000    0.0004   -0.0000   -0.0012
   113 N5     2px       -0.0001   -0.0014    0.0006   -0.0009    0.0004    0.0002   -0.0002    0.0006    0.0001   -0.0061
   114 N5     3px       -0.0000   -0.0017    0.0009   -0.0005    0.0007    0.0004   -0.0002    0.0007    0.0001   -0.0096
   115 N5     4px        0.0000   -0.0000    0.0001    0.0003    0.0002    0.0001    0.0001    0.0002   -0.0000   -0.0019
   116 N5     2py        0.0000    0.0006    0.0001    0.0005    0.0002   -0.0001    0.0003    0.0000   -0.0000   -0.0029
   117 N5     3py        0.0000    0.0007    0.0001    0.0002    0.0002   -0.0001    0.0001   -0.0001   -0.0001   -0.0018
   118 N5     4py       -0.0000    0.0000    0.0000   -0.0002    0.0001    0.0000    0.0001   -0.0001   -0.0000   -0.0006
   119 N5     2pz       -0.0000    0.0005   -0.0006    0.0000   -0.0004    0.0001    0.0001   -0.0008   -0.0000    0.0079
   120 N5     3pz       -0.0000    0.0007   -0.0009    0.0000   -0.0007   -0.0001    0.0001   -0.0006    0.0000    0.0120
   121 N5     4pz        0.0000    0.0000   -0.0001    0.0000   -0.0001   -0.0001   -0.0003   -0.0000    0.0000    0.0027
   122 N5     3d2-      -0.0000   -0.0000    0.0000   -0.0001   -0.0000   -0.0000   -0.0001    0.0000    0.0000    0.0000
   123 N5     3d1-      -0.0000    0.0000    0.0000    0.0000    0.0000   -0.0000   -0.0000    0.0001    0.0000   -0.0002
   124 N5     3d0       -0.0000    0.0000   -0.0000   -0.0001   -0.0000    0.0000    0.0001   -0.0000    0.0000    0.0002
   125 N5     3d1+       0.0000   -0.0001    0.0000    0.0001    0.0000    0.0000   -0.0001    0.0000   -0.0000   -0.0002
   126 N5     3d2+       0.0000    0.0000   -0.0000   -0.0000    0.0000    0.0000    0.0001   -0.0000    0.0000   -0.0000
   127 O7     1s         0.9997   -0.0000    0.0000    0.0000   -0.0003   -0.0000   -0.0000    0.0000   -0.0001   -0.0239
   128 O7     2s        -0.0016   -0.0000    0.0003    0.0000    0.0004   -0.0001   -0.0002    0.0000   -0.0004    0.6943
   129 O7     3s        -0.0014   -0.0001    0.0002    0.0000   -0.0000   -0.0000   -0.0001    0.0000   -0.0003   -0.0343
   130 O7     4s         0.0000   -0.0000    0.0000    0.0000    0.0000    0.0000   -0.0000    0.0000   -0.0001   -0.0138
   131 O7     2px        0.0001   -0.0001   -0.0003    0.0001    0.0003   -0.0001   -0.0001    0.0000   -0.0001    0.0869
   132 O7     3px       -0.0003   -0.0001   -0.0004    0.0002   -0.0001   -0.0001   -0.0001    0.0000   -0.0001   -0.0258
   133 O7     4px        0.0008   -0.0000   -0.0001    0.0000    0.0001   -0.0000   -0.0000    0.0000    0.0000   -0.0016
   134 O7     2py       -0.0001    0.0000   -0.0002    0.0000   -0.0007   -0.0000   -0.0000   -0.0000    0.0001   -0.1195
   135 O7     3py        0.0006    0.0000   -0.0002    0.0001   -0.0004   -0.0001   -0.0001   -0.0001    0.0001    0.0374
   136 O7     4py       -0.0011   -0.0000    0.0001    0.0000   -0.0003   -0.0000   -0.0000   -0.0000   -0.0000    0.0002
   137 O7     2pz        0.0000    0.0000    0.0001   -0.0000    0.0001    0.0000    0.0000   -0.0000   -0.0000    0.0132
   138 O7     3pz       -0.0001    0.0001    0.0000   -0.0000    0.0001    0.0001    0.0001   -0.0000   -0.0000   -0.0041
   139 O7     4pz        0.0001    0.0000   -0.0000    0.0000    0.0000    0.0000    0.0000   -0.0000    0.0000   -0.0000
   140 O7     3d2-       0.0001    0.0000    0.0000   -0.0000   -0.0002    0.0000    0.0000   -0.0000    0.0000   -0.0180
   141 O7     3d1-       0.0000   -0.0000   -0.0000   -0.0000   -0.0000    0.0000    0.0000   -0.0000    0.0000   -0.0026
   142 O7     3d0       -0.0000    0.0000   -0.0001   -0.0000   -0.0001    0.0000   -0.0000    0.0000    0.0000   -0.0105
   143 O7     3d1+      -0.0000   -0.0000    0.0000   -0.0000    0.0000    0.0000   -0.0000   -0.0000   -0.0000    0.0018
   144 O7     3d2+       0.0000   -0.0000   -0.0001    0.0000   -0.0001   -0.0000   -0.0000   -0.0000    0.0000   -0.0065
   145 O8     1s         0.0000    0.9997    0.0000    0.0000    0.0000    0.0000    0.0002   -0.0000   -0.0000   -0.0012
   146 O8     2s         0.0000   -0.0016    0.0000    0.0002    0.0002    0.0003   -0.0006   -0.0003   -0.0000    0.0125
   147 O8     3s         0.0000   -0.0015   -0.0001    0.0002    0.0002    0.0002   -0.0001   -0.0002   -0.0000   -0.0031
   148 O8     4s        -0.0000    0.0000   -0.0001    0.0000    0.0001    0.0001   -0.0000   -0.0000   -0.0000   -0.0009
   149 O8     2px        0.0000   -0.0001    0.0001   -0.0001   -0.0001   -0.0002    0.0007    0.0000    0.0001   -0.0030
   150 O8     3px        0.0000    0.0005    0.0002   -0.0000   -0.0001   -0.0001    0.0002   -0.0000    0.0001    0.0024
   151 O8     4px        0.0000   -0.0011    0.0000    0.0001   -0.0000    0.0000    0.0002   -0.0000    0.0000    0.0001
   152 O8     2py        0.0000    0.0001    0.0000   -0.0000    0.0001    0.0001   -0.0004   -0.0001   -0.0000   -0.0009
   153 O8     3py        0.0001   -0.0004   -0.0000   -0.0001    0.0001    0.0000   -0.0001   -0.0000    0.0000   -0.0020
   154 O8     4py        0.0000    0.0008   -0.0000   -0.0001   -0.0000   -0.0000   -0.0001    0.0000    0.0000    0.0000
   155 O8     2pz        0.0000   -0.0001   -0.0001    0.0003   -0.0000   -0.0001    0.0003    0.0001   -0.0000   -0.0007
   156 O8     3pz        0.0001    0.0001   -0.0002    0.0003   -0.0001   -0.0002   -0.0000   -0.0000   -0.0000    0.0007
   157 O8     4pz        0.0000   -0.0003   -0.0000    0.0000   -0.0000   -0.0000   -0.0000   -0.0000   -0.0000    0.0000
   158 O8     3d2-      -0.0000    0.0001   -0.0000   -0.0000   -0.0000   -0.0001    0.0002    0.0000    0.0000   -0.0002
   159 O8     3d1-      -0.0000   -0.0000    0.0000    0.0000   -0.0000   -0.0000    0.0000    0.0000    0.0000   -0.0000
   160 O8     3d0        0.0000    0.0001    0.0000   -0.0000   -0.0000   -0.0000    0.0001    0.0000    0.0000   -0.0002
   161 O8     3d1+       0.0000   -0.0001    0.0000   -0.0001   -0.0000   -0.0000   -0.0001   -0.0000    0.0000    0.0001
   162 O8     3d2+       0.0000   -0.0000   -0.0000    0.0000    0.0000    0.0000   -0.0001    0.0000   -0.0000    0.0003
   163 H9     1s         0.0002    0.0002    0.0001   -0.0000    0.0000   -0.0002    0.0001    0.0000   -0.0003    0.0146
   164 H9     2s         0.0001    0.0001    0.0000   -0.0000    0.0001   -0.0002    0.0001    0.0000    0.0003    0.0040
   165 H9     2px       -0.0000    0.0000    0.0000   -0.0000    0.0000   -0.0000    0.0000    0.0000    0.0000    0.0009
   166 H9     2py       -0.0001    0.0000   -0.0000    0.0000    0.0001   -0.0000    0.0000    0.0000   -0.0000    0.0011
   167 H9     2pz       -0.0000   -0.0000    0.0000    0.0000   -0.0000    0.0000   -0.0000    0.0000   -0.0001   -0.0007
   168 H10    1s         0.0001   -0.0002    0.0002   -0.0002    0.0001   -0.0001    0.0001   -0.0001   -0.0003    0.0147
   169 H10    2s         0.0000   -0.0001    0.0001   -0.0001    0.0001   -0.0001    0.0001   -0.0001    0.0003    0.0035
   170 H10    2px       -0.0000   -0.0000    0.0000   -0.0000    0.0000   -0.0000    0.0000   -0.0000    0.0000    0.0009
   171 H10    2py       -0.0001   -0.0000   -0.0000   -0.0000    0.0001   -0.0000    0.0000   -0.0000   -0.0000    0.0011
   172 H10    2pz        0.0000   -0.0000   -0.0000   -0.0000    0.0000   -0.0000    0.0000   -0.0000    0.0001    0.0006
   173 H11    1s        -0.0004    0.0000    0.0004   -0.0002    0.0003   -0.0001    0.0001   -0.0001   -0.0003    0.0212
   174 H11    2s        -0.0002    0.0000    0.0004   -0.0002    0.0002   -0.0000    0.0001   -0.0000    0.0002    0.0065
   175 H11    2px       -0.0000    0.0000   -0.0001    0.0000   -0.0000    0.0000   -0.0000    0.0000   -0.0001   -0.0002
   176 H11    2py       -0.0000   -0.0000    0.0000   -0.0000    0.0001    0.0000   -0.0000   -0.0000    0.0000    0.0020
   177 H11    2pz       -0.0000    0.0000    0.0000    0.0000    0.0000   -0.0000   -0.0000    0.0000    0.0000    0.0001
   178 H12    1s        -0.0011   -0.0001   -0.0010    0.0003    0.0002   -0.0002    0.0000   -0.0001    0.0004    0.0371
   179 H12    2s        -0.0006   -0.0001   -0.0007    0.0002    0.0000   -0.0000   -0.0000   -0.0001    0.0002   -0.0017
   180 H12    2px        0.0000   -0.0000    0.0002    0.0000   -0.0001    0.0000    0.0001    0.0000   -0.0000   -0.0042
   181 H12    2py       -0.0000   -0.0000   -0.0005    0.0001    0.0000    0.0000    0.0000   -0.0000    0.0000    0.0044
   182 H12    2pz        0.0000    0.0000    0.0001   -0.0000   -0.0000    0.0000   -0.0000   -0.0000   -0.0000   -0.0005
   183 H13    1s         0.0003   -0.0003   -0.0003    0.0004   -0.0002    0.0007    0.0003   -0.0001   -0.0000    0.0138
   184 H13    2s         0.0003   -0.0002   -0.0001    0.0003   -0.0000   -0.0000    0.0002   -0.0001   -0.0000   -0.0025
   185 H13    2px        0.0000    0.0000    0.0000    0.0000   -0.0000    0.0000   -0.0000    0.0000    0.0000   -0.0004
   186 H13    2py       -0.0000   -0.0000   -0.0000   -0.0000    0.0000   -0.0001    0.0000   -0.0000    0.0000   -0.0013
   187 H13    2pz        0.0000    0.0000    0.0000    0.0000   -0.0000   -0.0000    0.0000   -0.0000    0.0000    0.0003
   188 H14    1s         0.0003    0.0001   -0.0003   -0.0001   -0.0002    0.0012    0.0001    0.0001    0.0001    0.0059
   189 H14    2s         0.0002    0.0000   -0.0001   -0.0001   -0.0002    0.0003   -0.0000    0.0000    0.0001   -0.0008
   190 H14    2px       -0.0000   -0.0001    0.0000    0.0000    0.0000   -0.0000   -0.0000   -0.0000    0.0000   -0.0003
   191 H14    2py       -0.0000    0.0000    0.0000    0.0001    0.0000   -0.0001    0.0000   -0.0000   -0.0000   -0.0004
   192 H14    2pz       -0.0000    0.0000   -0.0000   -0.0000    0.0000   -0.0000    0.0001    0.0000   -0.0000   -0.0007
   193 H15    1s        -0.0002   -0.0013    0.0003   -0.0009   -0.0000    0.0001   -0.0003   -0.0002    0.0001   -0.0000
   194 H15    2s        -0.0001   -0.0007    0.0002   -0.0006   -0.0000    0.0001   -0.0001   -0.0000    0.0001   -0.0012
   195 H15    2px       -0.0000   -0.0001    0.0000   -0.0004   -0.0000    0.0000   -0.0001    0.0000    0.0000    0.0007
   196 H15    2py        0.0000    0.0000   -0.0000    0.0003    0.0000   -0.0000    0.0001    0.0000   -0.0000   -0.0003
   197 H15    2pz       -0.0000   -0.0000    0.0000   -0.0001    0.0000    0.0000   -0.0001   -0.0000   -0.0000   -0.0003
   198 H16    1s        -0.0000    0.0005   -0.0001   -0.0004   -0.0001   -0.0002    0.0003    0.0005   -0.0000    0.0022
   199 H16    2s        -0.0000    0.0003   -0.0001   -0.0002   -0.0001   -0.0001    0.0002   -0.0001   -0.0000    0.0019
   200 H16    2px       -0.0000    0.0000   -0.0000    0.0000   -0.0000   -0.0000    0.0000   -0.0000    0.0000    0.0002
   201 H16    2py       -0.0000    0.0000    0.0000   -0.0000   -0.0000    0.0000    0.0000   -0.0000   -0.0000    0.0000
   202 H16    2pz        0.0000    0.0000   -0.0000   -0.0000   -0.0000   -0.0000    0.0001    0.0000   -0.0000    0.0001
   203 H17    1s        -0.0001    0.0002    0.0002   -0.0006   -0.0000    0.0002    0.0003    0.0005    0.0001    0.0030
   204 H17    2s        -0.0000    0.0002    0.0001   -0.0003   -0.0001    0.0001    0.0003   -0.0001    0.0000    0.0022
   205 H17    2px        0.0000   -0.0000   -0.0000    0.0000    0.0000    0.0000   -0.0000   -0.0000    0.0000   -0.0001
   206 H17    2py        0.0000   -0.0000   -0.0000    0.0000   -0.0000   -0.0000   -0.0001    0.0000   -0.0000   -0.0002
   207 H17    2pz       -0.0000    0.0000   -0.0000   -0.0000   -0.0000    0.0000    0.0000    0.0000    0.0000    0.0001
   208 H18    1s        -0.0000    0.0000   -0.0001   -0.0001   -0.0002    0.0001    0.0000    0.0010    0.0001    0.0052
   209 H18    2s        -0.0000    0.0001   -0.0001   -0.0000   -0.0001    0.0001   -0.0001    0.0001    0.0001    0.0033
   210 H18    2px        0.0000   -0.0000    0.0000   -0.0000    0.0000   -0.0000   -0.0000   -0.0001   -0.0000   -0.0005
   211 H18    2py       -0.0000    0.0000    0.0000    0.0000   -0.0000    0.0000    0.0000    0.0001    0.0000    0.0003
   212 H18    2pz        0.0000   -0.0000    0.0000   -0.0000    0.0000    0.0000   -0.0000   -0.0000   -0.0000   -0.0002
 
 
      Orbital                11        12        13        14        15        16        17        18        19        20
      Energy            -1.3586   -1.2569   -1.2104   -1.0311   -0.9712   -0.9147   -0.8201   -0.7757   -0.7193   -0.6960
      Occ. No.           2.0000    2.0000    2.0000    2.0000    2.0000    2.0000    2.0000    2.0000    2.0000    2.0000
 
     1 C1     1s         0.0049   -0.0073   -0.0042   -0.0165   -0.0025    0.0077    0.0134    0.0006    0.0070    0.0028
     2 C1     2s         0.0240    0.1439   -0.0008    0.2757   -0.0352   -0.0733   -0.3871   -0.0828   -0.2518   -0.0529
     3 C1     3s         0.0244    0.0085   -0.0180   -0.0173   -0.0103    0.0180    0.0022   -0.0080    0.0089    0.0171
     4 C1     4s         0.0068    0.0028   -0.0053   -0.0046   -0.0036    0.0060    0.0024   -0.0013    0.0042    0.0027
     5 C1     2px        0.0333    0.1508   -0.0055   -0.0078    0.1086   -0.0888   -0.1287   -0.0093    0.1695    0.2558
     6 C1     3px        0.0218   -0.0394   -0.0329   -0.0378   -0.0288    0.0326    0.0310   -0.0120   -0.0743   -0.0545
     7 C1     4px        0.0075    0.0271   -0.0030   -0.0076    0.0125   -0.0067   -0.0075   -0.0021    0.0060    0.0173
     8 C1     2py        0.0108   -0.0343   -0.0271   -0.1560    0.0540    0.0044   -0.0550    0.0331    0.0524   -0.1582
     9 C1     3py        0.0261    0.0467   -0.0253    0.0197   -0.0521    0.0348    0.0117    0.0058   -0.0089    0.0654
    10 C1     4py        0.0012   -0.0063   -0.0060   -0.0238    0.0058    0.0017   -0.0063    0.0036   -0.0036   -0.0087
    11 C1     2pz        0.0037    0.0055    0.0045    0.0164   -0.0006   -0.0028    0.0017   -0.0042    0.0059    0.0117
    12 C1     3pz        0.0025   -0.0124    0.0053    0.0013    0.0039   -0.0043   -0.0053   -0.0071    0.0032   -0.0067
    13 C1     4pz        0.0002   -0.0006    0.0023    0.0030    0.0003   -0.0009   -0.0000   -0.0012    0.0022   -0.0001
    14 C1     3d2-       0.0023    0.0138    0.0011    0.0082   -0.0096    0.0064   -0.0130    0.0065    0.0178    0.0060
    15 C1     3d1-       0.0002    0.0016    0.0001   -0.0014    0.0014   -0.0004    0.0011    0.0005    0.0027    0.0021
    16 C1     3d0        0.0003   -0.0068   -0.0007   -0.0115   -0.0009    0.0045    0.0135    0.0022    0.0056    0.0020
    17 C1     3d1+       0.0001   -0.0002   -0.0002   -0.0002    0.0018   -0.0004    0.0012    0.0002   -0.0006   -0.0022
    18 C1     3d2+       0.0025    0.0275    0.0029    0.0018    0.0153   -0.0118   -0.0102   -0.0001    0.0163    0.0165
    19 C3     1s        -0.0167   -0.0282    0.0035    0.0315    0.0273   -0.0188    0.0074   -0.0049    0.0014   -0.0004
    20 C3     2s         0.0166    0.1794   -0.0010   -0.2915   -0.2693    0.3223   -0.1089    0.0599   -0.0383    0.0374
    21 C3     3s        -0.0467   -0.0459    0.0134    0.0524    0.0438   -0.0081    0.0131   -0.0082    0.0074   -0.0024
    22 C3     4s        -0.0072   -0.0104    0.0014    0.0154    0.0109   -0.0041    0.0042   -0.0031    0.0031   -0.0022
    23 C3     2px        0.0317   -0.0519   -0.0255   -0.0149   -0.0493    0.0274    0.0597   -0.1210   -0.2644    0.1221
    24 C3     3px        0.0107    0.0106   -0.0246   -0.0199    0.0247    0.0412   -0.0059    0.0221    0.0294   -0.0165
    25 C3     4px        0.0060   -0.0048   -0.0077   -0.0040    0.0012    0.0040    0.0031   -0.0078   -0.0048    0.0035
    26 C3     2py       -0.0183   -0.0877   -0.0224    0.0054   -0.0306   -0.0185   -0.1353   -0.0164   -0.0249    0.2071
    27 C3     3py        0.0046    0.0145   -0.0049   -0.0366    0.0127   -0.0075    0.0070   -0.0015    0.0098   -0.0336
    28 C3     4py        0.0032   -0.0026   -0.0023   -0.0115   -0.0072    0.0070   -0.0086    0.0056   -0.0015    0.0084
    29 C3     2pz        0.0077    0.0131    0.0206    0.0149    0.0356    0.0680    0.0047    0.0894    0.0239   -0.0794
    30 C3     3pz        0.0232    0.0293   -0.0066   -0.0153   -0.0251    0.0417   -0.0079   -0.0174   -0.0097    0.0091
    31 C3     4pz       -0.0056    0.0111   -0.0001   -0.0095   -0.0073    0.0179   -0.0021    0.0032   -0.0032   -0.0002
    32 C3     3d2-       0.0014    0.0183   -0.0015   -0.0030    0.0066   -0.0011    0.0051    0.0044    0.0144   -0.0216
    33 C3     3d1-       0.0049   -0.0008    0.0015   -0.0003   -0.0011    0.0010    0.0011   -0.0030   -0.0056    0.0009
    34 C3     3d0       -0.0033   -0.0094   -0.0051    0.0031   -0.0061   -0.0026   -0.0015   -0.0080   -0.0151    0.0115
    35 C3     3d1+      -0.0027   -0.0029    0.0024    0.0047    0.0090    0.0032   -0.0044    0.0126    0.0105   -0.0049
    36 C3     3d2+       0.0021   -0.0087    0.0007    0.0006   -0.0068   -0.0010   -0.0174   -0.0054   -0.0063    0.0189
    37 C4     1s        -0.0408    0.0044    0.0061    0.0095    0.0134    0.0081    0.0010    0.0164    0.0023   -0.0023
    38 C4     2s         0.3565    0.0181   -0.1149   -0.0857   -0.2282   -0.0708   -0.0068   -0.4070   -0.0637    0.0806
    39 C4     3s        -0.0133    0.0120   -0.0044    0.0256    0.0086    0.0149    0.0050    0.0102    0.0031   -0.0001
    40 C4     4s         0.0002    0.0033   -0.0012    0.0078    0.0034    0.0046    0.0017    0.0055    0.0026   -0.0020
    41 C4     2px        0.0920   -0.0411    0.0468    0.0551    0.1227    0.0215   -0.0015    0.0207    0.0852   -0.0713
    42 C4     3px       -0.0383    0.0261   -0.0624   -0.0459   -0.0013    0.0570   -0.0093   -0.0180   -0.0317    0.0242
    43 C4     4px        0.0254   -0.0066    0.0038    0.0035    0.0163    0.0095   -0.0012   -0.0038    0.0007    0.0005
    44 C4     2py       -0.0473    0.0038   -0.1000   -0.0114   -0.0544   -0.0445   -0.0156   -0.0584    0.0241    0.0145
    45 C4     3py        0.0488   -0.0204    0.0221    0.0147    0.0115    0.0186   -0.0109    0.0050   -0.0131    0.0029
    46 C4     4py       -0.0116   -0.0002   -0.0193   -0.0001   -0.0070   -0.0033   -0.0072   -0.0039    0.0021    0.0012
    47 C4     2pz       -0.0153   -0.0035    0.1504   -0.0290   -0.0382    0.0540    0.0013    0.0937   -0.1728    0.0955
    48 C4     3pz       -0.0284   -0.0175    0.0256    0.0226   -0.0277   -0.1270    0.0142   -0.0132    0.0679   -0.0459
    49 C4     4pz       -0.0028   -0.0014    0.0328   -0.0039   -0.0090   -0.0066    0.0025    0.0079   -0.0071    0.0016
    50 C4     3d2-      -0.0349    0.0065   -0.0101   -0.0005    0.0035    0.0044    0.0043   -0.0008    0.0031   -0.0088
    51 C4     3d1-      -0.0152   -0.0006    0.0147   -0.0003    0.0055    0.0143   -0.0032    0.0096   -0.0067    0.0067
    52 C4     3d0       -0.0122    0.0051   -0.0232   -0.0026   -0.0063   -0.0064    0.0025   -0.0163    0.0056   -0.0064
    53 C4     3d1+       0.0100   -0.0051    0.0003    0.0083    0.0063   -0.0146    0.0010    0.0114    0.0049   -0.0010
    54 C4     3d2+       0.0110    0.0009    0.0084   -0.0041   -0.0029    0.0070   -0.0026   -0.0017   -0.0029    0.0031
    55 C6     1s        -0.0089    0.0049    0.0346   -0.0154   -0.0355   -0.0431    0.0032    0.0084    0.0038   -0.0061
    56 C6     2s         0.0302    0.0359   -0.1598    0.0602    0.2343    0.3902   -0.0300   -0.1113   -0.0333    0.0384
    57 C6     3s        -0.0132    0.0268    0.0605   -0.0327   -0.0675   -0.0681    0.0081    0.0177    0.0094   -0.0181
    58 C6     4s        -0.0006    0.0073    0.0102   -0.0062   -0.0145   -0.0141    0.0024    0.0051    0.0023   -0.0046
    59 C6     2px       -0.0121   -0.0105    0.0697   -0.0151   -0.0128    0.0165   -0.0172   -0.1382    0.0191    0.0389
    60 C6     3px        0.0020   -0.0089   -0.0118    0.0030    0.0112   -0.0021    0.0000    0.0065    0.0020   -0.0081
    61 C6     4px       -0.0026   -0.0007    0.0024    0.0027    0.0077    0.0127   -0.0020   -0.0105    0.0015    0.0014
    62 C6     2py       -0.0050    0.0087   -0.0025    0.0026    0.0036    0.0114    0.0005    0.0776   -0.0583    0.0411
    63 C6     3py       -0.0030    0.0079    0.0002    0.0011    0.0034    0.0114   -0.0009    0.0001    0.0047   -0.0025
    64 C6     4py       -0.0006   -0.0000   -0.0015   -0.0005    0.0013    0.0003    0.0004    0.0049   -0.0034    0.0021
    65 C6     2pz        0.0221    0.0108   -0.0802    0.0120    0.0079   -0.0325    0.0143    0.0149    0.0957   -0.1221
    66 C6     3pz       -0.0030    0.0110    0.0177   -0.0074   -0.0205   -0.0087    0.0010   -0.0008   -0.0126    0.0161
    67 C6     4pz        0.0024    0.0013    0.0010   -0.0019   -0.0118   -0.0166    0.0018    0.0042    0.0051   -0.0056
    68 C6     3d2-      -0.0004    0.0004    0.0011   -0.0006   -0.0022   -0.0016   -0.0003   -0.0017   -0.0021    0.0028
    69 C6     3d1-      -0.0003    0.0003   -0.0020    0.0001   -0.0001   -0.0003    0.0007    0.0094   -0.0051    0.0022
    70 C6     3d0        0.0022   -0.0002   -0.0074    0.0014    0.0014   -0.0020    0.0010   -0.0046    0.0072   -0.0077
    71 C6     3d1+      -0.0044   -0.0009    0.0206   -0.0041   -0.0052    0.0023   -0.0023   -0.0133   -0.0049    0.0111
    72 C6     3d2+       0.0019    0.0000   -0.0093    0.0020    0.0033   -0.0004    0.0012    0.0081    0.0020   -0.0054
    73 C19    1s         0.0011   -0.0102   -0.0027   -0.0574    0.0424   -0.0191   -0.0131   -0.0042   -0.0092    0.0024
    74 C19    2s         0.0086    0.0007   -0.0073    0.3066   -0.2759    0.1446    0.0727    0.0443    0.0962   -0.0028
    75 C19    3s         0.0099   -0.0285   -0.0147   -0.1127    0.0785   -0.0326   -0.0351   -0.0081   -0.0171    0.0126
    76 C19    4s         0.0038   -0.0034   -0.0047   -0.0237    0.0176   -0.0074   -0.0095   -0.0026   -0.0052    0.0035
    77 C19    2px        0.0039    0.0239    0.0015    0.0549    0.0034   -0.0260   -0.0436   -0.0283   -0.0561    0.1377
    78 C19    3px        0.0010   -0.0020   -0.0008    0.0038    0.0048   -0.0020    0.0019    0.0052    0.0134   -0.0135
    79 C19    4px       -0.0011    0.0006    0.0007   -0.0083    0.0124   -0.0079   -0.0017   -0.0033   -0.0059    0.0031
    80 C19    2py        0.0069    0.0091   -0.0067    0.0481   -0.0091   -0.0146   -0.0628   -0.0463   -0.2149   -0.0451
    81 C19    3py        0.0080   -0.0022   -0.0092   -0.0293    0.0173   -0.0010    0.0123   -0.0002    0.0226    0.0112
    82 C19    4py        0.0003    0.0011   -0.0002   -0.0126    0.0143   -0.0084   -0.0126   -0.0033   -0.0086   -0.0012
    83 C19    2pz        0.0029   -0.0005   -0.0009   -0.0058    0.0026    0.0019    0.0068    0.0041    0.0195    0.0011
    84 C19    3pz        0.0024    0.0007   -0.0012   -0.0005   -0.0003    0.0006    0.0010   -0.0003   -0.0043   -0.0007
    85 C19    4pz       -0.0002    0.0004   -0.0003    0.0008   -0.0013    0.0005    0.0015    0.0009    0.0003    0.0001
    86 C19    3d2-       0.0005    0.0060    0.0007    0.0109   -0.0019   -0.0024   -0.0076   -0.0039   -0.0143    0.0003
    87 C19    3d1-      -0.0001    0.0004    0.0001   -0.0017    0.0009   -0.0001    0.0008    0.0008    0.0028   -0.0002
    88 C19    3d0       -0.0002   -0.0009   -0.0001   -0.0089    0.0034    0.0006    0.0033    0.0029    0.0081   -0.0089
    89 C19    3d1+      -0.0004   -0.0003    0.0000   -0.0010    0.0000    0.0002    0.0009    0.0004    0.0006   -0.0012
    90 C19    3d2+       0.0003    0.0022    0.0003   -0.0072    0.0047   -0.0009    0.0032    0.0027    0.0141    0.0041
    91 N2     1s        -0.0046   -0.0406   -0.0042   -0.0048   -0.0048    0.0021   -0.0046    0.0005    0.0029   -0.0014
    92 N2     2s         0.0564    0.5902    0.0562   -0.0343    0.2076   -0.0976    0.1488    0.0160    0.1227   -0.0652
    93 N2     3s        -0.0068   -0.0751   -0.0100   -0.0154    0.0001    0.0013   -0.0092    0.0004    0.0139   -0.0042
    94 N2     4s        -0.0019   -0.0243   -0.0032   -0.0020   -0.0024    0.0017   -0.0034   -0.0007    0.0008   -0.0003
    95 N2     2px        0.0261   -0.0335   -0.0189   -0.1501   -0.0592    0.1155    0.3581    0.0135   -0.1110   -0.2797
    96 N2     3px        0.0259   -0.0126   -0.0183    0.0189    0.0393   -0.0540   -0.1142   -0.0269    0.0077    0.0627
    97 N2     4px        0.0053    0.0013   -0.0024   -0.0064    0.0068   -0.0041    0.0009   -0.0029   -0.0013    0.0067
    98 N2     2py        0.0050   -0.0067   -0.0063   -0.1147   -0.0543    0.1098   -0.2227    0.1220    0.2523   -0.2134
    99 N2     3py       -0.0054   -0.0490    0.0009    0.0457    0.0592   -0.0522    0.0406   -0.0392   -0.0561    0.0271
   100 N2     4py       -0.0010   -0.0147    0.0001    0.0004    0.0053   -0.0055   -0.0093   -0.0031   -0.0008    0.0051
   101 N2     2pz       -0.0093    0.0129    0.0048    0.0086    0.0177   -0.0075    0.0432    0.0213   -0.0033   -0.0266
   102 N2     3pz       -0.0123    0.0042    0.0006   -0.0016   -0.0009   -0.0088   -0.0003    0.0078    0.0025    0.0053
   103 N2     4pz       -0.0019    0.0026   -0.0003    0.0001    0.0011   -0.0004    0.0025    0.0021   -0.0009    0.0011
   104 N2     3d2-       0.0015    0.0072    0.0001   -0.0022   -0.0088    0.0087   -0.0065    0.0038    0.0065   -0.0029
   105 N2     3d1-      -0.0009   -0.0014    0.0003    0.0001   -0.0002    0.0014   -0.0031    0.0025    0.0021   -0.0017
   106 N2     3d0       -0.0019   -0.0163   -0.0017    0.0016   -0.0038    0.0014    0.0001   -0.0004   -0.0018   -0.0005
   107 N2     3d1+      -0.0006    0.0006    0.0003   -0.0006    0.0007   -0.0001    0.0019    0.0008   -0.0007   -0.0014
   108 N2     3d2+       0.0010    0.0057    0.0003    0.0098    0.0063   -0.0099   -0.0195   -0.0053   -0.0013    0.0147
   109 N5     1s        -0.0200   -0.0030    0.0426   -0.0023    0.0018    0.0024   -0.0007   -0.0038    0.0029   -0.0026
   110 N5     2s         0.1344    0.0047   -0.5741    0.0395   -0.0088   -0.2234    0.0417    0.1711    0.0628   -0.1013
   111 N5     3s        -0.0498   -0.0068    0.0804   -0.0080    0.0000   -0.0159    0.0013   -0.0002    0.0128   -0.0135
   112 N5     4s        -0.0118   -0.0010    0.0265   -0.0034   -0.0013   -0.0018    0.0002   -0.0019    0.0015   -0.0015
   113 N5     2px        0.0268   -0.0324    0.0055    0.0438    0.0773    0.0765   -0.0031   -0.2067    0.1631   -0.1439
   114 N5     3px        0.0004   -0.0372    0.0375    0.0097   -0.0298   -0.0785    0.0060    0.0497   -0.0266    0.0302
   115 N5     4px       -0.0051   -0.0053    0.0102    0.0015    0.0006   -0.0050    0.0012   -0.0080    0.0018   -0.0004
   116 N5     2py       -0.0288    0.0003    0.0064    0.0054    0.0297    0.0221    0.0167    0.2425   -0.1345    0.0703
   117 N5     3py        0.0050   -0.0022   -0.0189   -0.0022    0.0071    0.0017    0.0029   -0.0595    0.0218   -0.0146
   118 N5     4py       -0.0006   -0.0013   -0.0065    0.0014    0.0030   -0.0010    0.0005    0.0042   -0.0012    0.0012
   119 N5     2pz        0.0129    0.0287   -0.0144   -0.0547   -0.1514   -0.1457   -0.0046   -0.2397    0.0857    0.0051
   120 N5     3pz       -0.0208    0.0431   -0.0033    0.0061    0.0300    0.0760    0.0043    0.0657   -0.0132   -0.0104
   121 N5     4pz        0.0065    0.0076    0.0019   -0.0023   -0.0055    0.0039    0.0016    0.0002   -0.0008   -0.0010
   122 N5     3d2-      -0.0022    0.0004    0.0058   -0.0015   -0.0007    0.0045   -0.0007   -0.0084    0.0011   -0.0005
   123 N5     3d1-      -0.0052   -0.0002    0.0109    0.0009    0.0050    0.0081    0.0001    0.0093   -0.0041    0.0010
   124 N5     3d0        0.0022    0.0008   -0.0118   -0.0008   -0.0029   -0.0005   -0.0010   -0.0135    0.0043   -0.0017
   125 N5     3d1+       0.0027   -0.0016    0.0079   -0.0013   -0.0058   -0.0103    0.0001   -0.0036    0.0015    0.0015
   126 N5     3d2+      -0.0011    0.0004   -0.0038    0.0015    0.0039    0.0034    0.0002    0.0088   -0.0025    0.0003
   127 O7     1s         0.0006    0.0022    0.0007   -0.0045    0.0022    0.0004    0.0137    0.0012    0.0149    0.0212
   128 O7     2s        -0.0541   -0.3024   -0.0221   -0.2078    0.0526    0.0268    0.3541    0.0189    0.2462    0.3421
   129 O7     3s        -0.0010   -0.0098    0.0019   -0.0207    0.0099    0.0007    0.0431    0.0019    0.0420    0.0601
   130 O7     4s         0.0004   -0.0002    0.0008   -0.0037    0.0024   -0.0002    0.0083   -0.0002    0.0084    0.0128
   131 O7     2px       -0.0055   -0.0012    0.0033   -0.0048    0.0282   -0.0287   -0.1774   -0.0048   -0.1027   -0.2221
   132 O7     3px       -0.0012   -0.0000    0.0030   -0.0099    0.0017    0.0033    0.0211    0.0011    0.0085    0.0199
   133 O7     4px        0.0000    0.0004    0.0004   -0.0014   -0.0007    0.0012    0.0015    0.0004    0.0003    0.0013
   134 O7     2py        0.0079    0.0406    0.0035   -0.0348    0.0235    0.0056    0.1604    0.0246    0.2847    0.4021
   135 O7     3py       -0.0032    0.0008    0.0016    0.0120    0.0000    0.0002   -0.0254   -0.0069   -0.0334   -0.0423
   136 O7     4py       -0.0008   -0.0014    0.0000   -0.0010    0.0005    0.0012   -0.0031   -0.0007   -0.0042   -0.0064
   137 O7     2pz       -0.0021   -0.0000    0.0000    0.0041    0.0019   -0.0021   -0.0164   -0.0016   -0.0260   -0.0410
   138 O7     3pz       -0.0016    0.0000   -0.0009    0.0001    0.0017   -0.0001    0.0040    0.0006    0.0021    0.0042
   139 O7     4pz       -0.0006    0.0000   -0.0003    0.0007    0.0007   -0.0000    0.0007   -0.0002    0.0002    0.0006
   140 O7     3d2-       0.0010    0.0035    0.0003    0.0009   -0.0022    0.0024    0.0121    0.0010    0.0102    0.0177
   141 O7     3d1-       0.0002    0.0009    0.0000    0.0000    0.0003   -0.0002    0.0008    0.0000    0.0021    0.0033
   142 O7     3d0        0.0006    0.0042    0.0005    0.0014    0.0002   -0.0002    0.0051    0.0002    0.0066    0.0115
   143 O7     3d1+      -0.0002   -0.0003   -0.0000   -0.0001    0.0005   -0.0003   -0.0012   -0.0001   -0.0008   -0.0019
   144 O7     3d2+       0.0006    0.0049    0.0005   -0.0026    0.0045   -0.0025   -0.0011    0.0012    0.0119    0.0117
   145 O8     1s        -0.0233    0.0024   -0.0043    0.0006    0.0025    0.0006    0.0001    0.0122    0.0021   -0.0011
   146 O8     2s         0.6687   -0.1446    0.3197    0.1019    0.1586    0.0125   -0.0142    0.3498    0.0460   -0.0104
   147 O8     3s        -0.0276   -0.0023    0.0079    0.0055    0.0126    0.0015   -0.0016    0.0448    0.0080   -0.0034
   148 O8     4s        -0.0121    0.0002   -0.0002    0.0002    0.0013   -0.0000   -0.0011    0.0092    0.0020   -0.0008
   149 O8     2px       -0.1116    0.0111   -0.0391    0.0156    0.0202   -0.0098   -0.0066    0.1352    0.0613   -0.0277
   150 O8     3px        0.0332   -0.0054    0.0046    0.0029   -0.0113   -0.0087   -0.0004   -0.0221   -0.0064    0.0024
   151 O8     4px        0.0007   -0.0007    0.0020    0.0018   -0.0001   -0.0010    0.0003   -0.0026   -0.0015    0.0006
   152 O8     2py        0.0803   -0.0202    0.0212    0.0042   -0.0065   -0.0127   -0.0004   -0.1130    0.0066   -0.0079
   153 O8     3py       -0.0267    0.0016   -0.0001    0.0033    0.0070   -0.0003   -0.0007    0.0179    0.0034   -0.0014
   154 O8     4py       -0.0008    0.0000   -0.0002    0.0006    0.0002   -0.0001   -0.0010    0.0022    0.0008    0.0001
   155 O8     2pz       -0.0359    0.0127    0.0088   -0.0172   -0.0103    0.0428    0.0018    0.0750   -0.0889    0.0515
   156 O8     3pz        0.0119    0.0064   -0.0057   -0.0043   -0.0001    0.0111   -0.0014   -0.0066    0.0065   -0.0027
   157 O8     4pz        0.0017    0.0020   -0.0020   -0.0011   -0.0004    0.0010    0.0001   -0.0003    0.0021   -0.0010
   158 O8     3d2-      -0.0161    0.0032   -0.0063   -0.0008   -0.0008   -0.0002    0.0001    0.0069    0.0015   -0.0007
[...]
AIVX     1  Mu1.0001  In1.024 Se1.046               0.16117472     -0.00025001      0.00075187     -0.00000019
AIVX     1  Mu1.0001  In1.025 Se1.046               0.26458254     -0.00077096      0.00132644     -0.00000102
AIVX     1  Mu1.0001  In1.026 Se1.046               0.24863923      0.00009918     -0.00005703     -0.00000001
AIVX     1  Mu1.0001  In1.027 Se1.046               0.14704289     -0.00020397     -0.00017143      0.00000003
AIVX     1  Mu1.0001  In1.028 Se1.046               0.11262415     -0.00060571      0.00125364     -0.00000076
AIVX     1  Mu1.0001  In1.029 Se1.046               0.08049964     -0.00033936      0.00064009     -0.00000022
AIVX     1  Mu1.0001  In1.018 Se1.047               0.29563798     -0.00047943      0.00067292     -0.00000032
AIVX     1  Mu1.0001  In1.021 Se1.047               0.22715457      0.00080813     -0.00153352     -0.00000124
AIVX     1  Mu1.0001  In1.022 Se1.047               0.20790139     -0.00235537      0.00466794     -0.00001099
AIVX     1  Mu1.0001  In1.023 Se1.047               0.28009205      0.00191978     -0.00343651     -0.00000660
AIVX     1  Mu1.0001  In1.024 Se1.047               0.14152325      0.00014078     -0.00033071     -0.00000005
AIVX     1  Mu1.0001  In1.025 Se1.047               0.24493107     -0.00025926      0.00034682     -0.00000009
AIVX     1  Mu1.0001  In1.026 Se1.047               0.22898776      0.00035339     -0.00043740     -0.00000015
AIVX     1  Mu1.0001  In1.027 Se1.047               0.12739142      0.00033120     -0.00090558     -0.00000030
AIVX     1  Mu1.0001  In1.028 Se1.047               0.09297268     -0.00066005      0.00138904     -0.00000092
AIVX     1  Mu1.0001  In1.029 Se1.047               0.06084817     -0.00058223      0.00142557     -0.00000083
AIVX     1  Mu1.0001  In1.021 Se1.048               0.26349800      0.00116998     -0.00147555     -0.00000173
AIVX     1  Mu1.0001  In1.022 Se1.048               0.24424481     -0.00071933      0.00125258     -0.00000090
AIVX     1  Mu1.0001  In1.024 Se1.048               0.17786668     -0.00021710      0.00032821     -0.00000007
AIVX     1  Mu1.0001  In1.025 Se1.048               0.28127449     -0.00104077      0.00185762     -0.00000193
AIVX     1  Mu1.0001  In1.026 Se1.048               0.26533118     -0.00083083      0.00134637     -0.00000112
AIVX     1  Mu1.0001  In1.027 Se1.048               0.16373484      0.00088412     -0.00144363     -0.00000128
AIVX     1  Mu1.0001  In1.028 Se1.048               0.12931610      0.00078677     -0.00109975     -0.00000087
AIVX     1  Mu1.0001  In1.029 Se1.048               0.09719159      0.00036099     -0.00037922     -0.00000014
AIVX     1  Mu1.0001  In1.021 Se1.049               0.27358845      0.00078345     -0.00157880     -0.00000124
AIVX     1  Mu1.0001  In1.022 Se1.049               0.25433527     -0.00025748      0.00053845     -0.00000014
AIVX     1  Mu1.0001  In1.024 Se1.049               0.18795713      0.00008336     -0.00024620     -0.00000002
AIVX     1  Mu1.0001  In1.025 Se1.049               0.29136494     -0.00108351      0.00181104     -0.00000196
AIVX     1  Mu1.0001  In1.026 Se1.049               0.27542164      0.00023519     -0.00032103     -0.00000008
AIVX     1  Mu1.0001  In1.027 Se1.049               0.17382530     -0.00012478     -0.00031265      0.00000004
AIVX     1  Mu1.0001  In1.028 Se1.049               0.13940656     -0.00004507     -0.00017478      0.00000001
AIVX     1  Mu1.0001  In1.029 Se1.049               0.10728204      0.00032799     -0.00094539     -0.00000031
AIVX     1  Mu1.0001  In1.021 Se1.050               0.28948717     -0.00133647      0.00225077     -0.00000301
AIVX     1  Mu1.0001  In1.022 Se1.050               0.27023398     -0.00063179      0.00076791     -0.00000049
AIVX     1  Mu1.0001  In1.024 Se1.050               0.20385584      0.00023057     -0.00047873     -0.00000011
AIVX     1  Mu1.0001  In1.026 Se1.050               0.29132035     -0.00317908      0.00504677     -0.00001604
AIVX     1  Mu1.0001  In1.027 Se1.050               0.18972401      0.00029256     -0.00057032     -0.00000017
AIVX     1  Mu1.0001  In1.028 Se1.050               0.15530527     -0.00023283      0.00065270     -0.00000015
AIVX     1  Mu1.0001  In1.029 Se1.050               0.12318076     -0.00011871      0.00035782     -0.00000004
AIVX     1  Mu1.0001  In1.022 Se1.051               0.29027333      0.00278225     -0.00441139     -0.00001227
AIVX     1  Mu1.0001  In1.024 Se1.051               0.22389519     -0.00001949     -0.00002687      0.00000000
AIVX     1  Mu1.0001  In1.027 Se1.051               0.20976336      0.00006278      0.00044831      0.00000003
AIVX     1  Mu1.0001  In1.028 Se1.051               0.17534462      0.00070334     -0.00045673     -0.00000032
AIVX     1  Mu1.0001  In1.029 Se1.051               0.14322011      0.00094615     -0.00183841     -0.00000174
AIVX     1  Mu1.0001  In1.024 Se1.052               0.26511779     -0.00005681     -0.00009569      0.00000001
AIVX     1  Mu1.0001  In1.027 Se1.052               0.25098596     -0.00011327     -0.00004155      0.00000000
AIVX     1  Mu1.0001  In1.028 Se1.052               0.21656722      0.00001612      0.00025375      0.00000000
AIVX     1  Mu1.0001  In1.029 Se1.052               0.18444270      0.00080109     -0.00182514     -0.00000146
AIVX     1  Mu1.0001  In1.024 Se1.053               0.23515901      0.00002691     -0.00015369     -0.00000000
AIVX     1  Mu1.0001  In1.027 Se1.053               0.22102717      0.00024264     -0.00009762     -0.00000002
AIVX     1  Mu1.0001  In1.028 Se1.053               0.18660843     -0.00082870      0.00165199     -0.00000137
AIVX     1  Mu1.0001  In1.029 Se1.053               0.15448392     -0.00125612      0.00259468     -0.00000326
AIVX     1  Mu1.0001  In1.024 Se1.054               0.28536503      0.00005509     -0.00008859     -0.00000000
AIVX     1  Mu1.0001  In1.027 Se1.054               0.27123320     -0.00019032      0.00022286     -0.00000004
AIVX     1  Mu1.0001  In1.028 Se1.054               0.23681446     -0.00036431      0.00054661     -0.00000020
AIVX     1  Mu1.0001  In1.029 Se1.054               0.20468995      0.00027301     -0.00060041     -0.00000016
AIVX     1  Mu1.0001  In1.028 Se1.055               0.26933940      0.00087636     -0.00121483     -0.00000106
AIVX     1  Mu1.0001  In1.029 Se1.055               0.23721488     -0.00019121      0.00071226     -0.00000014
AIVX     1  Mu1.0001  In1.027 Se1.056               0.29059376     -0.00045016      0.00036390     -0.00000016
AIVX     1  Mu1.0001  In1.028 Se1.056               0.25617502     -0.00009086      0.00008874     -0.00000001
AIVX     1  Mu1.0001  In1.029 Se1.056               0.22405050     -0.00058138      0.00127962     -0.00000074
AIVX     1  Mu1.0001  In1.028 Se1.057               0.28051786      0.00096928     -0.00170320     -0.00000165
AIVX     1  Mu1.0001  In1.029 Se1.057               0.24839334      0.00012669      0.00007222      0.00000001
AIVX     1  Mu1.0001  In1.024 Se1.058               0.28965138     -0.00001359     -0.00006640      0.00000000
AIVX     1  Mu1.0001  In1.027 Se1.058               0.27551955      0.00008922     -0.00008428     -0.00000001
AIVX     1  Mu1.0001  In1.028 Se1.058               0.24110081      0.00036912     -0.00034655     -0.00000013
AIVX     1  Mu1.0001  In1.029 Se1.058               0.20897629      0.00001446      0.00033659      0.00000000
AIVX     1  Mu1.0001  In1.028 Se1.059               0.29895812      0.00050454     -0.00063804     -0.00000032
AIVX     1  Mu1.0001  In1.029 Se1.059               0.26683361     -0.00009191      0.00022004     -0.00000002
AIVX     1  Mu1.0001  In1.029 Se1.060               0.28583222      0.00118474     -0.00186189     -0.00000221
AIVX     1  Mu1.0001  In1.029 Se1.062               0.29384987     -0.00042305      0.00080184     -0.00000034
--
 
   (Skipping property calculation,
    use PROP keyword to activate)
--
 
  Total CASPT2 energies:
::    CASPT2 Root  1     Total energy:   -455.21153378
::    CASPT2 Root  2     Total energy:   -455.01551548
::    CASPT2 Root  3     Total energy:   -455.00873100
::    CASPT2 Root  4     Total energy:   -454.95153116
::    CASPT2 Root  5     Total energy:   -454.93678637
::    CASPT2 Root  6     Total energy:   -454.93231839
::    CASPT2 Root  7     Total energy:   -454.90828726
 
++ Multi-State CASPT2 section:
********************************************************************************
  MULTI-STATE CASPT2 SECTION
--------------------------------------------------------------------------------
 
  Output diagonal energies have been shifted. Add   -455.000000000000     
 
  Effective Hamiltonian matrix (Symmetric):
 
                1               2               3               4               5
   1        -0.21153378
   2         0.00103427     -0.01551548
   3         0.00064732      0.00014194     -0.00873100
   4        -0.00922216     -0.00025042      0.00020117      0.04846884
   5         0.00728507      0.00007764     -0.00081192     -0.00295996      0.06321363
   6         0.01257914     -0.00267788      0.00158194      0.00550322     -0.01067228
   7         0.01109490      0.00038287      0.00112870      0.00527322     -0.00667097
 
                6               7
   6         0.06768161
   7        -0.00837064      0.09171274
 
       Total MS-CASPT2 energies:
::    MS-CASPT2 Root  1     Total energy:   -455.21312326
::    MS-CASPT2 Root  2     Total energy:   -455.01559779
::    MS-CASPT2 Root  3     Total energy:   -455.00877811
::    MS-CASPT2 Root  4     Total energy:   -454.95347085
::    MS-CASPT2 Root  5     Total energy:   -454.94665245
::    MS-CASPT2 Root  6     Total energy:   -454.92230749
::    MS-CASPT2 Root  7     Total energy:   -454.90477350
 
       Eigenvectors:
            0.99700388      0.00708787      0.00160347     -0.05729681      0.04556476
           -0.00572937      0.99907320      0.02874553      0.00743054     -0.01929720
           -0.00272011     -0.02814321      0.99927199     -0.00831545      0.00866094
            0.03660619      0.00253427      0.00036553      0.93318631      0.27418519
           -0.02867682      0.00231170      0.00688469     -0.07121961      0.76872517
           -0.04766693      0.03156562     -0.02039527     -0.30724252      0.53960259
           -0.03883967     -0.00151994     -0.01277127     -0.16212906      0.20047343
 
            0.01264297      0.02028618
           -0.02224611      0.00843373
            0.02095320      0.00853507
            0.21198652      0.08775504
           -0.62086522     -0.13281811
            0.75140019     -0.21481233
            0.06238650      0.96330606
 
--
 
  THE ORIGINAL CI ARRAYS ARE NOW MIXED AS LINEAR
  COMBINATIONS, GIVEN BY THE EIGENVECTORS.
  A NEW JOBIPH FILE NAMED 'JOBMIX' IS PREPARED.
********************************************************************************
 
++ Mixed CI coefficients:
  The CI coefficients for the MIXED state nr.   1
--------------------------------------------------------------------------------
 CI COEFFICIENTS LARGER THAN  0.50D-01
  Occupation of active orbitals, and spin coupling
  of open shells. (u,d: Spin up or down).
  SGUGA info is (Midvert:IsyUp:UpperWalk/LowerWalk)
        Conf  SGUGA info        Occupation    Coefficient         Weight
           1  ( 1:1:   1/   1)   22222200       -0.970003       0.940906
           6  ( 1:1:   6/   1)   22220220        0.090049       0.008109
           7  ( 1:1:   7/   1)   22222u0d       -0.070853       0.005020
          15  ( 1:1:  15/   1)   22222002        0.089619       0.008032
          64  ( 2:1:   4/   3)   2u22220d        0.076522       0.005856
          81  ( 2:1:   1/   4)   u22222d0        0.100763       0.010153
         175  ( 3:1:   5/   8)   20222202        0.089556       0.008020
         191  ( 3:1:   1/  10)   02222220        0.076524       0.005856
 
  The CI coefficients for the MIXED state nr.   2
--------------------------------------------------------------------------------
 CI COEFFICIENTS LARGER THAN  0.50D-01
  Occupation of active orbitals, and spin coupling
  of open shells. (u,d: Spin up or down).
  SGUGA info is (Midvert:IsyUp:UpperWalk/LowerWalk)
        Conf  SGUGA info        Occupation    Coefficient         Weight
          21  ( 2:1:   1/   1)   222u22d0        0.126204       0.015928
          24  ( 2:1:   4/   1)   222u220d        0.952484       0.907226
          32  ( 2:1:  12/   1)   222u022d       -0.083528       0.006977
          33  ( 2:1:  13/   1)   222u2d02       -0.085331       0.007281
          41  ( 2:1:   1/   2)   22u222d0        0.057475       0.003303
         115  ( 3:1:   5/   2)   22ud2202        0.059475       0.003537
         125  ( 3:1:   5/   3)   2u2d2202        0.181399       0.032906
         213  ( 4:1:   1/   3)   u22u22dd        0.076777       0.005895
         269  ( 5:1:   1/   9)   022u222d        0.076892       0.005912
 
  The CI coefficients for the MIXED state nr.   3
--------------------------------------------------------------------------------
 CI COEFFICIENTS LARGER THAN  0.50D-01
  Occupation of active orbitals, and spin coupling
  of open shells. (u,d: Spin up or down).
  SGUGA info is (Midvert:IsyUp:UpperWalk/LowerWalk)
        Conf  SGUGA info        Occupation    Coefficient         Weight
           2  ( 1:1:   2/   1)   22222ud0       -0.281477       0.079229
          24  ( 2:1:   4/   1)   222u220d        0.069644       0.004850
          41  ( 2:1:   1/   2)   22u222d0       -0.905425       0.819794
          43  ( 2:1:   3/   2)   22u2d220        0.170083       0.028928
          45  ( 2:1:   5/   2)   22u22dud       -0.062482       0.003904
          47  ( 2:1:   7/   2)   22u22udd        0.107294       0.011512
          55  ( 2:1:  15/   2)   22u220d2       -0.078017       0.006087
         161  ( 3:1:   1/   7)   u2d22220       -0.121979       0.014879
         219  ( 4:1:   1/   4)   2uu222dd        0.062942       0.003962
         294  ( 5:1:   2/  15)   20u222d2        0.090658       0.008219
 
  The CI coefficients for the MIXED state nr.   4
--------------------------------------------------------------------------------
 CI COEFFICIENTS LARGER THAN  0.50D-01
  Occupation of active orbitals, and spin coupling
  of open shells. (u,d: Spin up or down).
  SGUGA info is (Midvert:IsyUp:UpperWalk/LowerWalk)
        Conf  SGUGA info        Occupation    Coefficient         Weight
           2  ( 1:1:   2/   1)   22222ud0        0.222741       0.049613
           3  ( 1:1:   3/   1)   2222u2d0        0.658662       0.433835
           6  ( 1:1:   6/   1)   22220220        0.058313       0.003400
           7  ( 1:1:   7/   1)   22222u0d        0.612602       0.375281
          12  ( 1:1:  12/   1)   2222uudd       -0.067648       0.004576
          14  ( 1:1:  14/   1)   22220u2d        0.054542       0.002975
          15  ( 1:1:  15/   1)   22222002        0.122411       0.014985
          18  ( 1:1:  18/   1)   2222u0d2        0.053904       0.002906
          21  ( 2:1:   1/   1)   222u22d0        0.050252       0.002525
          41  ( 2:1:   1/   2)   22u222d0       -0.062456       0.003901
          73  ( 2:1:  13/   3)   2u222d02        0.159905       0.025570
          81  ( 2:1:   1/   4)   u22222d0        0.102755       0.010559
          83  ( 2:1:   3/   4)   u222d220        0.156915       0.024622
          87  ( 2:1:   7/   4)   u2222udd        0.061333       0.003762
         175  ( 3:1:   5/   8)   20222202       -0.070290       0.004941
         177  ( 3:1:   7/   8)   2022u2d2       -0.065873       0.004339
         193  ( 3:1:   3/  10)   02222u2d        0.053313       0.002842
 
  The CI coefficients for the MIXED state nr.   5
--------------------------------------------------------------------------------
 CI COEFFICIENTS LARGER THAN  0.50D-01
  Occupation of active orbitals, and spin coupling
  of open shells. (u,d: Spin up or down).
  SGUGA info is (Midvert:IsyUp:UpperWalk/LowerWalk)
        Conf  SGUGA info        Occupation    Coefficient         Weight
           2  ( 1:1:   2/   1)   22222ud0       -0.083236       0.006928
           3  ( 1:1:   3/   1)   2222u2d0        0.667472       0.445519
           7  ( 1:1:   7/   1)   22222u0d       -0.643761       0.414428
          12  ( 1:1:  12/   1)   2222uudd       -0.065694       0.004316
          14  ( 1:1:  14/   1)   22220u2d       -0.062126       0.003860
          15  ( 1:1:  15/   1)   22222002       -0.124597       0.015524
          18  ( 1:1:  18/   1)   2222u0d2        0.059395       0.003528
          21  ( 2:1:   1/   1)   222u22d0       -0.069434       0.004821
          73  ( 2:1:  13/   3)   2u222d02       -0.169433       0.028708
          83  ( 2:1:   3/   4)   u222d220        0.176713       0.031227
          87  ( 2:1:   7/   4)   u2222udd       -0.060191       0.003623
         175  ( 3:1:   5/   8)   20222202        0.074118       0.005494
         177  ( 3:1:   7/   8)   2022u2d2       -0.063696       0.004057
 
  The CI coefficients for the MIXED state nr.   6
--------------------------------------------------------------------------------
 CI COEFFICIENTS LARGER THAN  0.50D-01
  Occupation of active orbitals, and spin coupling
  of open shells. (u,d: Spin up or down).
  SGUGA info is (Midvert:IsyUp:UpperWalk/LowerWalk)
        Conf  SGUGA info        Occupation    Coefficient         Weight
           2  ( 1:1:   2/   1)   22222ud0        0.856654       0.733855
           3  ( 1:1:   3/   1)   2222u2d0       -0.100259       0.010052
           5  ( 1:1:   5/   1)   2222ud20        0.052711       0.002778
           7  ( 1:1:   7/   1)   22222u0d       -0.197368       0.038954
          21  ( 2:1:   1/   1)   222u22d0       -0.227435       0.051727
          27  ( 2:1:   7/   1)   222u2udd       -0.070921       0.005030
          41  ( 2:1:   1/   2)   22u222d0       -0.247764       0.061387
          65  ( 2:1:   5/   3)   2u222dud        0.139589       0.019485
          67  ( 2:1:   7/   3)   2u222udd       -0.197835       0.039139
          73  ( 2:1:  13/   3)   2u222d02       -0.050854       0.002586
         176  ( 3:1:   6/   8)   20222ud2       -0.123553       0.015265
 
  The CI coefficients for the MIXED state nr.   7
--------------------------------------------------------------------------------
 CI COEFFICIENTS LARGER THAN  0.50D-01
  Occupation of active orbitals, and spin coupling
  of open shells. (u,d: Spin up or down).
  SGUGA info is (Midvert:IsyUp:UpperWalk/LowerWalk)
        Conf  SGUGA info        Occupation    Coefficient         Weight
           2  ( 1:1:   2/   1)   22222ud0        0.189166       0.035784
           7  ( 1:1:   7/   1)   22222u0d       -0.133162       0.017732
          21  ( 2:1:   1/   1)   222u22d0        0.852881       0.727406
          24  ( 2:1:   4/   1)   222u220d       -0.117570       0.013823
          25  ( 2:1:   5/   1)   222u2dud       -0.220920       0.048806
          27  ( 2:1:   7/   1)   222u2udd        0.308211       0.094994
          41  ( 2:1:   1/   2)   22u222d0       -0.104825       0.010988
         112  ( 3:1:   2/   2)   22ud22ud       -0.078730       0.006198
         201  ( 4:1:   1/   1)   22uu22dd       -0.079596       0.006335
         210  ( 4:1:   4/   2)   2u2u2dd2       -0.077461       0.006000
         262  ( 5:1:   2/   7)   202u22d2       -0.077716       0.006040
 
--
 
--- Stop Module: caspt2 at Wed Nov 13 20:41:33 2024 /rc=_RC_ALL_IS_WELL_ ---
*** files: xmldump
    saved to directory /home/pcaah4
--- Module caspt2 spent 6 minutes 52 seconds ---

.##################.
.# Happy landing! #.
.##################.

    Timing: Wall=656.16 User=570.84 System=75.72
******************************************************
*** WorkDir at /srv/COMMUNAL_SCRATCH/10394 cleaned ***
******************************************************
