   This run of MOLCAS is using the pymolcas driver

                             OPE
                             OPE          NMOL  CASOP  ENMOLC A   SO
                 OPE        NMOLC        AS  OP EN  MO LC     AS  OP
                OPENM       OL CA        SO  PE NM  OL CA     SOP EN
                OP EN      MO   LC       AS  OP ENMOL  CASO   PENMOL
                OP  EN     MO   LC       AS  OP EN     MO     LC ASO
               OP   E  NMOL  C  AS       OP  EN MO     LC     AS  OP
               OP  E   NMO   LC AS        OPEN  MO     LCASOP EN   M
               O  PEN   MO  LCA  SO
            OPE   NMO   L   CAS    OP
        OPENMOL  CASOP     ENMOL   CASOPE
     OPENMOLCA   SOPENMOLCASOPEN   MOLCASOPE
    OPENMOLCAS   OP           EN   MOL    CAS
    OPENMOLCAS       OP  ENM        O     LCA
    OPENMOLCAS    OPEN  MOLCASO     P  E  NMO
    OPENMOLCAS     OP               E  N  MOL
    OPENMOLCA   SO           PENM   O  L  CAS    OPEN    MO    LCAS
    OPENMOLCA   SOP           ENM   O  L  CAS   OP  EN  MOLC  AS   O
    OPENMOLCA   SOPE           NM      O  LCA   S      OP  EN MO
    OPENMOLC                AS         O  PEN   M      OL  CA  SOPE
    OPENMO        LCASOPE  NMOL        C  ASO   P      ENMOLC     AS
    OPE     NMO      LCA  SO     P     E   NM   OL  CA SO  PE N   MO
          OPENMOLCA            SOPE   NMO        LCAS  O    P  ENMO
     OPENMOLCASOPENMOLCASOPENMOLCASOPENMOLCA
        OPENMOLCASOPENMOLCASOPENMOLCASOPE
            OPENMOLCASOPENMOLCASOPENM
               OPENMOLCASOPENMOLCA        version: v23.06
                   OPENMOLCASO
                       OPE                tag:

 OpenMolcas is free software; you can redistribute it and/or modify it
 under the terms of the GNU Lesser General Public License version 2.1.
 OpenMolcas is distributed in the hope that it will be useful, but it
 is provided "as is" and without any express or implied warranties.
 For more details see the full text of the license in the file
 LICENSE or in <http://www.gnu.org/licenses/>.

                 Copyright (C) The OpenMolcas Authors
           For the author list and the recommended citation,
                   consult the file CONTRIBUTORS.md

           *************************************************
           * pymolcas version py2.24                       *
           *   build 4567b286dd94b1984b333a4ddf893180      *
           *   (after the EMIL interpreter by V. Veryazov) *
           *************************************************

configuration info
------------------
Host name: loginchem01.nottingham.ac.uk (Linux)
C Compiler ID: Intel
C flags: -std=gnu99 -gcc-sys -qopenmp
Fortran Compiler ID: Intel
Fortran flags: -fpp -i8 -heap-arrays -qopenmp
Definitions: _MOLCAS_;_I8_;_LINUX_
Parallel: OFF (GA=OFF)


   ------------------------------------------------------------------------------------------------------------
  |
  |              Project: orca_geometry_optimisation_225_180_BP86_def2-SVP_def2J_scf_cas1_ras12i11_cas2_ras12i8
  |       Submitted from: /home/pcaah4
  |         Scratch area: /srv/COMMUNAL_SCRATCH/10396
  |      Save outputs to: /home/pcaah4
  |               Molcas: /software/chemistry/openmolcas/openmolcas-23.06-openmp
  |
  | Scratch area is empty
  |
  |       MOLCAS_DRIVER = /software/chemistry/openmolcas/openmolcas-23.06-openmp/sbin/pymolcas
  | MOLCAS_KEEP_WORKDIR = NO
  |       MOLCAS_NPROCS = 1
  |       MOLCAS_SOURCE = /software/chemistry/openmolcas/openmolcas-23.06-openmp
  |    MOLCAS_STRUCTURE = 0
  |
   ------------------------------------------------------------------------------------------------------------

++ ---------   Input file   ---------

&SEWARD
TITLE
orca_geometry_optimisation_225_180_BP86_def2-SVP_def2J_scf_cas1_ras12i11
MULTIPOLES
2
SDIPOLE
ANGMOM
0 0 0
BASIS SET
C.ANO-S...4S3P1D.
C1            0.037142   -0.019666    0.111653 /Angstrom
C3            2.115722    1.274594   -0.014049 /Angstrom
C4            3.305036    1.066210   -0.967099 /Angstrom
C6            5.219443    2.187184   -2.067925 /Angstrom
C19          -0.563521   -1.420500    0.088158 /Angstrom
END OF BASIS
BASIS SET
N.ANO-S...4S3P1D.
N2            1.414079    0.026518    0.164151 /Angstrom
N5            4.047480    2.189043   -1.211077 /Angstrom
END OF BASIS
BASIS SET
O.ANO-S...4S3P1D.
O7           -0.657878    0.996368    0.118320 /Angstrom
O8            3.577294   -0.046404   -1.423703 /Angstrom
END OF BASIS
BASIS SET
H.ANO-S...2S1P.
H9           -1.178348   -1.560086    0.999947 /Angstrom
H10          -1.249958   -1.497765   -0.778013 /Angstrom
H11           0.188164   -2.232046    0.034851 /Angstrom
H12           1.960493   -0.796955   -0.115178 /Angstrom
H13           1.393977    2.027000   -0.404250 /Angstrom
H14           2.500191    1.680723    0.952146 /Angstrom
H15           3.730600    3.074343   -0.811966 /Angstrom
H16           5.072265    2.818718   -2.970150 /Angstrom
H17           6.120154    2.548244   -1.527598 /Angstrom
H18           5.389235    1.142627   -2.389885 /Angstrom
END OF BASIS
END OF INPUT

&RASSCF
TITLE
orca_geometry_optimisation_225_180_BP86_def2-SVP_def2J_scf_cas1_ras12i11
LUMORB
SPIN
1
SYMMETRY
1
NACTEL
12  0  0
INACTIVE
29
DELETED  ! delete Rydberg orbitals from an initial CAS(12,11) if done
3
FROZEN
0
RAS2
8
ITERATIONS
64 25
CIROOT
7 7
1 2 3 4 5 6 7
1 1 1 1 1 1 1
LEVSHFT
0.3
CIMX
20
FILEorb = /home/pcaah4/outputs/cas1_ras12i11_rasorb_files/orca_geometry_optimisation_225_180_BP86_def2-SVP_def2J_scf_cas1_ras12i11.RasOrb
ALTEr
3
 1 38 210
 1 39 211
 1 40 212
END OF INPUT

&RASSI
NROF JOBIPH
    1 7
    1 2 3 5 4 6 7
TOFILE
TRDI
TDMN
1.0D-6
END OF INPUT

&CASPT2
TITLE
orca_geometry_optimisation_225_180_BP86_def2-SVP_def2J_scf_cas1_ras12i11
MULTISTATE
7 1 2 3 4 5 6 7
SHIFT
0.35
MAXITER
50
END OF INPUT

-- ----------------------------------

--- Start Module: seward at Wed Nov 13 20:30:33 2024 ---
 
()()()()()()()()()()()()()()()()()()()()()()()()()()()()()()()()()()()()()()()()()()()()()()()()()()

                                              &SEWARD

                                   only a single process is used
                       available to each process: 2.0 GB of memory, 1 thread
                                            pid: 1795610
()()()()()()()()()()()()()()()()()()()()()()()()()()()()()()()()()()()()()()()()()()()()()()()()()()
 
               SEWARD will generate:
                  Multipole Moment integrals up to order  2
                  Kinetic Energy integrals
                  Nuclear Attraction integrals (point charge)
                  One-Electron Hamiltonian integrals
                  Velocity integrals
                  Orbital angular momentum around ( 0.0000  0.0000  0.0000 )
                  Velocity quadrupole around ( 3.9030  1.3153 -1.1157 )
                  Two-Electron Repulsion integrals
 
 Title:
            orca_geometry_optimisation_225_180_BP86_def2-SVP_def2J_scf_cas1_ras12i11    
 
 
                   Integrals are discarded if absolute value <: 0.10E-13
                   Integral cutoff threshold is set to       <: 0.10E-15
 
++    Symmetry information:
      ---------------------
 
                    Character Table for C1 
 
                             E  
                    a        1  x, y, xy, Rz, z, xz, Ry, yz, Rx, I
--
 
 
++    Basis set information:
      ----------------------
 
 
      Basis set label: C.ANO-S...4S3P1D......
 
      Electronic valence basis set:
      ------------------
      Associated Effective Charge   6.000000 au
      Associated Actual Charge      6.000000 au
      Nuclear Model: Point charge
 
      Shell  nPrim  nBasis  Cartesian Spherical Contaminant
         s      10       4        X                  
         p       6       3        X                  
         d       3       1                 X         
 
 
      Basis set label: N.ANO-S...4S3P1D......
 
      Electronic valence basis set:
      ------------------
      Associated Effective Charge   7.000000 au
      Associated Actual Charge      7.000000 au
      Nuclear Model: Point charge
 
      Shell  nPrim  nBasis  Cartesian Spherical Contaminant
         s      10       4        X                  
         p       6       3        X                  
         d       3       1                 X         
 
 
      Basis set label: O.ANO-S...4S3P1D......
 
      Electronic valence basis set:
      ------------------
      Associated Effective Charge   8.000000 au
      Associated Actual Charge      8.000000 au
      Nuclear Model: Point charge
 
      Shell  nPrim  nBasis  Cartesian Spherical Contaminant
         s      10       4        X                  
         p       6       3        X                  
         d       3       1                 X         
 
 
      Basis set label: H.ANO-S...2S1P......
 
      Electronic valence basis set:
      ------------------
      Associated Effective Charge   1.000000 au
      Associated Actual Charge      1.000000 au
      Nuclear Model: Point charge
 
      Shell  nPrim  nBasis  Cartesian Spherical Contaminant
         s       7       2        X                  
         p       3       1        X                  
--
 
 
++    Molecular structure info:
      -------------------------
 
                    ************************************************ 
                    **** Cartesian Coordinates / Bohr, Angstrom **** 
                    ************************************************ 
 
     Center  Label                x              y              z                     x              y              z
        1      C1               0.070188      -0.037163       0.210994              0.037142      -0.019666       0.111653
        2      C3               3.998135       2.408634      -0.026549              2.115722       1.274594      -0.014049
        3      C4               6.245613       2.014845      -1.827552              3.305036       1.066210      -0.967099
        4      C6               9.863318       4.133179      -3.907812              5.219443       2.187184      -2.067925
        5      C19             -1.064900      -2.684356       0.166594             -0.563521      -1.420500       0.088158
        6      N2               2.672222       0.050112       0.310200              1.414079       0.026518       0.164151
        7      N5               7.648629       4.136692      -2.288604              4.047480       2.189043      -1.211077
        8      O7              -1.243209       1.882863       0.223592             -0.657878       0.996368       0.118320
        9      O8               6.760106      -0.087691      -2.690409              3.577294      -0.046404      -1.423703
       10      H9              -2.226755      -2.948135       1.889626             -1.178348      -1.560086       0.999947
       11      H10             -2.362078      -2.830366      -1.470231             -1.249958      -1.497765      -0.778013
       12      H11              0.355578      -4.217956       0.065859              0.188164      -2.232046       0.034851
       13      H12              3.704795      -1.506027      -0.217655              1.960493      -0.796955      -0.115178
       14      H13              2.634235       3.830475      -0.763922              1.393977       2.027000      -0.404250
       15      H14              4.724676       3.176106       1.799295              2.500191       1.680723       0.952146
       16      H15              7.049812       5.809666      -1.534393              3.730600       3.074343      -0.811966
       17      H16              9.585192       5.326605      -5.612770              5.072265       2.818718      -2.970150
       18      H17             11.565415       4.815483      -2.886742              6.120154       2.548244      -1.527598
       19      H18             10.184178       2.159252      -4.516228              5.389235       1.142627      -2.389885
 
                    ************************************************* 
                    **** InterNuclear Distances / Bohr, Angstrom **** 
                    ************************************************* 
 
     Atom centers         Bohr        Angstrom
   16 H15       7 N5      1.930352        1.021498
   13 H12       6 N2      1.940723        1.026986
   19 H18       4 C6      2.090337        1.106159
   12 H11       5 C19     2.092806        1.107465
   11 H10       5 C19     2.093607        1.107889
   10 H9        5 C19     2.094833        1.108538
   18 H17       4 C6      2.098871        1.110675
   17 H16       4 C6      2.099643        1.111083
   14 H13       2 C3      2.103705        1.113233
   15 H14       2 C3      2.109640        1.116374
    8 O7        1 C1      2.326300        1.231025
    9 O8        3 C4      2.330211        1.233094
    7 N5        3 C4      2.585199        1.368029
    6 N2        1 C1      2.605387        1.378711
    6 N2        2 C3      2.726549        1.442828
    7 N5        4 C6      2.743482        1.451788
    5 C19       1 C1      2.880629        1.524363
    3 C4        2 C3      2.906861        1.538244
   11 H10      10 H9      3.364643        1.780493
   15 H14      14 H13     3.371680        1.784216
   19 H18      17 H16     3.404896        1.801793
   12 H11      10 H9      3.406907        1.802858
   18 H17      17 H16     3.407897        1.803381
   19 H18      18 H17     3.408607        1.803757
   12 H11      11 H10     3.416231        1.807792
   16 H15       3 C4      3.890160        2.058584
   19 H18       7 N5      3.911725        2.069995
   14 H13       6 N2      3.930182        2.079762
   13 H12       2 C3      3.930284        2.079817
   13 H12       1 C1      3.943560        2.086842
   18 H17       7 N5      4.019918        2.127249
   15 H14       6 N2      4.025148        2.130016
   17 H16       7 N5      4.026941        2.130965
   16 H15       4 C6      4.044693        2.140359
   11 H10       1 C1      4.067483        2.152419
   10 H9        1 C1      4.070321        2.153921
   15 H14       3 C4      4.100707        2.170001
   13 H12       9 O8      4.178650        2.211246
   14 H13       3 C4      4.179698        2.211801
   12 H11       1 C1      4.193034        2.218858
   13 H12      12 H11     4.318818        2.285420
    8 O7        6 N2      4.324012        2.288169
    9 O8        7 N5      4.335473        2.294234
   14 H13       8 O7      4.450051        2.354865
   19 H18       9 O8      4.484043        2.372853
    8 O7        5 C19     4.571053        2.418897
    9 O8        2 C3      4.577802        2.422468
    6 N2        3 C4      4.604268        2.436474
    7 N5        2 C3      4.629166        2.449649
   13 H12       3 C4      4.630773        2.450500
    6 N2        5 C19     4.632928        2.451640
    2 C3        1 C1      4.633262        2.451817
    4 C6        3 C4      4.680022        2.476561
   14 H13       1 C1      4.741668        2.509183
   19 H18       3 C4      4.770967        2.524687
   16 H15       2 C3      4.811793        2.546291
   18 H17      16 H15     4.817459        2.549290
   17 H16      16 H15     4.826453        2.554049
   16 H15      15 H14     4.843075        2.562845
   12 H11       6 N2      4.862401        2.573072
   16 H15      14 H13     4.899811        2.592868
   13 H12       5 C19     4.928093        2.607834
    9 O8        6 N2      5.072814        2.684417
   15 H14       7 N5      5.116946        2.707771
   11 H10       8 O7      5.131806        2.715635
   15 H14      13 H12     5.199097        2.751244
   10 H9        8 O7      5.203996        2.753836
   14 H13       7 N5      5.250007        2.778184
    8 O7        2 C3      5.273585        2.790661
    9 O8        4 C6      5.378451        2.846154
   14 H13      13 H12     5.470170        2.894689
   19 H18      16 H15     5.660487        2.995401
--
 
 
            Nuclear Potential Energy            448.00819540 au
 
 
      Basis set specifications :
      Symmetry species         a  
      Basis functions          212
 
 
      Input file to MOLDEN was generated!
 
--- Stop Module: seward at Wed Nov 13 20:32:21 2024 /rc=_RC_ALL_IS_WELL_ ---
*** files: orca_geometry_optimisation_225_180_BP86_def2-SVP_def2J_scf_cas1_ras12i11_cas2_ras12i8.GssOrb
           orca_geometry_optimisation_225_180_BP86_def2-SVP_def2J_scf_cas1_ras12i11_cas2_ras12i8.guessorb.molden xmldump
    saved to directory /home/pcaah4
--- Module seward spent 1 minute 47 seconds ---

*** symbolic link created: INPORB -> orca_geometry_optimisation_225_180_BP86_def2-SVP_def2J_scf_cas1_ras12i11_cas2_ras12i8.GssOrb
--- Start Module: rasscf at Wed Nov 13 20:32:22 2024 ---
 
()()()()()()()()()()()()()()()()()()()()()()()()()()()()()()()()()()()()()()()()()()()()()()()()()()

                                              &RASSCF

                                   only a single process is used
                       available to each process: 2.0 GB of memory, 1 thread
                                            pid: 1795943
()()()()()()()()()()()()()()()()()()()()()()()()()()()()()()()()()()()()()()()()()()()()()()()()()()
 
 
      Header of the ONEINT file:
      --------------------------
      orca_geometry_optimisation_225_180_BP86_def2-SVP_def2J_scf_cas1_ras12i11
      Integrals generated by Gateway/Seward, Wed Nov 13 20:30:34 2024
 
 
      OrdInt status: non-squared
 
 
      Cartesian coordinates in Angstrom:
      -----------------------------------------------------
      No.  Label        X            Y            Z        
      -----------------------------------------------------
       1   C1         0.03714200  -0.01966600   0.11165300
       2   C3         2.11572200   1.27459400  -0.01404900
       3   C4         3.30503600   1.06621000  -0.96709900
       4   C6         5.21944300   2.18718400  -2.06792500
       5   C19       -0.56352100  -1.42050000   0.08815800
       6   N2         1.41407900   0.02651800   0.16415100
       7   N5         4.04748000   2.18904300  -1.21107700
       8   O7        -0.65787800   0.99636800   0.11832000
       9   O8         3.57729400  -0.04640400  -1.42370300
      10   H9        -1.17834800  -1.56008600   0.99994700
      11   H10       -1.24995800  -1.49776500  -0.77801300
      12   H11        0.18816400  -2.23204600   0.03485100
      13   H12        1.96049300  -0.79695500  -0.11517800
      14   H13        1.39397700   2.02700000  -0.40425000
      15   H14        2.50019100   1.68072300   0.95214600
      16   H15        3.73060000   3.07434300  -0.81196600
      17   H16        5.07226500   2.81871800  -2.97015000
      18   H17        6.12015400   2.54824400  -1.52759800
      19   H18        5.38923500   1.14262700  -2.38988500
      -----------------------------------------------------
      Nuclear repulsion energy =  448.00819540
 
++    Wave function specifications:
      -----------------------------
 
      Number of closed shell electrons          58
      Number of electrons in active shells      12
      Max number of holes in RAS1 space          0
      Max nr of electrons in RAS3 space          0
      Number of inactive orbitals               29
      Number of active orbitals                  8
      Number of secondary orbitals             172
      Spin quantum number                      0.0
      State symmetry                             1
--
 
++    Orbital specifications:
      -----------------------
 
      Symmetry species                           1
                                                 a
      Frozen orbitals                            0
      Inactive orbitals                         29
      Active orbitals                            8
      RAS1 orbitals                              0
      RAS2 orbitals                              8
      RAS3 orbitals                              0
      Secondary orbitals                       172
      Deleted orbitals                           3
      Number of basis functions                212
--
 
++    CI expansion specifications:
      ----------------------------
 
      Number of CSFs                           336
      Number of determinants                   406
      Number of root(s) required                 7
      Root chosen for geometry opt.              7
      CI roots used                              1     2     3     4     5     6     7
      weights                                0.143 0.143 0.143 0.143 0.143 0.143 0.143
      highest root included in the CI            7
      max. size of the explicit Hamiltonian    200
--
 
++    Optimization specifications:
      ----------------------------
 
      RASSCF algorithm: Conventional
      Maximum number of macro iterations        64
      Maximum number of SX iterations           25
      Threshold for RASSCF energy            0.100E-07
      Threshold for max MO rotation          0.100E+00
      Threshold for max BLB element          0.100E-03
      Level shift parameter                  0.300E+00
      Make Quasi-Newton update
--
 
      The MO-coefficients are taken from the file:
      /home/pcaah4/outputs/cas1_ras12i11_rasorb_files/orca_geometry_optimisation_225_180_BP86_def2-SVP_def2J_scf_cas1_ras12i11.RasOrb                                                                                                                                 
      Title: RASSCF average (pseudo-natural) orbitals                                      
 
      Total molecular charge    0.00
 
      Molecular orbitals exchanged:
        In symmetry  1 :  38 210
        In symmetry  1 :  39 211
        In symmetry  1 :  40 212
 
 
      ************************************************************************************************************************
      *                                                                                                                      *
      *                                            Wave function control section                                             *
      *                                                                                                                      *
      ************************************************************************************************************************
 
 
                                         RASSCF iterations: Energy and convergence statistics
                                         ----------------------------------------------------
 
      Iter CI   SX   CI       RASSCF       Energy    max ROT     max BLB   max BLB  Level Ln srch  Step   QN   Walltime
          iter iter root      energy       change     param      element    value   shift minimum  type update hh:mm:ss
 Nr of preliminary CI iterations:   4
        1   1    8    0  -453.70395894    0.00E+00   0.61E-01   34 142 1  0.15E-01*  0.19   0.00    SX    NO    0:00:13
        2   1    8    0  -453.70666853   -0.27E-02* -0.29E-01   34 142 1  0.21E-02*  0.19   0.00    SX    NO    0:00:06
        3   3    8    0  -453.70718977   -0.52E-03* -0.18E-01   23  37 1 -0.98E-03*  0.20   0.00    SX    NO    0:00:06
        4   4    8    0  -453.70735502   -0.17E-03*  0.11E-01   26  37 1  0.56E-03*  0.20   0.00    SX    NO    0:00:06
        5   4    7    0  -453.70741228   -0.57E-04*  0.15E-01   37  44 1 -0.35E-03*  0.20   2.39    LS   YES    0:00:06
        6   4    7    0  -453.70744399   -0.32E-04* -0.34E-02   37  44 1 -0.17E-03*  0.20   1.13    QN   YES    0:00:06
        7   3    6    0  -453.70744733   -0.33E-05* -0.15E-02   36  41 1 -0.11E-03*  0.20   1.46    QN   YES    0:00:06
        8   4    6    0  -453.70744863   -0.13E-05* -0.75E-03   36  41 1 -0.60E-04   0.20   1.15    QN   YES    0:00:06
        9   3    5    0  -453.70744884   -0.21E-06* -0.44E-03   36  41 1 -0.37E-04   0.20   1.38    QN   YES    0:00:06
       10   3    5    0  -453.70744891   -0.73E-07* -0.26E-03   36  41 1 -0.18E-04   0.20   1.32    QN   YES    0:00:06
       11   1    5    0  -453.70744894   -0.25E-07* -0.15E-03   26  37 1  0.11E-04   0.20   1.46    QN   YES    0:00:06
       12   1    4    0  -453.70744895   -0.68E-08   0.46E-04   26  37 1  0.38E-05   0.20   1.17    QN   YES    0:00:06
      Convergence after 12 iterations
       13   1    4    0  -453.70744895   -0.94E-09   0.46E-04   36  67 1 -0.13E-05   0.20   1.17    QN   YES    0:00:06
 
      ************************************************************************************************************************
                                                      Wave function printout:
                       occupation of active orbitals, and spin coupling of open shells (u,d: Spin up or down)
      ************************************************************************************************************************
 
      Note: transformation to natural orbitals
      has been made, which may change the order of the CSFs.
 
      printout of CI-coefficients larger than  0.05 for root  1
      energy=    -453.958862
      conf/sym  11111111     Coeff  Weight
             1  22222200   0.96560 0.93238
             6  22220220  -0.07581 0.00575
             7  22222u0d  -0.11911 0.01419
            15  22222002  -0.07915 0.00626
            64  2u22220d  -0.07939 0.00630
            73  2u222d02  -0.06531 0.00426
            81  u22222d0  -0.10056 0.01011
           175  20222202  -0.10224 0.01045
           191  02222220  -0.07961 0.00634
 
      printout of CI-coefficients larger than  0.05 for root  2
      energy=    -453.746811
      conf/sym  11111111     Coeff  Weight
            24  222u220d   0.96218 0.92578
            32  222u022d  -0.07520 0.00565
            33  222u2d02   0.10018 0.01004
           125  2u2d2202   0.18883 0.03566
           213  u22u22dd   0.08625 0.00744
           269  022u222d   0.08028 0.00644
 
      printout of CI-coefficients larger than  0.05 for root  3
      energy=    -453.726652
      conf/sym  11111111     Coeff  Weight
            21  222u22d0  -0.09140 0.00835
            41  22u222d0   0.94921 0.90100
            43  22u2d220  -0.15718 0.02471
            45  22u22dud  -0.06293 0.00396
            47  22u22udd   0.11159 0.01245
            55  22u220d2   0.07715 0.00595
           161  u2d22220   0.13233 0.01751
           219  2uu222dd  -0.07120 0.00507
           222  2uu22dd2  -0.05813 0.00338
           294  20u222d2  -0.10219 0.01044
 
      printout of CI-coefficients larger than  0.05 for root  4
      energy=    -453.648646
      conf/sym  11111111     Coeff  Weight
             2  22222ud0   0.61055 0.37278
             3  2222u2d0   0.71362 0.50926
             6  22220220   0.05073 0.00257
             7  22222u0d  -0.13230 0.01750
            12  2222uudd   0.07520 0.00565
            18  2222u0d2   0.06381 0.00407
            65  2u222dud   0.08062 0.00650
            67  2u222udd  -0.12029 0.01447
            68  2u22u2dd  -0.05241 0.00275
            81  u22222d0   0.06479 0.00420
            83  u222d220   0.16535 0.02734
           176  20222ud2  -0.08662 0.00750
           177  2022u2d2  -0.07354 0.00541
 
      printout of CI-coefficients larger than  0.05 for root  5
      energy=    -453.635229
      conf/sym  11111111     Coeff  Weight
             2  22222ud0  -0.72388 0.52400
             3  2222u2d0   0.56033 0.31397
             7  22222u0d  -0.24101 0.05809
            21  222u22d0  -0.05799 0.00336
            65  2u222dud  -0.11722 0.01374
            67  2u222udd   0.16064 0.02580
            73  2u222d02  -0.05915 0.00350
            83  u222d220   0.12462 0.01553
           176  20222ud2   0.10772 0.01160
           177  2022u2d2  -0.06041 0.00365
 
      printout of CI-coefficients larger than  0.05 for root  6
      energy=    -453.626585
      conf/sym  11111111     Coeff  Weight
             1  22222200  -0.09627 0.00927
             2  22222ud0   0.10076 0.01015
             3  2222u2d0  -0.27248 0.07425
             7  22222u0d  -0.78344 0.61378
            14  22220u2d  -0.06445 0.00415
            15  22222002   0.15168 0.02301
            21  222u22d0  -0.39241 0.15399
            25  222u2dud  -0.09674 0.00936
            27  222u2udd   0.14059 0.01977
            41  22u222d0  -0.05371 0.00289
            73  2u222d02  -0.19817 0.03927
            83  u222d220  -0.06680 0.00446
            87  u2222udd  -0.07975 0.00636
           175  20222202  -0.09263 0.00858
           193  02222u2d  -0.06100 0.00372
 
      printout of CI-coefficients larger than  0.05 for root  7
      energy=    -453.609358
      conf/sym  11111111     Coeff  Weight
             1  22222200   0.05130 0.00263
             3  2222u2d0   0.05065 0.00257
             7  22222u0d   0.40254 0.16204
            15  22222002  -0.09309 0.00867
            21  222u22d0  -0.81526 0.66465
            25  222u2dud  -0.19198 0.03686
            27  222u2udd   0.27634 0.07636
            41  22u222d0  -0.06983 0.00488
            73  2u222d02   0.09719 0.00945
           175  20222202   0.05258 0.00276
           210  2u2u2dd2  -0.06655 0.00443
           262  202u22d2   0.07369 0.00543
 
      Natural orbitals and occupation numbers for root  1
      sym 1:   1.973203   1.955320   1.999854   1.999735   1.995145   1.995891   0.031865   0.048987
 
      Natural orbitals and occupation numbers for root  2
      sym 1:   1.972216   1.999982   1.999798   1.003073   1.995499   1.999917   0.032424   0.997091
 
      Natural orbitals and occupation numbers for root  3
      sym 1:   1.999937   1.995663   1.002285   1.999085   1.999763   1.952985   0.998905   0.051378
 
      Natural orbitals and occupation numbers for root  4
      sym 1:   1.982940   1.933115   1.999691   1.999113   1.083624   1.970790   0.951255   0.079472
 
      Natural orbitals and occupation numbers for root  5
      sym 1:   1.984576   1.917653   1.999750   1.999249   1.956906   1.048045   0.985504   0.108317
 
      Natural orbitals and occupation numbers for root  6
      sym 1:   1.979565   1.954760   1.999575   1.775512   1.984200   1.232949   0.262472   0.810967
 
      Natural orbitals and occupation numbers for root  7
      sym 1:   1.999246   1.974895   1.995305   1.336436   1.991503   1.757491   0.677079   0.268044
 
      ************************************************************************************************************************
      *                                                                                                                      *
      *                                                    Final results                                                     *
      *                                                                                                                      *
      ************************************************************************************************************************
 
 
++    Wave function specifications:
      -----------------------------
 
      Number of closed shell electrons          58
      Number of electrons in active shells      12
      Max number of holes in RAS1 space          0
      Max nr of electrons in RAS3 space          0
      Number of inactive orbitals               29
      Number of active orbitals                  8
      Number of secondary orbitals             172
      Spin quantum number                      0.0
      State symmetry                             1
--
 
++    Orbital specifications:
      -----------------------
 
      Symmetry species                           1
                                                 a
      Frozen orbitals                            0
      Inactive orbitals                         29
      Active orbitals                            8
      RAS1 orbitals                              0
      RAS2 orbitals                              8
      RAS3 orbitals                              0
      Secondary orbitals                       172
      Deleted orbitals                           3
      Number of basis functions                212
--
 
++    CI expansion specifications:
      ----------------------------
 
      Number of CSFs                           336
      Number of determinants                   406
      Number of root(s) required                 7
      CI roots used                              1     2     3     4     5     6     7
      weights                                0.143 0.143 0.143 0.143 0.143 0.143 0.143
      highest root included in the CI            7
      Root passed to geometry opt.               7
--
 
++    Final optimization conditions:
      ------------------------------
 
      Average CI energy                            -453.70744895
      RASSCF energy for state  7                   -453.60935775
      Super-CI energy                                -0.00000000
      RASSCF energy change                            0.00000000
      Max change in MO coefficients               0.391E-04
      Max non-diagonal density matrix element     0.460E-04
      Maximum BLB matrix element                 -0.134E-05
      (orbital pair  36,  67 in symmetry   1)
      Norm of electronic gradient            0.278E+00
--
 
 
      Final state energy(ies):
      ------------------------
 
::    RASSCF root number  1 Total energy:   -453.95886241
::    RASSCF root number  2 Total energy:   -453.74681107
::    RASSCF root number  3 Total energy:   -453.72665171
::    RASSCF root number  4 Total energy:   -453.64864629
::    RASSCF root number  5 Total energy:   -453.63522888
::    RASSCF root number  6 Total energy:   -453.62658453
::    RASSCF root number  7 Total energy:   -453.60935775
 
++    Molecular orbitals:
      -------------------
 
      Pseudonatural active orbitals and approximate occupation numbers
 
 
 
 
      Molecular orbitals for symmetry species 1: a  
 
 
      Orbital                 1         2         3         4         5         6         7         8         9        10
      Energy           -20.6059  -20.5343  -15.6333  -15.5861  -11.3406  -11.2902  -11.2872  -11.2638  -11.2555   -1.4251
      Occ. No.           2.0000    2.0000    2.0000    2.0000    2.0000    2.0000    2.0000    2.0000    2.0000    2.0000
 
     1 C1     1s         0.0003   -0.0001    0.0003    0.0001    1.0000   -0.0000    0.0001   -0.0000   -0.0036   -0.0396
     2 C1     2s         0.0008   -0.0006    0.0016    0.0004    0.0025   -0.0002   -0.0005   -0.0001   -0.0003    0.3472
     3 C1     3s        -0.0005   -0.0005    0.0007    0.0003    0.0001   -0.0002   -0.0005   -0.0001   -0.0006   -0.0093
     4 C1     4s        -0.0004   -0.0001    0.0001    0.0001    0.0013   -0.0001   -0.0003   -0.0000   -0.0002    0.0022
     5 C1     2px       -0.0014   -0.0003    0.0018    0.0001    0.0012   -0.0005   -0.0001   -0.0001   -0.0003   -0.0479
     6 C1     3px       -0.0009   -0.0004    0.0013    0.0001    0.0012   -0.0006   -0.0006   -0.0002    0.0003    0.0255
     7 C1     4px        0.0002   -0.0001   -0.0001   -0.0000    0.0004   -0.0001   -0.0003   -0.0001    0.0002   -0.0147
     8 C1     2py        0.0028   -0.0001    0.0002   -0.0002    0.0012   -0.0005   -0.0000   -0.0001   -0.0005    0.0935
     9 C1     3py        0.0018   -0.0002    0.0001   -0.0002    0.0011   -0.0007   -0.0006   -0.0002    0.0003   -0.0702
    10 C1     4py       -0.0004   -0.0001   -0.0000   -0.0000    0.0007   -0.0001   -0.0004   -0.0001    0.0003    0.0226
    11 C1     2pz        0.0001   -0.0001    0.0000   -0.0000    0.0002    0.0002    0.0001   -0.0000   -0.0000   -0.0005
    12 C1     3pz        0.0001   -0.0001    0.0001   -0.0001    0.0000    0.0002    0.0001    0.0000    0.0000   -0.0053
    13 C1     4pz       -0.0000    0.0000    0.0000   -0.0001    0.0001    0.0000   -0.0000    0.0000   -0.0000   -0.0002
    14 C1     3d2-       0.0001   -0.0000    0.0001   -0.0000   -0.0004   -0.0000    0.0000   -0.0000    0.0000   -0.0333
    15 C1     3d1-       0.0000   -0.0000    0.0000    0.0000    0.0000    0.0000   -0.0000   -0.0000   -0.0000    0.0006
    16 C1     3d0       -0.0000    0.0000    0.0001   -0.0000   -0.0004    0.0000   -0.0001   -0.0000    0.0001   -0.0279
    17 C1     3d1+       0.0000   -0.0000   -0.0001    0.0000   -0.0000    0.0000    0.0000   -0.0000   -0.0000   -0.0004
    18 C1     3d2+       0.0001    0.0000   -0.0002    0.0000   -0.0000   -0.0000    0.0000    0.0000   -0.0000   -0.0090
    19 C3     1s         0.0001   -0.0000    0.0005   -0.0001   -0.0001    0.0958    0.9949    0.0001    0.0000   -0.0093
    20 C3     2s         0.0004   -0.0004    0.0024   -0.0005    0.0007    0.0003   -0.0013    0.0009    0.0005    0.0215
    21 C3     3s         0.0002   -0.0003    0.0012   -0.0004    0.0004   -0.0002   -0.0026    0.0005    0.0003   -0.0166
    22 C3     4s         0.0000   -0.0001    0.0001   -0.0001   -0.0000    0.0001    0.0007    0.0000    0.0000   -0.0015
    23 C3     2px        0.0000    0.0003   -0.0004   -0.0003    0.0009   -0.0006   -0.0011    0.0004    0.0004   -0.0277
    24 C3     3px        0.0001    0.0001   -0.0000   -0.0006    0.0015   -0.0011   -0.0012    0.0002    0.0007   -0.0179
    25 C3     4px        0.0001   -0.0001    0.0001   -0.0002    0.0005   -0.0003   -0.0005   -0.0001    0.0002   -0.0067
    26 C3     2py       -0.0002    0.0005   -0.0007   -0.0003    0.0005   -0.0002   -0.0004    0.0004    0.0000   -0.0230
    27 C3     3py       -0.0001    0.0004   -0.0001   -0.0003    0.0007   -0.0002   -0.0004    0.0005    0.0002   -0.0066
    28 C3     4py        0.0000   -0.0001    0.0002   -0.0000    0.0002   -0.0001   -0.0008    0.0001    0.0001   -0.0046
    29 C3     2pz        0.0004   -0.0002   -0.0001    0.0000   -0.0001   -0.0000    0.0006   -0.0002    0.0002   -0.0062
    30 C3     3pz        0.0004   -0.0001   -0.0002    0.0002   -0.0003    0.0003    0.0004   -0.0001    0.0002   -0.0044
    31 C3     4pz        0.0000    0.0001    0.0000    0.0001   -0.0001    0.0001    0.0000    0.0001   -0.0000    0.0017
    32 C3     3d2-       0.0001    0.0001    0.0000    0.0000    0.0001   -0.0001    0.0000   -0.0000    0.0000    0.0031
    33 C3     3d1-      -0.0000   -0.0001    0.0000    0.0000   -0.0000    0.0000    0.0000    0.0000    0.0000   -0.0006
    34 C3     3d0       -0.0000   -0.0000    0.0001   -0.0000   -0.0000    0.0000    0.0000    0.0000   -0.0000   -0.0029
    35 C3     3d1+       0.0000   -0.0001    0.0000   -0.0000    0.0000    0.0001    0.0001   -0.0001    0.0000   -0.0012
    36 C3     3d2+      -0.0000    0.0000    0.0001   -0.0000    0.0000    0.0000    0.0000    0.0001   -0.0000   -0.0007
    37 C4     1s         0.0000    0.0004   -0.0003    0.0003   -0.0001    0.9955   -0.0957    0.0003   -0.0000   -0.0010
    38 C4     2s         0.0002    0.0013   -0.0018    0.0012   -0.0009    0.0029    0.0008   -0.0007   -0.0001    0.0312
    39 C4     3s         0.0001   -0.0002   -0.0013    0.0005   -0.0008    0.0003    0.0003   -0.0006   -0.0001    0.0071
    40 C4     4s        -0.0000   -0.0003   -0.0004    0.0001   -0.0003    0.0014   -0.0001   -0.0002   -0.0000    0.0030
    41 C4     2px       -0.0001    0.0008    0.0008    0.0010    0.0003    0.0008   -0.0008   -0.0001    0.0000   -0.0057
    42 C4     3px        0.0001    0.0005    0.0010    0.0008    0.0005    0.0005   -0.0000   -0.0007    0.0001   -0.0083
    43 C4     4px        0.0001   -0.0001    0.0002   -0.0000    0.0002    0.0004    0.0003   -0.0005    0.0001   -0.0031
    44 C4     2py       -0.0000   -0.0028   -0.0003    0.0012    0.0001    0.0007   -0.0000   -0.0004    0.0001   -0.0080
    45 C4     3py       -0.0001   -0.0018   -0.0000    0.0009    0.0001    0.0006    0.0002   -0.0006    0.0000   -0.0011
    46 C4     4py       -0.0001    0.0004    0.0002   -0.0001   -0.0000    0.0001    0.0002   -0.0001   -0.0000   -0.0011
    47 C4     2pz       -0.0002   -0.0012   -0.0004   -0.0004   -0.0001    0.0001    0.0007   -0.0000   -0.0002    0.0060
    48 C4     3pz       -0.0003   -0.0007   -0.0004   -0.0002   -0.0002   -0.0001    0.0003    0.0004   -0.0003    0.0087
    49 C4     4pz       -0.0001    0.0002   -0.0001    0.0000   -0.0001   -0.0002   -0.0001    0.0003   -0.0000    0.0020
    50 C4     3d2-       0.0000    0.0001    0.0000   -0.0001   -0.0000    0.0000   -0.0001    0.0001   -0.0000   -0.0002
    51 C4     3d1-      -0.0000   -0.0001    0.0000    0.0000   -0.0000    0.0002   -0.0000   -0.0000   -0.0000    0.0011
    52 C4     3d0       -0.0000   -0.0000   -0.0000    0.0001    0.0000   -0.0002    0.0001   -0.0000   -0.0000   -0.0007
    53 C4     3d1+      -0.0000   -0.0001   -0.0000    0.0000   -0.0000   -0.0001    0.0000   -0.0000   -0.0000   -0.0006
    54 C4     3d2+       0.0000    0.0001   -0.0001    0.0001    0.0000   -0.0004    0.0001   -0.0000    0.0000   -0.0015
    55 C6     1s         0.0000    0.0001    0.0000    0.0003   -0.0001   -0.0004    0.0002    0.9997   -0.0000    0.0005
    56 C6     2s         0.0002    0.0006    0.0002    0.0014   -0.0006   -0.0001    0.0010    0.0000   -0.0004    0.0081
    57 C6     3s         0.0001    0.0004    0.0001    0.0004   -0.0006   -0.0003    0.0007   -0.0016   -0.0003    0.0071
    58 C6     4s         0.0000    0.0001   -0.0000   -0.0001   -0.0002   -0.0002    0.0002    0.0009   -0.0001    0.0028
    59 C6     2px        0.0001   -0.0002    0.0000   -0.0004    0.0003    0.0002   -0.0003   -0.0000    0.0001   -0.0065
    60 C6     3px        0.0001   -0.0001    0.0000    0.0001    0.0003    0.0004   -0.0003    0.0002    0.0001   -0.0060
    61 C6     4px        0.0000    0.0000   -0.0000    0.0002    0.0000    0.0001    0.0000   -0.0006    0.0000   -0.0006
    62 C6     2py       -0.0000   -0.0002    0.0001    0.0001    0.0000    0.0003    0.0000    0.0002   -0.0000   -0.0010
    63 C6     3py        0.0000   -0.0001    0.0001    0.0002    0.0001    0.0004    0.0000   -0.0001    0.0000   -0.0018
    64 C6     4py        0.0000    0.0001    0.0000    0.0000    0.0000    0.0001   -0.0000   -0.0000    0.0000   -0.0008
    65 C6     2pz        0.0001    0.0002   -0.0000    0.0003   -0.0002   -0.0003    0.0001    0.0000   -0.0001    0.0022
    66 C6     3pz        0.0001    0.0001   -0.0001   -0.0001   -0.0002   -0.0003    0.0001   -0.0002   -0.0001    0.0020
    67 C6     4pz        0.0000   -0.0000   -0.0000   -0.0001   -0.0000   -0.0000   -0.0000    0.0004   -0.0000    0.0004
    68 C6     3d2-       0.0000    0.0000   -0.0000    0.0000    0.0000    0.0001   -0.0000    0.0000    0.0000   -0.0000
    69 C6     3d1-       0.0000    0.0000    0.0000   -0.0001    0.0000   -0.0000    0.0000   -0.0000    0.0000   -0.0001
    70 C6     3d0       -0.0000   -0.0000    0.0000    0.0000   -0.0000   -0.0000    0.0000   -0.0000   -0.0000    0.0001
    71 C6     3d1+       0.0000   -0.0000    0.0000    0.0001    0.0000   -0.0000   -0.0000    0.0001    0.0000   -0.0004
    72 C6     3d2+       0.0000    0.0000   -0.0000    0.0000   -0.0000   -0.0000    0.0000   -0.0001   -0.0000    0.0003
    73 C19    1s         0.0002    0.0000   -0.0000   -0.0000    0.0036   -0.0000    0.0002   -0.0000    0.9999   -0.0143
    74 C19    2s         0.0011    0.0002   -0.0001   -0.0002    0.0005   -0.0003    0.0007   -0.0001    0.0019   -0.0126
    75 C19    3s         0.0007    0.0000    0.0000   -0.0001    0.0002   -0.0003    0.0002   -0.0001   -0.0004   -0.0393
    76 C19    4s         0.0001   -0.0000   -0.0000   -0.0000    0.0001   -0.0001   -0.0001   -0.0001    0.0013   -0.0040
    77 C19    2px        0.0008    0.0000   -0.0003   -0.0000   -0.0002    0.0000    0.0002    0.0000   -0.0002   -0.0107
    78 C19    3px        0.0005    0.0000   -0.0003   -0.0000   -0.0003    0.0001    0.0002    0.0000   -0.0001   -0.0076
    79 C19    4px       -0.0002   -0.0000    0.0000    0.0000   -0.0000    0.0000    0.0000    0.0000    0.0002    0.0076
    80 C19    2py       -0.0001   -0.0001    0.0003   -0.0000    0.0004   -0.0001    0.0001   -0.0001   -0.0002    0.0198
    81 C19    3py       -0.0002   -0.0001    0.0003   -0.0000   -0.0001   -0.0001   -0.0000   -0.0001    0.0000   -0.0072
    82 C19    4py       -0.0001   -0.0000   -0.0001    0.0000   -0.0001    0.0000   -0.0001   -0.0000    0.0004    0.0056
    83 C19    2pz       -0.0001   -0.0001    0.0001    0.0001    0.0001    0.0000    0.0002   -0.0000    0.0000   -0.0003
    84 C19    3pz       -0.0001   -0.0001    0.0001    0.0001    0.0000   -0.0000    0.0002   -0.0000    0.0000   -0.0004
    85 C19    4pz       -0.0000    0.0000   -0.0000    0.0000   -0.0000   -0.0000   -0.0000    0.0000    0.0000    0.0002
    86 C19    3d2-       0.0001    0.0000   -0.0000   -0.0000    0.0000    0.0000    0.0001   -0.0000   -0.0001    0.0002
    87 C19    3d1-       0.0000    0.0000   -0.0000   -0.0000   -0.0000   -0.0000   -0.0000    0.0000   -0.0000    0.0001
    88 C19    3d0       -0.0001   -0.0000   -0.0001    0.0000    0.0001    0.0000   -0.0000   -0.0000    0.0001    0.0015
    89 C19    3d1+       0.0000    0.0000   -0.0000   -0.0000   -0.0000   -0.0000   -0.0000    0.0000   -0.0000    0.0002
    90 C19    3d2+       0.0001   -0.0000   -0.0000   -0.0000   -0.0001    0.0000   -0.0000   -0.0000    0.0001   -0.0069
    91 N2     1s         0.0001    0.0001    0.9998   -0.0000   -0.0002    0.0000    0.0001    0.0000    0.0001   -0.0180
    92 N2     2s         0.0005    0.0004   -0.0003    0.0000   -0.0001    0.0003    0.0013    0.0001    0.0007    0.1129
    93 N2     3s         0.0004    0.0004   -0.0016    0.0001   -0.0002    0.0002    0.0006    0.0001    0.0005   -0.0493
    94 N2     4s         0.0001    0.0001    0.0004    0.0000    0.0001    0.0001    0.0002    0.0000    0.0001   -0.0119
    95 N2     2px        0.0001   -0.0003    0.0007    0.0004   -0.0002    0.0001    0.0008   -0.0001   -0.0004   -0.0310
    96 N2     3px        0.0000   -0.0005    0.0008    0.0006    0.0000    0.0002    0.0008   -0.0002   -0.0003    0.0147
    97 N2     4px        0.0000   -0.0001   -0.0001    0.0000   -0.0002    0.0000    0.0000   -0.0000    0.0001   -0.0057
    98 N2     2py       -0.0014    0.0003   -0.0007    0.0001    0.0001    0.0002    0.0007    0.0000   -0.0003    0.0362
    99 N2     3py       -0.0016    0.0002   -0.0002    0.0001    0.0000    0.0001    0.0006    0.0000   -0.0002    0.0143
   100 N2     4py        0.0000   -0.0001    0.0005   -0.0000   -0.0001   -0.0000    0.0002   -0.0000    0.0001   -0.0052
   101 N2     2pz       -0.0001    0.0003   -0.0003   -0.0002   -0.0000   -0.0000   -0.0003    0.0001   -0.0001    0.0025
   102 N2     3pz       -0.0002    0.0003   -0.0001   -0.0002   -0.0001   -0.0002   -0.0005    0.0001   -0.0001    0.0121
   103 N2     4pz        0.0000    0.0000   -0.0004   -0.0000   -0.0001   -0.0000   -0.0001    0.0000    0.0000    0.0001
   104 N2     3d2-       0.0001    0.0000   -0.0002    0.0000   -0.0001    0.0000   -0.0000   -0.0000   -0.0000   -0.0028
   105 N2     3d1-       0.0000   -0.0000    0.0001    0.0000   -0.0000   -0.0000    0.0000    0.0000    0.0000   -0.0011
   106 N2     3d0       -0.0000   -0.0000   -0.0000   -0.0000    0.0002   -0.0000    0.0001    0.0000   -0.0001   -0.0027
   107 N2     3d1+      -0.0000    0.0000   -0.0000   -0.0000   -0.0000   -0.0000    0.0000    0.0000   -0.0000    0.0001
   108 N2     3d2+      -0.0000   -0.0000    0.0000   -0.0000    0.0001   -0.0000   -0.0000   -0.0000    0.0000    0.0045
   109 N5     1s         0.0000    0.0001    0.0001    0.9999    0.0001   -0.0003    0.0000    0.0001    0.0000   -0.0016
   110 N5     2s         0.0001    0.0008    0.0004    0.0005    0.0003   -0.0004   -0.0001    0.0018    0.0001    0.0011
   111 N5     3s         0.0000    0.0005    0.0003   -0.0011    0.0002   -0.0004   -0.0000    0.0010    0.0001   -0.0045
   112 N5     4s         0.0000    0.0001    0.0001    0.0006    0.0000    0.0000   -0.0000    0.0004    0.0000   -0.0008
   113 N5     2px       -0.0002   -0.0009   -0.0004   -0.0005    0.0002    0.0002   -0.0006    0.0008    0.0002   -0.0028
   114 N5     3px       -0.0003   -0.0011   -0.0005   -0.0003    0.0004    0.0001   -0.0008    0.0007    0.0002   -0.0043
   115 N5     4px       -0.0000    0.0000   -0.0000    0.0001    0.0001   -0.0002   -0.0000    0.0001    0.0000   -0.0013
   116 N5     2py        0.0001    0.0010   -0.0002    0.0007    0.0001   -0.0003   -0.0003    0.0001    0.0001   -0.0045
   117 N5     3py        0.0001    0.0011   -0.0002    0.0003    0.0001   -0.0001   -0.0002   -0.0002    0.0001   -0.0025
   118 N5     4py       -0.0000    0.0000    0.0000   -0.0003    0.0000   -0.0001    0.0001   -0.0002   -0.0000   -0.0001
   119 N5     2pz        0.0001    0.0008    0.0002    0.0005   -0.0003    0.0000    0.0004   -0.0006   -0.0001    0.0032
   120 N5     3pz        0.0002    0.0010    0.0003    0.0003   -0.0005   -0.0001    0.0006   -0.0006   -0.0002    0.0057
   121 N5     4pz        0.0000   -0.0000    0.0000   -0.0002   -0.0001    0.0001    0.0001   -0.0001   -0.0001    0.0018
   122 N5     3d2-      -0.0000   -0.0000    0.0000   -0.0001   -0.0000   -0.0000    0.0001   -0.0000   -0.0000    0.0003
   123 N5     3d1-       0.0000    0.0000   -0.0000    0.0001    0.0000   -0.0000   -0.0000   -0.0000    0.0000   -0.0003
   124 N5     3d0       -0.0000   -0.0000   -0.0000   -0.0000   -0.0000    0.0000   -0.0000    0.0000   -0.0000    0.0001
   125 N5     3d1+      -0.0000   -0.0001   -0.0000    0.0001    0.0000    0.0002   -0.0000    0.0001   -0.0000    0.0001
   126 N5     3d2+      -0.0000    0.0000   -0.0000   -0.0001   -0.0000   -0.0000   -0.0000    0.0000   -0.0000    0.0002
   127 O7     1s         0.9997    0.0000    0.0000    0.0000   -0.0003    0.0000   -0.0000    0.0000    0.0000   -0.0237
   128 O7     2s        -0.0015    0.0000    0.0001    0.0000    0.0003    0.0001   -0.0001    0.0000    0.0003    0.6931
   129 O7     3s        -0.0014    0.0000    0.0001    0.0000   -0.0001    0.0001   -0.0000    0.0000    0.0003   -0.0342
   130 O7     4s         0.0000    0.0000   -0.0000    0.0000    0.0000    0.0000    0.0000    0.0000    0.0001   -0.0138
   131 O7     2px        0.0001    0.0001   -0.0003   -0.0000    0.0004    0.0001   -0.0001    0.0000    0.0001    0.0891
   132 O7     3px       -0.0003    0.0001   -0.0004   -0.0000   -0.0000    0.0001   -0.0000    0.0000    0.0001   -0.0260
   133 O7     4px        0.0008    0.0000   -0.0001    0.0000    0.0001    0.0000    0.0000   -0.0000   -0.0000   -0.0013
   134 O7     2py       -0.0001    0.0000   -0.0002   -0.0000   -0.0006    0.0000    0.0000    0.0000   -0.0001   -0.1191
   135 O7     3py        0.0006   -0.0000   -0.0001   -0.0000   -0.0003    0.0001   -0.0000   -0.0000   -0.0001    0.0362
   136 O7     4py       -0.0011   -0.0000    0.0001   -0.0000   -0.0003    0.0000   -0.0000   -0.0000    0.0000    0.0000
   137 O7     2pz       -0.0000    0.0000   -0.0001    0.0000    0.0001   -0.0000   -0.0000   -0.0000   -0.0000    0.0025
   138 O7     3pz       -0.0000   -0.0000   -0.0000    0.0000   -0.0000   -0.0001    0.0000   -0.0000   -0.0000    0.0016
   139 O7     4pz       -0.0000   -0.0000   -0.0000    0.0000   -0.0000   -0.0000    0.0000   -0.0000   -0.0000    0.0004
   140 O7     3d2-       0.0001    0.0000    0.0000   -0.0000   -0.0002    0.0000    0.0000    0.0000   -0.0000   -0.0184
   141 O7     3d1-       0.0000   -0.0000    0.0000    0.0000   -0.0000    0.0000    0.0000   -0.0000    0.0000   -0.0001
   142 O7     3d0       -0.0000    0.0000   -0.0001    0.0000   -0.0001    0.0000   -0.0000    0.0000   -0.0000   -0.0106
   143 O7     3d1+      -0.0000   -0.0000    0.0000   -0.0000   -0.0000   -0.0000    0.0000   -0.0000   -0.0000   -0.0000
   144 O7     3d2+       0.0000    0.0000   -0.0001   -0.0000   -0.0001    0.0000   -0.0000    0.0000   -0.0000   -0.0060
   145 O8     1s        -0.0000    0.9997   -0.0000    0.0000    0.0000   -0.0002    0.0000   -0.0000    0.0000   -0.0016
   146 O8     2s        -0.0000   -0.0015   -0.0002    0.0002    0.0002    0.0007   -0.0001   -0.0002    0.0000    0.0283
   147 O8     3s        -0.0000   -0.0014   -0.0001    0.0001    0.0001    0.0001   -0.0000   -0.0001    0.0000   -0.0031
   148 O8     4s        -0.0000    0.0000   -0.0000    0.0000    0.0000    0.0001   -0.0000   -0.0000    0.0000   -0.0009
   149 O8     2px       -0.0000   -0.0000    0.0000   -0.0002   -0.0000    0.0001    0.0001   -0.0000   -0.0000   -0.0022
   150 O8     3px       -0.0000    0.0001    0.0000   -0.0002   -0.0000   -0.0001    0.0002   -0.0000    0.0000   -0.0002
   151 O8     4px       -0.0000   -0.0003    0.0000    0.0000    0.0000   -0.0001    0.0001   -0.0000    0.0000   -0.0004
   152 O8     2py        0.0000    0.0002   -0.0000   -0.0001    0.0000    0.0007   -0.0000   -0.0001   -0.0000    0.0046
   153 O8     3py        0.0000   -0.0005    0.0000   -0.0002    0.0000    0.0002    0.0000   -0.0000   -0.0000   -0.0029
   154 O8     4py       -0.0000    0.0012    0.0000   -0.0001   -0.0000    0.0001   -0.0000    0.0000   -0.0000    0.0001
   155 O8     2pz        0.0000    0.0001   -0.0001    0.0001    0.0000    0.0004   -0.0001    0.0000    0.0000    0.0031
   156 O8     3pz        0.0000   -0.0003   -0.0001    0.0001    0.0000    0.0001   -0.0001    0.0000    0.0001   -0.0016
   157 O8     4pz       -0.0000    0.0005   -0.0000   -0.0001   -0.0000    0.0001   -0.0000    0.0000    0.0000    0.0001
   158 O8     3d2-      -0.0000    0.0001    0.0000   -0.0000   -0.0000   -0.0001    0.0000   -0.0000    0.0000   -0.0004
   159 O8     3d1-       0.0000   -0.0001   -0.0000    0.0000   -0.0000    0.0001   -0.0000   -0.0000    0.0000    0.0006
   160 O8     3d0       -0.0000    0.0000   -0.0000   -0.0000    0.0000   -0.0001   -0.0000    0.0000    0.0000   -0.0003
   161 O8     3d1+      -0.0000   -0.0000    0.0000   -0.0001    0.0000    0.0000   -0.0000   -0.0000   -0.0000   -0.0002
   162 O8     3d2+      -0.0000    0.0001    0.0000    0.0000   -0.0000   -0.0002    0.0000    0.0000   -0.0000   -0.0005
   163 H9     1s         0.0002   -0.0000   -0.0000   -0.0001   -0.0001   -0.0002   -0.0005   -0.0000    0.0003    0.0144
   164 H9     2s         0.0001   -0.0000   -0.0000   -0.0000    0.0000   -0.0001   -0.0004   -0.0000   -0.0002    0.0037
   165 H9     2px       -0.0000   -0.0000    0.0000   -0.0000    0.0000   -0.0000   -0.0001   -0.0000   -0.0000    0.0009
   166 H9     2py       -0.0001    0.0000   -0.0000    0.0000    0.0001   -0.0000   -0.0000   -0.0000    0.0000    0.0013
   167 H9     2pz       -0.0000    0.0000    0.0000    0.0000   -0.0000    0.0000    0.0001    0.0000    0.0001   -0.0006
   168 H10    1s         0.0000   -0.0003    0.0002    0.0001    0.0002   -0.0001   -0.0000   -0.0000    0.0003    0.0120
   169 H10    2s         0.0000   -0.0002    0.0001    0.0000    0.0001   -0.0000   -0.0000   -0.0000   -0.0002    0.0016
   170 H10    2px       -0.0000   -0.0000    0.0001    0.0000    0.0001   -0.0000   -0.0000   -0.0000   -0.0000    0.0007
   171 H10    2py       -0.0001   -0.0000   -0.0000   -0.0000    0.0000   -0.0000   -0.0000   -0.0000    0.0000    0.0010
   172 H10    2pz        0.0000   -0.0000   -0.0000    0.0000    0.0000   -0.0000   -0.0000   -0.0000   -0.0001    0.0005
   173 H11    1s        -0.0005   -0.0002    0.0004    0.0000    0.0003   -0.0001   -0.0001   -0.0001    0.0004    0.0198
   174 H11    2s        -0.0003   -0.0001    0.0003    0.0000    0.0002   -0.0001   -0.0001   -0.0000   -0.0002    0.0056
   175 H11    2px       -0.0000    0.0000   -0.0001   -0.0000   -0.0000    0.0000    0.0000    0.0000    0.0001   -0.0001
   176 H11    2py       -0.0000   -0.0000    0.0000    0.0000    0.0001    0.0000   -0.0000   -0.0000   -0.0000    0.0019
   177 H11    2pz       -0.0000    0.0000   -0.0000   -0.0000    0.0000   -0.0000   -0.0000    0.0000   -0.0000    0.0002
   178 H12    1s        -0.0009    0.0005   -0.0007   -0.0001    0.0001   -0.0000   -0.0003    0.0000   -0.0005    0.0357
   179 H12    2s        -0.0005    0.0004   -0.0005   -0.0000    0.0000    0.0000   -0.0002    0.0000   -0.0003   -0.0031
   180 H12    2px        0.0000   -0.0000    0.0002    0.0000   -0.0001    0.0000    0.0000   -0.0000    0.0000   -0.0043
   181 H12    2py       -0.0000    0.0001   -0.0003    0.0000    0.0000    0.0000    0.0000   -0.0000   -0.0000    0.0038
   182 H12    2pz       -0.0001   -0.0000   -0.0002    0.0000    0.0000    0.0000   -0.0000    0.0000   -0.0000    0.0016
   183 H13    1s         0.0004    0.0003   -0.0004    0.0001   -0.0004   -0.0002    0.0010   -0.0002    0.0002    0.0109
   184 H13    2s         0.0003    0.0002   -0.0001    0.0001   -0.0002   -0.0002    0.0002   -0.0002    0.0001   -0.0040
   185 H13    2px        0.0000    0.0000    0.0000   -0.0000   -0.0001    0.0001    0.0001   -0.0000   -0.0000   -0.0004
   186 H13    2py       -0.0000   -0.0001    0.0000   -0.0000    0.0000    0.0000   -0.0001   -0.0000   -0.0000   -0.0009
   187 H13    2pz        0.0000   -0.0000    0.0000    0.0000   -0.0000   -0.0000   -0.0000   -0.0000   -0.0000    0.0011
   188 H14    1s         0.0000    0.0005   -0.0003    0.0002   -0.0007   -0.0001    0.0008   -0.0003   -0.0004    0.0185
   189 H14    2s        -0.0000    0.0003   -0.0001    0.0001   -0.0005   -0.0000    0.0001   -0.0002   -0.0003    0.0066
   190 H14    2px       -0.0000    0.0000    0.0000   -0.0000    0.0000    0.0001    0.0000    0.0000   -0.0000   -0.0006
   191 H14    2py       -0.0000   -0.0001    0.0000   -0.0000    0.0000    0.0000   -0.0000   -0.0000    0.0000   -0.0006
   192 H14    2pz        0.0000   -0.0000   -0.0000   -0.0000    0.0001   -0.0000    0.0000    0.0000    0.0000   -0.0013
   193 H15    1s        -0.0002   -0.0014   -0.0001   -0.0008   -0.0002    0.0004    0.0002   -0.0001   -0.0001    0.0084
   194 H15    2s        -0.0001   -0.0008   -0.0001   -0.0005   -0.0001    0.0001    0.0002   -0.0000   -0.0001    0.0043
   195 H15    2px       -0.0000   -0.0000    0.0000   -0.0002   -0.0000   -0.0001    0.0000    0.0000   -0.0000    0.0004
   196 H15    2py        0.0000    0.0001    0.0000    0.0004    0.0000   -0.0002   -0.0000    0.0000    0.0000   -0.0010
   197 H15    2pz        0.0000    0.0000   -0.0000    0.0002    0.0000    0.0000   -0.0000   -0.0000    0.0000   -0.0004
   198 H16    1s         0.0001    0.0003   -0.0001   -0.0005   -0.0002   -0.0004   -0.0001    0.0005   -0.0000    0.0026
   199 H16    2s         0.0001    0.0002   -0.0001   -0.0002   -0.0001   -0.0004   -0.0000   -0.0002   -0.0000    0.0019
   200 H16    2px       -0.0000   -0.0000   -0.0000    0.0000   -0.0000   -0.0000   -0.0000   -0.0000   -0.0000    0.0001
   201 H16    2py       -0.0000   -0.0000    0.0000    0.0000    0.0000    0.0000    0.0000    0.0000    0.0000   -0.0001
   202 H16    2pz        0.0000    0.0000   -0.0000   -0.0000   -0.0000   -0.0001   -0.0000    0.0000   -0.0000    0.0003
   203 H17    1s        -0.0002    0.0002   -0.0000   -0.0004   -0.0001   -0.0003    0.0001    0.0005   -0.0000    0.0041
   204 H17    2s        -0.0001    0.0001    0.0000   -0.0002   -0.0000   -0.0002    0.0001   -0.0001   -0.0000    0.0028
   205 H17    2px        0.0000   -0.0000    0.0000    0.0000    0.0000    0.0001   -0.0000   -0.0000    0.0000   -0.0003
   206 H17    2py        0.0000   -0.0000   -0.0000    0.0000    0.0000    0.0000   -0.0000   -0.0000    0.0000   -0.0002
   207 H17    2pz        0.0000    0.0000    0.0000   -0.0000    0.0000    0.0000   -0.0000    0.0000    0.0000   -0.0004
   208 H18    1s        -0.0000   -0.0000   -0.0001   -0.0002   -0.0002   -0.0000    0.0000    0.0010   -0.0000    0.0036
   209 H18    2s        -0.0000    0.0000   -0.0001   -0.0000   -0.0001    0.0000    0.0000    0.0001   -0.0000    0.0022
   210 H18    2px       -0.0000   -0.0000    0.0000    0.0000    0.0000   -0.0000   -0.0000   -0.0000   -0.0000   -0.0001
   211 H18    2py       -0.0000   -0.0000   -0.0000    0.0000   -0.0000   -0.0000    0.0000    0.0001   -0.0000    0.0004
   212 H18    2pz       -0.0000   -0.0000   -0.0000    0.0000   -0.0000    0.0000    0.0000    0.0001   -0.0000    0.0003
 
 
      Orbital                11        12        13        14        15        16        17        18        19        20
      Energy            -1.3689   -1.2533   -1.2167   -1.0278   -0.9723   -0.9139   -0.8145   -0.7793   -0.7199   -0.6937
      Occ. No.           2.0000    2.0000    2.0000    2.0000    2.0000    2.0000    2.0000    2.0000    2.0000    2.0000
 
     1 C1     1s         0.0045   -0.0087    0.0022   -0.0168   -0.0004    0.0067    0.0146    0.0017    0.0066    0.0029
     2 C1     2s         0.0082    0.1306    0.0106    0.2740   -0.0467   -0.0922   -0.3744   -0.0198   -0.2581   -0.0642
     3 C1     3s         0.0176   -0.0012    0.0131   -0.0208   -0.0041    0.0095    0.0073    0.0046    0.0059    0.0172
     4 C1     4s         0.0050    0.0002    0.0040   -0.0059   -0.0016    0.0041    0.0031    0.0018    0.0034    0.0029
     5 C1     2px        0.0326    0.1522    0.0164   -0.0123    0.0989   -0.0979   -0.1291   -0.0040    0.1472    0.2635
     6 C1     3px        0.0166   -0.0428    0.0262   -0.0553   -0.0251    0.0406    0.0201   -0.0033   -0.0656   -0.0581
     7 C1     4px        0.0083    0.0258    0.0046   -0.0098    0.0119   -0.0068   -0.0104   -0.0007    0.0055    0.0176
     8 C1     2py        0.0037   -0.0359    0.0178   -0.1625    0.0645   -0.0025   -0.0572    0.0364    0.0522   -0.1485
     9 C1     3py        0.0231    0.0416    0.0206    0.0075   -0.0486    0.0423    0.0092   -0.0023   -0.0039    0.0626
    10 C1     4py        0.0006   -0.0053    0.0037   -0.0262    0.0072    0.0046   -0.0083    0.0019   -0.0016   -0.0085
    11 C1     2pz       -0.0013   -0.0111   -0.0038    0.0059    0.0084   -0.0110   -0.0205    0.0030    0.0085    0.0009
    12 C1     3pz       -0.0015   -0.0134   -0.0056    0.0058    0.0076   -0.0093   -0.0025    0.0016    0.0022   -0.0020
    13 C1     4pz       -0.0005   -0.0012   -0.0010    0.0021    0.0018   -0.0031   -0.0012    0.0004    0.0020   -0.0007
    14 C1     3d2-       0.0038    0.0156   -0.0001    0.0084   -0.0084    0.0067   -0.0124    0.0071    0.0175    0.0072
    15 C1     3d1-      -0.0001   -0.0004   -0.0000    0.0003   -0.0001    0.0001   -0.0009    0.0002   -0.0004   -0.0009
    16 C1     3d0        0.0010   -0.0067   -0.0001   -0.0113    0.0001    0.0053    0.0131    0.0006    0.0063    0.0024
    17 C1     3d1+      -0.0001   -0.0002   -0.0001    0.0013    0.0012   -0.0013   -0.0039    0.0008    0.0033    0.0016
    18 C1     3d2+       0.0030    0.0273   -0.0006    0.0021    0.0147   -0.0139   -0.0085   -0.0011    0.0137    0.0166
    19 C3     1s        -0.0156   -0.0303   -0.0072    0.0345    0.0250   -0.0243    0.0093   -0.0069   -0.0007    0.0003
    20 C3     2s         0.0253    0.1763    0.0161   -0.2835   -0.2329    0.3115   -0.0989    0.0774   -0.0296    0.0431
    21 C3     3s        -0.0380   -0.0487   -0.0198    0.0601    0.0425   -0.0247    0.0202   -0.0145    0.0002    0.0006
    22 C3     4s        -0.0048   -0.0099   -0.0024    0.0159    0.0105   -0.0064    0.0051   -0.0048    0.0017   -0.0020
    23 C3     2px        0.0110   -0.0498    0.0275   -0.0425   -0.0771   -0.0023    0.0468   -0.1243   -0.2376    0.0890
    24 C3     3px        0.0003    0.0078    0.0142   -0.0415    0.0117    0.0071   -0.0161    0.0269    0.0379   -0.0091
    25 C3     4px        0.0101   -0.0070    0.0060   -0.0081   -0.0004   -0.0037    0.0026   -0.0049   -0.0029    0.0026
    26 C3     2py       -0.0351   -0.0978    0.0073    0.0002   -0.0419   -0.0323   -0.1479    0.0185   -0.0312    0.2299
    27 C3     3py       -0.0008    0.0132   -0.0045   -0.0423    0.0063   -0.0284    0.0083    0.0146    0.0070   -0.0313
    28 C3     4py        0.0064   -0.0020    0.0036   -0.0141   -0.0087    0.0041   -0.0080    0.0094   -0.0028    0.0099
    29 C3     2pz       -0.0123    0.0038   -0.0143    0.0072    0.0266    0.0168   -0.0064    0.0813    0.1106   -0.0760
    30 C3     3pz        0.0055   -0.0011   -0.0058   -0.0094   -0.0214    0.0063   -0.0021   -0.0089   -0.0127    0.0111
    31 C3     4pz       -0.0048    0.0063   -0.0022   -0.0042   -0.0043    0.0091   -0.0005    0.0058   -0.0010    0.0000
    32 C3     3d2-      -0.0021    0.0187    0.0038   -0.0029    0.0065   -0.0018    0.0031    0.0056    0.0171   -0.0184
    33 C3     3d1-       0.0030   -0.0034   -0.0036    0.0010   -0.0019    0.0011    0.0010   -0.0026   -0.0112    0.0053
    34 C3     3d0       -0.0007   -0.0117    0.0001    0.0041   -0.0039   -0.0017   -0.0046   -0.0041   -0.0096    0.0106
    35 C3     3d1+      -0.0023   -0.0048   -0.0021    0.0060    0.0084   -0.0004   -0.0041    0.0096    0.0119    0.0008
    36 C3     3d2+      -0.0006   -0.0098    0.0031    0.0003   -0.0094   -0.0034   -0.0169   -0.0081   -0.0077    0.0179
    37 C4     1s        -0.0399    0.0071   -0.0063    0.0079    0.0157    0.0076    0.0040    0.0160    0.0032   -0.0023
    38 C4     2s         0.3561    0.0090    0.1293   -0.1146   -0.2269   -0.0406   -0.0353   -0.3995   -0.0821    0.0324
    39 C4     3s        -0.0068    0.0191    0.0089    0.0120    0.0150    0.0198    0.0095    0.0087    0.0044   -0.0040
    40 C4     4s         0.0025    0.0056    0.0029    0.0040    0.0046    0.0061    0.0021    0.0048    0.0036   -0.0024
    41 C4     2px        0.0447   -0.0458    0.0727    0.0594    0.0853   -0.0550   -0.0159   -0.0715    0.1626   -0.0677
    42 C4     3px       -0.0121   -0.0076    0.0333   -0.0190    0.0491    0.0844    0.0018    0.0043   -0.0722    0.0350
    43 C4     4px        0.0108   -0.0111    0.0189    0.0055    0.0181    0.0029   -0.0029   -0.0067    0.0032    0.0002
    44 C4     2py       -0.0812    0.0017    0.1586   -0.0331   -0.0688   -0.0722   -0.0215   -0.0883    0.0397    0.0290
    45 C4     3py        0.0570   -0.0368   -0.0450    0.0107    0.0433    0.0294   -0.0152    0.0228   -0.0191   -0.0058
    46 C4     4py       -0.0225   -0.0041    0.0302   -0.0032   -0.0062   -0.0055   -0.0100   -0.0022    0.0027    0.0026
    47 C4     2pz       -0.0441    0.0302   -0.0138   -0.0507   -0.0824    0.0156    0.0158    0.0100   -0.1208    0.0515
    48 C4     3pz        0.0166   -0.0075   -0.0390    0.0223   -0.0138   -0.0627    0.0044    0.0018    0.0491   -0.0283
    49 C4     4pz       -0.0135    0.0066   -0.0067   -0.0058   -0.0127   -0.0050    0.0031    0.0031   -0.0029   -0.0007
    50 C4     3d2-      -0.0084    0.0024    0.0244    0.0002   -0.0045   -0.0136    0.0055   -0.0138    0.0112   -0.0108
    51 C4     3d1-       0.0225   -0.0047   -0.0148   -0.0004   -0.0014    0.0036   -0.0043    0.0059   -0.0079    0.0085
    52 C4     3d0       -0.0169    0.0032   -0.0068   -0.0000    0.0052    0.0091    0.0013    0.0062   -0.0047    0.0001
    53 C4     3d1+      -0.0114   -0.0017   -0.0033    0.0087    0.0096   -0.0070    0.0022    0.0142    0.0039   -0.0000
    54 C4     3d2+      -0.0291    0.0083    0.0027   -0.0053    0.0016    0.0140   -0.0009   -0.0049    0.0012   -0.0030
    55 C6     1s        -0.0092    0.0040   -0.0347   -0.0114   -0.0382   -0.0424    0.0061    0.0070    0.0062   -0.0057
    56 C6     2s         0.0240    0.0030    0.1547    0.1049    0.2582    0.3620   -0.0265   -0.1165   -0.0526    0.0413
    57 C6     3s        -0.0139    0.0177   -0.0609   -0.0089   -0.0734   -0.0700    0.0189    0.0102    0.0163   -0.0161
    58 C6     4s        -0.0003    0.0056   -0.0099   -0.0005   -0.0162   -0.0140    0.0047    0.0030    0.0043   -0.0043
    59 C6     2px       -0.0199   -0.0009   -0.0849   -0.0237   -0.0108    0.0365   -0.0265   -0.0681   -0.0923    0.1076
    60 C6     3px        0.0022   -0.0088    0.0176   -0.0000    0.0195    0.0067   -0.0022    0.0056    0.0146   -0.0168
    61 C6     4px       -0.0030   -0.0009   -0.0007    0.0039    0.0120    0.0163   -0.0027   -0.0073   -0.0049    0.0051
    62 C6     2py       -0.0069    0.0003   -0.0016   -0.0025    0.0101    0.0128    0.0153    0.1177   -0.1022    0.0527
    63 C6     3py       -0.0012   -0.0015    0.0022   -0.0014    0.0103    0.0108   -0.0025   -0.0025    0.0082   -0.0042
    64 C6     4py       -0.0005   -0.0001    0.0023    0.0007    0.0027    0.0010    0.0027    0.0065   -0.0056    0.0028
    65 C6     2pz        0.0122    0.0035    0.0643    0.0135    0.0094   -0.0159    0.0220    0.0748    0.0412   -0.0682
    66 C6     3pz       -0.0011    0.0091   -0.0090   -0.0037   -0.0140    0.0041   -0.0013   -0.0054   -0.0089    0.0125
    67 C6     4pz        0.0024    0.0010    0.0011   -0.0025   -0.0084   -0.0113    0.0022    0.0068    0.0019   -0.0030
    68 C6     3d2-       0.0005   -0.0000   -0.0009   -0.0003   -0.0011   -0.0007   -0.0017   -0.0103    0.0051   -0.0019
    69 C6     3d1-      -0.0003   -0.0000    0.0003    0.0005    0.0015    0.0014    0.0010    0.0058   -0.0019    0.0002
    70 C6     3d0       -0.0001    0.0001    0.0008   -0.0004   -0.0006   -0.0005    0.0006    0.0048   -0.0037    0.0017
    71 C6     3d1+      -0.0043    0.0011   -0.0195   -0.0047   -0.0060    0.0022   -0.0030   -0.0087   -0.0128    0.0140
    72 C6     3d2+       0.0024   -0.0004    0.0139    0.0023    0.0025   -0.0027    0.0028    0.0100    0.0039   -0.0071
    73 C19    1s         0.0008   -0.0094    0.0012   -0.0564    0.0425   -0.0220   -0.0131   -0.0038   -0.0091    0.0020
    74 C19    2s         0.0047    0.0041    0.0066    0.2966   -0.2726    0.1670    0.0756    0.0349    0.0986    0.0005
    75 C19    3s         0.0068   -0.0251    0.0090   -0.1142    0.0791   -0.0358   -0.0351   -0.0077   -0.0165    0.0117
    76 C19    4s         0.0028   -0.0028    0.0034   -0.0249    0.0178   -0.0077   -0.0098   -0.0021   -0.0051    0.0033
    77 C19    2px        0.0024    0.0249   -0.0014    0.0528   -0.0009   -0.0268   -0.0424   -0.0243   -0.0525    0.1340
    78 C19    3px       -0.0009   -0.0005   -0.0018    0.0042    0.0043   -0.0017    0.0037    0.0035    0.0120   -0.0117
    79 C19    4px       -0.0013    0.0001   -0.0007   -0.0072    0.0118   -0.0090   -0.0013   -0.0031   -0.0060    0.0031
    80 C19    2py        0.0031    0.0088    0.0063    0.0451   -0.0131   -0.0159   -0.0662   -0.0315   -0.2027   -0.0508
    81 C19    3py        0.0053   -0.0026    0.0071   -0.0336    0.0181   -0.0021    0.0098    0.0008    0.0211    0.0120
    82 C19    4py        0.0004    0.0011    0.0002   -0.0130    0.0141   -0.0097   -0.0133   -0.0014   -0.0087   -0.0014
    83 C19    2pz        0.0016   -0.0051   -0.0004    0.0000    0.0016   -0.0019   -0.0061   -0.0018    0.0013    0.0008
    84 C19    3pz        0.0019   -0.0045   -0.0000   -0.0028    0.0008    0.0000   -0.0002   -0.0023   -0.0007    0.0005
    85 C19    4pz        0.0002    0.0004    0.0002   -0.0005   -0.0008    0.0006   -0.0003   -0.0002   -0.0001    0.0003
    86 C19    3d2-       0.0003    0.0059   -0.0001    0.0107   -0.0022   -0.0029   -0.0071   -0.0025   -0.0131   -0.0001
    87 C19    3d1-       0.0000    0.0003    0.0001    0.0006   -0.0004    0.0000   -0.0006   -0.0001   -0.0003    0.0007
    88 C19    3d0       -0.0001   -0.0010   -0.0000   -0.0087    0.0040    0.0005    0.0033    0.0024    0.0081   -0.0083
    89 C19    3d1+      -0.0000    0.0006    0.0002   -0.0000   -0.0004    0.0004    0.0003    0.0000   -0.0008   -0.0010
    90 C19    3d2+       0.0006    0.0022   -0.0002   -0.0076    0.0050   -0.0009    0.0035    0.0018    0.0142    0.0047
    91 N2     1s        -0.0070   -0.0415   -0.0005   -0.0035   -0.0038    0.0008   -0.0034    0.0005    0.0018   -0.0006
    92 N2     2s         0.0531    0.5812   -0.0194   -0.0099    0.2055   -0.1327    0.1586   -0.0155    0.1220   -0.0554
    93 N2     3s        -0.0181   -0.0813   -0.0053   -0.0081    0.0056   -0.0073   -0.0054    0.0032    0.0090   -0.0009
    94 N2     4s        -0.0046   -0.0261   -0.0009   -0.0005   -0.0009   -0.0005   -0.0026    0.0010   -0.0005    0.0004
    95 N2     2px        0.0175   -0.0367    0.0033   -0.1426   -0.0329    0.1256    0.3706   -0.0109   -0.0918   -0.2777
    96 N2     3px        0.0088   -0.0165    0.0063    0.0230    0.0452   -0.0530   -0.0994   -0.0056   -0.0051    0.0596
    97 N2     4px        0.0046    0.0007    0.0018   -0.0069    0.0071   -0.0035    0.0011   -0.0015   -0.0018    0.0062
    98 N2     2py       -0.0027    0.0024    0.0029   -0.1225   -0.0418    0.1192   -0.2108    0.1500    0.2420   -0.2123
    99 N2     3py       -0.0102   -0.0404   -0.0036    0.0376    0.0419   -0.0527    0.0209   -0.0380   -0.0510    0.0308
   100 N2     4py        0.0010   -0.0107    0.0004   -0.0007    0.0043   -0.0041   -0.0076   -0.0027   -0.0018    0.0049
   101 N2     2pz       -0.0079   -0.0129    0.0055    0.0104   -0.0109    0.0026   -0.0441    0.0191    0.0517   -0.0071
   102 N2     3pz        0.0001    0.0311    0.0037    0.0010   -0.0100    0.0059    0.0227   -0.0057   -0.0099    0.0009
   103 N2     4pz       -0.0012    0.0009    0.0003    0.0001   -0.0014    0.0016    0.0000    0.0000   -0.0009    0.0009
   104 N2     3d2-       0.0008    0.0072    0.0002   -0.0018   -0.0072    0.0086   -0.0054    0.0041    0.0060   -0.0035
   105 N2     3d1-       0.0001    0.0002   -0.0004    0.0030    0.0025   -0.0033    0.0066   -0.0024   -0.0045    0.0031
   106 N2     3d0       -0.0016   -0.0158    0.0005    0.0010   -0.0037    0.0012    0.0019   -0.0009   -0.0036   -0.0001
   107 N2     3d1+      -0.0008   -0.0009    0.0006    0.0021   -0.0004   -0.0016   -0.0077    0.0013    0.0035    0.0039
   108 N2     3d2+       0.0006    0.0050    0.0006    0.0103    0.0054   -0.0123   -0.0184   -0.0044   -0.0040    0.0151
   109 N5     1s        -0.0193    0.0020   -0.0425   -0.0018    0.0006    0.0031   -0.0022   -0.0033    0.0032   -0.0017
   110 N5     2s         0.1265   -0.0343    0.5776    0.0418   -0.0218   -0.2214    0.0589    0.1661    0.1036   -0.0978
   111 N5     3s        -0.0486    0.0048   -0.0796   -0.0029   -0.0068   -0.0131   -0.0010    0.0000    0.0151   -0.0093
   112 N5     4s        -0.0114    0.0023   -0.0264   -0.0013   -0.0029   -0.0013   -0.0002   -0.0021    0.0017   -0.0007
   113 N5     2px        0.0105   -0.0116   -0.0143    0.0427    0.1427    0.1326   -0.0005    0.0693    0.0447   -0.0901
   114 N5     3px        0.0195   -0.0139   -0.0154   -0.0277   -0.0467   -0.0706   -0.0147   -0.0120   -0.0082    0.0203
   115 N5     4px       -0.0069   -0.0029   -0.0032    0.0002    0.0020   -0.0032   -0.0034   -0.0017    0.0009    0.0015
   116 N5     2py       -0.0411    0.0073   -0.0130    0.0177    0.0629    0.0365    0.0735    0.3890   -0.2180    0.0891
   117 N5     3py        0.0100   -0.0041    0.0266    0.0023    0.0039    0.0001   -0.0068   -0.1013    0.0359   -0.0168
   118 N5     4py       -0.0015   -0.0018    0.0104    0.0040    0.0039   -0.0006    0.0007    0.0071   -0.0023    0.0022
   119 N5     2pz       -0.0097    0.0105    0.0046   -0.0267   -0.0946   -0.0860    0.0093    0.0296   -0.0876    0.0902
   120 N5     3pz       -0.0101    0.0090    0.0185    0.0274    0.0333    0.0484    0.0053   -0.0118    0.0149   -0.0170
   121 N5     4pz        0.0041    0.0014    0.0041    0.0031   -0.0005    0.0019    0.0018    0.0032   -0.0008   -0.0006
   122 N5     3d2-       0.0036   -0.0010    0.0098   -0.0017   -0.0060   -0.0048   -0.0031   -0.0167    0.0052   -0.0006
   123 N5     3d1-      -0.0005   -0.0004   -0.0015    0.0015    0.0030   -0.0009    0.0019    0.0107   -0.0016    0.0003
   124 N5     3d0       -0.0029    0.0012   -0.0079    0.0003    0.0031    0.0060    0.0004    0.0029   -0.0015   -0.0005
   125 N5     3d1+      -0.0001    0.0003   -0.0148   -0.0017   -0.0044   -0.0040   -0.0006   -0.0033    0.0001    0.0017
   126 N5     3d2+      -0.0043    0.0017    0.0001    0.0007    0.0050    0.0106   -0.0003   -0.0002   -0.0007   -0.0016
   127 O7     1s         0.0014    0.0028   -0.0005   -0.0043    0.0023    0.0007    0.0137   -0.0011    0.0144    0.0215
   128 O7     2s        -0.0735   -0.3008    0.0002   -0.2073    0.0599    0.0302    0.3504   -0.0295    0.2411    0.3478
   129 O7     3s        -0.0003   -0.0080   -0.0019   -0.0196    0.0100    0.0004    0.0433   -0.0038    0.0400    0.0606
   130 O7     4s         0.0004    0.0000   -0.0006   -0.0033    0.0025   -0.0008    0.0086   -0.0009    0.0078    0.0128
   131 O7     2px       -0.0084   -0.0014   -0.0026   -0.0003    0.0263   -0.0335   -0.1785    0.0187   -0.1085   -0.2309
   132 O7     3px       -0.0017   -0.0002   -0.0032   -0.0063    0.0041    0.0017    0.0243   -0.0032    0.0098    0.0201
   133 O7     4px       -0.0004    0.0001   -0.0004   -0.0004    0.0002    0.0007    0.0024   -0.0002    0.0006    0.0011
   134 O7     2py        0.0110    0.0386   -0.0014   -0.0329    0.0254    0.0007    0.1579   -0.0052    0.2696    0.4074
   135 O7     3py       -0.0044   -0.0020   -0.0023    0.0142    0.0001   -0.0055   -0.0246   -0.0009   -0.0319   -0.0434
   136 O7     4py       -0.0009   -0.0018   -0.0006   -0.0003    0.0008    0.0002   -0.0028   -0.0001   -0.0037   -0.0065
   137 O7     2pz        0.0005    0.0019    0.0011    0.0024   -0.0011   -0.0000   -0.0042   -0.0008   -0.0054   -0.0018
   138 O7     3pz        0.0012    0.0037    0.0024   -0.0006   -0.0015    0.0017    0.0019   -0.0010   -0.0011   -0.0001
   139 O7     4pz        0.0005    0.0010    0.0008   -0.0002   -0.0003    0.0004    0.0006   -0.0004   -0.0000    0.0000
   140 O7     3d2-       0.0015    0.0036   -0.0000    0.0007   -0.0020    0.0024    0.0120   -0.0007    0.0104    0.0184
   141 O7     3d1-       0.0000   -0.0002   -0.0000   -0.0002   -0.0000    0.0002    0.0005   -0.0000   -0.0001   -0.0003
   142 O7     3d0        0.0011    0.0042   -0.0001    0.0015    0.0001   -0.0002    0.0051   -0.0007    0.0064    0.0119
   143 O7     3d1+       0.0001    0.0000    0.0001    0.0002    0.0001   -0.0001   -0.0001   -0.0001   -0.0001   -0.0001
   144 O7     3d2+       0.0007    0.0048   -0.0002   -0.0024    0.0045   -0.0031   -0.0014    0.0007    0.0107    0.0117
   145 O8     1s        -0.0236    0.0022    0.0033    0.0012    0.0034   -0.0004    0.0009    0.0128    0.0019    0.0020
   146 O8     2s         0.6699   -0.1428   -0.3272    0.1093    0.1516   -0.0013   -0.0061    0.3532    0.0344    0.0579
   147 O8     3s        -0.0298   -0.0039   -0.0118    0.0075    0.0148   -0.0028   -0.0000    0.0469    0.0057    0.0070
   148 O8     4s        -0.0129   -0.0005   -0.0007    0.0007    0.0018   -0.0011   -0.0009    0.0099    0.0011    0.0016
   149 O8     2px       -0.0210   -0.0084    0.0262    0.0160    0.0053   -0.0331   -0.0277    0.0045    0.0950   -0.0132
   150 O8     3px        0.0083   -0.0040   -0.0047   -0.0004   -0.0073   -0.0077    0.0022   -0.0051   -0.0052   -0.0027
   151 O8     4px       -0.0004   -0.0016   -0.0026    0.0003    0.0004   -0.0005    0.0005   -0.0002   -0.0020   -0.0003
   152 O8     2py        0.1289   -0.0278   -0.0285    0.0039   -0.0173   -0.0203   -0.0309   -0.1883    0.0426   -0.0625
   153 O8     3py       -0.0386    0.0013    0.0010    0.0052    0.0064    0.0013    0.0021    0.0275    0.0002    0.0042
   154 O8     4py       -0.0007   -0.0011    0.0013   -0.0002   -0.0012    0.0014   -0.0016    0.0035   -0.0006    0.0011
   155 O8     2pz        0.0573   -0.0002   -0.0230   -0.0161   -0.0171    0.0176    0.0099   -0.0609   -0.0653    0.0001
   156 O8     3pz       -0.0142    0.0040    0.0038   -0.0007    0.0065    0.0066   -0.0026    0.0113    0.0040    0.0030
   157 O8     4pz       -0.0002    0.0012    0.0022   -0.0010   -0.0002    0.0009   -0.0010    0.0013    0.0014    0.0001
   158 O8     3d2-      -0.0060    0.0002    0.0039    0.0012    0.0008   -0.0029   -0.0006    0.0015    0.0056   -0.0008
   159 O8     3d1-       0.0120   -0.0015   -0.0049   -0.0004   -0.0006    0.0013   -0.0001   -0.0054   -0.0029   -0.0008
   160 O8     3d0       -0.0061    0.0014    0.0017   -0.0014   -0.0010    0.0013    0.0010    0.0030   -0.0034    0.0017
[...]
AIVX     1  Mu1.0001  In1.023 Se1.045               0.20200050     -0.00036692      0.00069176     -0.00000025
AIVX     1  Mu1.0001  In1.024 Se1.045               0.26886380      0.00081651     -0.00140075     -0.00000114
AIVX     1  Mu1.0001  In1.025 Se1.045               0.13644471     -0.00016275      0.00022754     -0.00000004
AIVX     1  Mu1.0001  In1.026 Se1.045               0.23726044      0.00121790     -0.00277626     -0.00000338
AIVX     1  Mu1.0001  In1.027 Se1.045               0.21945498     -0.00013497      0.00071654     -0.00000010
AIVX     1  Mu1.0001  In1.028 Se1.045               0.08868270     -0.00039949      0.00091878     -0.00000037
AIVX     1  Mu1.0001  In1.029 Se1.045               0.06054406     -0.00008173      0.00022117     -0.00000002
AIVX     1  Mu1.0001  In1.021 Se1.046               0.26273681     -0.00079351      0.00111989     -0.00000089
AIVX     1  Mu1.0001  In1.022 Se1.046               0.16661007      0.00053347     -0.00073639     -0.00000039
AIVX     1  Mu1.0001  In1.023 Se1.046               0.23874747      0.00006291     -0.00043405     -0.00000003
AIVX     1  Mu1.0001  In1.025 Se1.046               0.17319168     -0.00007403      0.00002863     -0.00000000
AIVX     1  Mu1.0001  In1.026 Se1.046               0.27400742     -0.00136955      0.00250072     -0.00000342
AIVX     1  Mu1.0001  In1.027 Se1.046               0.25620196      0.00188287     -0.00303112     -0.00000571
AIVX     1  Mu1.0001  In1.028 Se1.046               0.12542968     -0.00083629      0.00196263     -0.00000164
AIVX     1  Mu1.0001  In1.029 Se1.046               0.09729104      0.00071563     -0.00152057     -0.00000109
AIVX     1  Mu1.0001  In1.021 Se1.047               0.24971191      0.00207674     -0.00333790     -0.00000693
AIVX     1  Mu1.0001  In1.022 Se1.047               0.15358516     -0.00044535      0.00050639     -0.00000023
AIVX     1  Mu1.0001  In1.023 Se1.047               0.22572257      0.00066859     -0.00123261     -0.00000082
AIVX     1  Mu1.0001  In1.024 Se1.047               0.29258587      0.00038430     -0.00143160     -0.00000055
AIVX     1  Mu1.0001  In1.025 Se1.047               0.16016678      0.00026157     -0.00039513     -0.00000010
AIVX     1  Mu1.0001  In1.026 Se1.047               0.26098252      0.00030106     -0.00059312     -0.00000018
AIVX     1  Mu1.0001  In1.027 Se1.047               0.24317705      0.00041139     -0.00081135     -0.00000033
AIVX     1  Mu1.0001  In1.028 Se1.047               0.11240477      0.00022918     -0.00011350     -0.00000003
AIVX     1  Mu1.0001  In1.029 Se1.047               0.08426613      0.00006093     -0.00004893     -0.00000000
AIVX     1  Mu1.0001  In1.022 Se1.048               0.25393213     -0.00041353      0.00060577     -0.00000025
AIVX     1  Mu1.0001  In1.025 Se1.048               0.26051375      0.00026093     -0.00028463     -0.00000007
AIVX     1  Mu1.0001  In1.028 Se1.048               0.21275174     -0.00049509      0.00074509     -0.00000037
AIVX     1  Mu1.0001  In1.029 Se1.048               0.18461310      0.00071295     -0.00107230     -0.00000076
AIVX     1  Mu1.0001  In1.021 Se1.049               0.28315660      0.00043827     -0.00095625     -0.00000042
AIVX     1  Mu1.0001  In1.022 Se1.049               0.18702985      0.00094666     -0.00155102     -0.00000147
AIVX     1  Mu1.0001  In1.023 Se1.049               0.25916726      0.00026645     -0.00076198     -0.00000020
AIVX     1  Mu1.0001  In1.025 Se1.049               0.19361147     -0.00022065      0.00026768     -0.00000006
AIVX     1  Mu1.0001  In1.026 Se1.049               0.29442721      0.00042300     -0.00046441     -0.00000020
AIVX     1  Mu1.0001  In1.027 Se1.049               0.27662174      0.00171098     -0.00286883     -0.00000491
AIVX     1  Mu1.0001  In1.028 Se1.049               0.14584946      0.00000671     -0.00025046     -0.00000000
AIVX     1  Mu1.0001  In1.029 Se1.049               0.11771082     -0.00053071      0.00151848     -0.00000081
AIVX     1  Mu1.0001  In1.021 Se1.050               0.28643098      0.00027342     -0.00035135     -0.00000010
AIVX     1  Mu1.0001  In1.022 Se1.050               0.19030424     -0.00037038      0.00033572     -0.00000012
AIVX     1  Mu1.0001  In1.023 Se1.050               0.26244165     -0.00014930      0.00050658     -0.00000008
AIVX     1  Mu1.0001  In1.025 Se1.050               0.19688586      0.00025170     -0.00039213     -0.00000010
AIVX     1  Mu1.0001  In1.026 Se1.050               0.29770159     -0.00079845      0.00117274     -0.00000094
AIVX     1  Mu1.0001  In1.027 Se1.050               0.27989613     -0.00382417      0.00588385     -0.00002250
AIVX     1  Mu1.0001  In1.028 Se1.050               0.14912385     -0.00067994      0.00127647     -0.00000087
AIVX     1  Mu1.0001  In1.029 Se1.050               0.12098521      0.00067439     -0.00132691     -0.00000089
AIVX     1  Mu1.0001  In1.022 Se1.051               0.21986294      0.00050313     -0.00071503     -0.00000036
AIVX     1  Mu1.0001  In1.023 Se1.051               0.29200035      0.00133056     -0.00217245     -0.00000289
AIVX     1  Mu1.0001  In1.025 Se1.051               0.22644456     -0.00015355      0.00028829     -0.00000004
AIVX     1  Mu1.0001  In1.028 Se1.051               0.17868255     -0.00060600      0.00046096     -0.00000028
AIVX     1  Mu1.0001  In1.029 Se1.051               0.15054391      0.00022925     -0.00022746     -0.00000005
AIVX     1  Mu1.0001  In1.022 Se1.052               0.24243601     -0.00101179      0.00147559     -0.00000149
AIVX     1  Mu1.0001  In1.025 Se1.052               0.24901763      0.00015783     -0.00024069     -0.00000004
AIVX     1  Mu1.0001  In1.028 Se1.052               0.20125563      0.00045088     -0.00090514     -0.00000041
AIVX     1  Mu1.0001  In1.029 Se1.052               0.17311699      0.00048605     -0.00100629     -0.00000049
AIVX     1  Mu1.0001  In1.022 Se1.053               0.28347301     -0.00102476      0.00159346     -0.00000163
AIVX     1  Mu1.0001  In1.025 Se1.053               0.29005463      0.00038935     -0.00068458     -0.00000027
AIVX     1  Mu1.0001  In1.028 Se1.053               0.24229262      0.00050737     -0.00092668     -0.00000047
AIVX     1  Mu1.0001  In1.029 Se1.053               0.21415398      0.00061735     -0.00165356     -0.00000102
AIVX     1  Mu1.0001  In1.022 Se1.054               0.26971678      0.00017073     -0.00003044     -0.00000001
AIVX     1  Mu1.0001  In1.025 Se1.054               0.27629840     -0.00037809      0.00048035     -0.00000018
AIVX     1  Mu1.0001  In1.028 Se1.054               0.22853640     -0.00029990      0.00098100     -0.00000029
AIVX     1  Mu1.0001  In1.029 Se1.054               0.20039776      0.00002274      0.00007655      0.00000000
AIVX     1  Mu1.0001  In1.028 Se1.055               0.26565614      0.00133915     -0.00233445     -0.00000313
AIVX     1  Mu1.0001  In1.029 Se1.055               0.23751750     -0.00065091      0.00146026     -0.00000095
AIVX     1  Mu1.0001  In1.022 Se1.056               0.29709926      0.00077754     -0.00095851     -0.00000075
AIVX     1  Mu1.0001  In1.028 Se1.056               0.25591887     -0.00141772      0.00246172     -0.00000349
AIVX     1  Mu1.0001  In1.029 Se1.056               0.22778023      0.00115666     -0.00244323     -0.00000283
AIVX     1  Mu1.0001  In1.028 Se1.057               0.27573728     -0.00175629      0.00296900     -0.00000521
AIVX     1  Mu1.0001  In1.029 Se1.057               0.24759864      0.00050713     -0.00083118     -0.00000042
AIVX     1  Mu1.0001  In1.029 Se1.058               0.28922279      0.00016845     -0.00021493     -0.00000004
AIVX     1  Mu1.0001  In1.028 Se1.059               0.29041897      0.00176342     -0.00267953     -0.00000473
AIVX     1  Mu1.0001  In1.029 Se1.059               0.26228033     -0.00077347      0.00160889     -0.00000124
AIVX     1  Mu1.0001  In1.029 Se1.061               0.27234675      0.00036014     -0.00036807     -0.00000013
AIVX     1  Mu1.0001  In1.018 Se1.209               0.29498978     -0.00009971      0.00069220     -0.00000007
AIVX     1  Mu1.0001  In1.021 Se1.209               0.23098702      0.00161720     -0.00295217     -0.00000477
AIVX     1  Mu1.0001  In1.022 Se1.209               0.13486028      0.00025951     -0.00084421     -0.00000022
AIVX     1  Mu1.0001  In1.023 Se1.209               0.20699769      0.00266064     -0.00530033     -0.00001410
AIVX     1  Mu1.0001  In1.024 Se1.209               0.27386099     -0.00018550     -0.00052169      0.00000010
AIVX     1  Mu1.0001  In1.025 Se1.209               0.14144190      0.00008677      0.00032101      0.00000003
AIVX     1  Mu1.0001  In1.026 Se1.209               0.24225763     -0.00089765      0.00208950     -0.00000188
AIVX     1  Mu1.0001  In1.027 Se1.209               0.22445217      0.00120802     -0.00228798     -0.00000276
AIVX     1  Mu1.0001  In1.028 Se1.209               0.09367989     -0.00010693      0.00028234     -0.00000003
AIVX     1  Mu1.0001  In1.029 Se1.209               0.06554125     -0.00004161      0.00019990     -0.00000001
--
 
   (Skipping property calculation,
    use PROP keyword to activate)
--
 
  Total CASPT2 energies:
::    CASPT2 Root  1     Total energy:   -455.21136071
::    CASPT2 Root  2     Total energy:   -455.01730957
::    CASPT2 Root  3     Total energy:   -454.99467332
::    CASPT2 Root  4     Total energy:   -454.94595690
::    CASPT2 Root  5     Total energy:   -454.92455382
::    CASPT2 Root  6     Total energy:   -454.94363062
::    CASPT2 Root  7     Total energy:   -454.91564529
 
++ Multi-State CASPT2 section:
********************************************************************************
  MULTI-STATE CASPT2 SECTION
--------------------------------------------------------------------------------
 
  Output diagonal energies have been shifted. Add   -455.000000000000     
 
  Effective Hamiltonian matrix (Symmetric):
 
                1               2               3               4               5
   1        -0.21136071
   2         0.00015660     -0.01730957
   3         0.00081223      0.00003519      0.00532668
   4         0.00356788     -0.00020471     -0.00059907      0.05404310
   5         0.00654455      0.00027594      0.00035457     -0.00811731      0.07544618
   6         0.01373832     -0.00107304     -0.00016399      0.00171427     -0.00382667
   7        -0.01241120     -0.00003808     -0.00149094      0.00081521      0.00376902
 
                6               7
   6         0.05636938
   7         0.01125934      0.08435471
 
       Total MS-CASPT2 energies:
::    MS-CASPT2 Root  1     Total energy:   -455.21285021
::    MS-CASPT2 Root  2     Total energy:   -455.01732560
::    MS-CASPT2 Root  3     Total energy:   -454.99470872
::    MS-CASPT2 Root  4     Total energy:   -454.94867042
::    MS-CASPT2 Root  5     Total energy:   -454.94733419
::    MS-CASPT2 Root  6     Total energy:   -454.92113657
::    MS-CASPT2 Root  7     Total energy:   -454.91110453
 
       Eigenvectors:
            0.99722696      0.00182759      0.00248098      0.01679262      0.06832592
           -0.00106047      0.99989118      0.00149785     -0.00016687     -0.01309665
           -0.00345020     -0.00148414      0.99972362     -0.00868310      0.00943781
           -0.01387275      0.00217426      0.01100013      0.94807364      0.01573660
           -0.02430152     -0.00228412     -0.00521615      0.30395039      0.19467477
           -0.05299142      0.01418758     -0.00253721     -0.08909546      0.92290967
            0.04398025     -0.00092803      0.01973902     -0.02179707     -0.32428815
 
            0.01042866     -0.02167310
            0.00585348     -0.00290768
            0.00960698     -0.01678712
           -0.31711631     -0.00527172
            0.91639250      0.17122409
           -0.22315721      0.29577826
           -0.09812021      0.93936668
 
--
 
  THE ORIGINAL CI ARRAYS ARE NOW MIXED AS LINEAR
  COMBINATIONS, GIVEN BY THE EIGENVECTORS.
  A NEW JOBIPH FILE NAMED 'JOBMIX' IS PREPARED.
********************************************************************************
 
++ Mixed CI coefficients:
  The CI coefficients for the MIXED state nr.   1
--------------------------------------------------------------------------------
 CI COEFFICIENTS LARGER THAN  0.50D-01
  Occupation of active orbitals, and spin coupling
  of open shells. (u,d: Spin up or down).
  SGUGA info is (Midvert:IsyUp:UpperWalk/LowerWalk)
        Conf  SGUGA info        Occupation    Coefficient         Weight
           1  ( 1:1:   1/   1)   22222200        0.971680       0.944162
           6  ( 1:1:   6/   1)   22220220       -0.077968       0.006079
           7  ( 1:1:   7/   1)   22222u0d       -0.051783       0.002681
          15  ( 1:1:  15/   1)   22222002       -0.092593       0.008573
          64  ( 2:1:   4/   3)   2u22220d       -0.080260       0.006442
          81  ( 2:1:   1/   4)   u22222d0       -0.104842       0.010992
         175  ( 3:1:   5/   8)   20222202       -0.093820       0.008802
         191  ( 3:1:   1/  10)   02222220       -0.079536       0.006326
 
  The CI coefficients for the MIXED state nr.   2
--------------------------------------------------------------------------------
 CI COEFFICIENTS LARGER THAN  0.50D-01
  Occupation of active orbitals, and spin coupling
  of open shells. (u,d: Spin up or down).
  SGUGA info is (Midvert:IsyUp:UpperWalk/LowerWalk)
        Conf  SGUGA info        Occupation    Coefficient         Weight
          24  ( 2:1:   4/   1)   222u220d        0.961738       0.924940
          32  ( 2:1:  12/   1)   222u022d       -0.075151       0.005648
          33  ( 2:1:  13/   1)   222u2d02        0.100171       0.010034
         125  ( 3:1:   5/   3)   2u2d2202        0.188744       0.035624
         213  ( 4:1:   1/   3)   u22u22dd        0.086247       0.007439
         269  ( 5:1:   1/   9)   022u222d        0.080237       0.006438
 
  The CI coefficients for the MIXED state nr.   3
--------------------------------------------------------------------------------
 CI COEFFICIENTS LARGER THAN  0.50D-01
  Occupation of active orbitals, and spin coupling
  of open shells. (u,d: Spin up or down).
  SGUGA info is (Midvert:IsyUp:UpperWalk/LowerWalk)
        Conf  SGUGA info        Occupation    Coefficient         Weight
          21  ( 2:1:   1/   1)   222u22d0       -0.106678       0.011380
          41  ( 2:1:   1/   2)   22u222d0        0.947545       0.897841
          43  ( 2:1:   3/   2)   22u2d220       -0.156855       0.024604
          45  ( 2:1:   5/   2)   22u22dud       -0.062891       0.003955
          47  ( 2:1:   7/   2)   22u22udd        0.111437       0.012418
          55  ( 2:1:  15/   2)   22u220d2        0.077058       0.005938
         161  ( 3:1:   1/   7)   u2d22220        0.132105       0.017452
         219  ( 4:1:   1/   4)   2uu222dd       -0.070999       0.005041
         222  ( 4:1:   4/   4)   2uu22dd2       -0.058027       0.003367
         294  ( 5:1:   2/  15)   20u222d2       -0.101979       0.010400
 
  The CI coefficients for the MIXED state nr.   4
--------------------------------------------------------------------------------
 CI COEFFICIENTS LARGER THAN  0.50D-01
  Occupation of active orbitals, and spin coupling
  of open shells. (u,d: Spin up or down).
  SGUGA info is (Midvert:IsyUp:UpperWalk/LowerWalk)
        Conf  SGUGA info        Occupation    Coefficient         Weight
           2  ( 1:1:   2/   1)   22222ud0        0.350492       0.122844
           3  ( 1:1:   3/   1)   2222u2d0        0.870275       0.757379
           6  ( 1:1:   6/   1)   22220220        0.055944       0.003130
           7  ( 1:1:   7/   1)   22222u0d       -0.139529       0.019468
          12  ( 1:1:  12/   1)   2222uudd        0.085286       0.007274
          18  ( 1:1:  18/   1)   2222u0d2        0.076198       0.005806
          67  ( 2:1:   7/   3)   2u222udd       -0.063148       0.003988
          68  ( 2:1:   8/   3)   2u22u2dd       -0.064336       0.004139
          81  ( 2:1:   1/   4)   u22222d0        0.069071       0.004771
          83  ( 2:1:   3/   4)   u222d220        0.200808       0.040324
         177  ( 3:1:   7/   8)   2022u2d2       -0.090364       0.008166
         191  ( 3:1:   1/  10)   02222220       -0.057047       0.003254
 
  The CI coefficients for the MIXED state nr.   5
--------------------------------------------------------------------------------
 CI COEFFICIENTS LARGER THAN  0.50D-01
  Occupation of active orbitals, and spin coupling
  of open shells. (u,d: Spin up or down).
  SGUGA info is (Midvert:IsyUp:UpperWalk/LowerWalk)
        Conf  SGUGA info        Occupation    Coefficient         Weight
           3  ( 1:1:   3/   1)   2222u2d0       -0.147090       0.021635
           7  ( 1:1:   7/   1)   22222u0d       -0.910420       0.828864
          14  ( 1:1:  14/   1)   22220u2d       -0.074806       0.005596
          15  ( 1:1:  15/   1)   22222002        0.174810       0.030558
          21  ( 2:1:   1/   1)   222u22d0       -0.110633       0.012240
          73  ( 2:1:  13/   3)   2u222d02       -0.230866       0.053299
          85  ( 2:1:   5/   4)   u2222dud        0.053888       0.002904
          87  ( 2:1:   7/   4)   u2222udd       -0.089577       0.008024
         175  ( 3:1:   5/   8)   20222202       -0.115505       0.013341
         193  ( 3:1:   3/  10)   02222u2d       -0.072891       0.005313
 
  The CI coefficients for the MIXED state nr.   6
--------------------------------------------------------------------------------
 CI COEFFICIENTS LARGER THAN  0.50D-01
  Occupation of active orbitals, and spin coupling
  of open shells. (u,d: Spin up or down).
  SGUGA info is (Midvert:IsyUp:UpperWalk/LowerWalk)
        Conf  SGUGA info        Occupation    Coefficient         Weight
           2  ( 1:1:   2/   1)   22222ud0       -0.875690       0.766834
           3  ( 1:1:   3/   1)   2222u2d0        0.343016       0.117660
          21  ( 2:1:   1/   1)   222u22d0        0.129220       0.016698
          27  ( 2:1:   7/   1)   222u2udd       -0.051938       0.002698
          65  ( 2:1:   5/   3)   2u222dud       -0.136858       0.018730
          67  ( 2:1:   7/   3)   2u222udd        0.189900       0.036062
          83  ( 2:1:   3/   4)   u222d220        0.074693       0.005579
         176  ( 3:1:   6/   8)   20222ud2        0.129106       0.016668
 
  The CI coefficients for the MIXED state nr.   7
--------------------------------------------------------------------------------
 CI COEFFICIENTS LARGER THAN  0.50D-01
  Occupation of active orbitals, and spin coupling
  of open shells. (u,d: Spin up or down).
  SGUGA info is (Midvert:IsyUp:UpperWalk/LowerWalk)
        Conf  SGUGA info        Occupation    Coefficient         Weight
           2  ( 1:1:   2/   1)   22222ud0       -0.131633       0.017327
           3  ( 1:1:   3/   1)   2222u2d0        0.059137       0.003497
           7  ( 1:1:   7/   1)   22222u0d        0.108746       0.011826
          21  ( 2:1:   1/   1)   222u22d0       -0.890145       0.792358
          25  ( 2:1:   5/   1)   222u2dud       -0.210613       0.044358
          27  ( 2:1:   7/   1)   222u2udd        0.303412       0.092059
          41  ( 2:1:   1/   2)   22u222d0       -0.095743       0.009167
         210  ( 4:1:   4/   2)   2u2u2dd2       -0.073527       0.005406
         262  ( 5:1:   2/   7)   202u22d2        0.081972       0.006719
 
--
 
--- Stop Module: caspt2 at Wed Nov 13 20:41:40 2024 /rc=_RC_ALL_IS_WELL_ ---
*** files: xmldump
    saved to directory /home/pcaah4
--- Module caspt2 spent 6 minutes 53 seconds ---

.##################.
.# Happy landing! #.
.##################.

    Timing: Wall=662.24 User=577.73 System=76.01
******************************************************
*** WorkDir at /srv/COMMUNAL_SCRATCH/10396 cleaned ***
******************************************************
