   This run of MOLCAS is using the pymolcas driver

                             OPE
                             OPE          NMOL  CASOP  ENMOLC A   SO
                 OPE        NMOLC        AS  OP EN  MO LC     AS  OP
                OPENM       OL CA        SO  PE NM  OL CA     SOP EN
                OP EN      MO   LC       AS  OP ENMOL  CASO   PENMOL
                OP  EN     MO   LC       AS  OP EN     MO     LC ASO
               OP   E  NMOL  C  AS       OP  EN MO     LC     AS  OP
               OP  E   NMO   LC AS        OPEN  MO     LCASOP EN   M
               O  PEN   MO  LCA  SO
            OPE   NMO   L   CAS    OP
        OPENMOL  CASOP     ENMOL   CASOPE
     OPENMOLCA   SOPENMOLCASOPEN   MOLCASOPE
    OPENMOLCAS   OP           EN   MOL    CAS
    OPENMOLCAS       OP  ENM        O     LCA
    OPENMOLCAS    OPEN  MOLCASO     P  E  NMO
    OPENMOLCAS     OP               E  N  MOL
    OPENMOLCA   SO           PENM   O  L  CAS    OPEN    MO    LCAS
    OPENMOLCA   SOP           ENM   O  L  CAS   OP  EN  MOLC  AS   O
    OPENMOLCA   SOPE           NM      O  LCA   S      OP  EN MO
    OPENMOLC                AS         O  PEN   M      OL  CA  SOPE
    OPENMO        LCASOPE  NMOL        C  ASO   P      ENMOLC     AS
    OPE     NMO      LCA  SO     P     E   NM   OL  CA SO  PE N   MO
          OPENMOLCA            SOPE   NMO        LCAS  O    P  ENMO
     OPENMOLCASOPENMOLCASOPENMOLCASOPENMOLCA
        OPENMOLCASOPENMOLCASOPENMOLCASOPE
            OPENMOLCASOPENMOLCASOPENM
               OPENMOLCASOPENMOLCA        version: v23.06
                   OPENMOLCASO
                       OPE                tag:

 OpenMolcas is free software; you can redistribute it and/or modify it
 under the terms of the GNU Lesser General Public License version 2.1.
 OpenMolcas is distributed in the hope that it will be useful, but it
 is provided "as is" and without any express or implied warranties.
 For more details see the full text of the license in the file
 LICENSE or in <http://www.gnu.org/licenses/>.

                 Copyright (C) The OpenMolcas Authors
           For the author list and the recommended citation,
                   consult the file CONTRIBUTORS.md

           *************************************************
           * pymolcas version py2.24                       *
           *   build 4567b286dd94b1984b333a4ddf893180      *
           *   (after the EMIL interpreter by V. Veryazov) *
           *************************************************

configuration info
------------------
Host name: loginchem01.nottingham.ac.uk (Linux)
C Compiler ID: Intel
C flags: -std=gnu99 -gcc-sys -qopenmp
Fortran Compiler ID: Intel
Fortran flags: -fpp -i8 -heap-arrays -qopenmp
Definitions: _MOLCAS_;_I8_;_LINUX_
Parallel: OFF (GA=OFF)


   ------------------------------------------------------------------------------------------------------------
  |
  |              Project: orca_geometry_optimisation_225_135_BP86_def2-SVP_def2J_scf_cas1_ras12i11_cas2_ras12i8
  |       Submitted from: /home/pcaah4
  |         Scratch area: /srv/COMMUNAL_SCRATCH/10406
  |      Save outputs to: /home/pcaah4
  |               Molcas: /software/chemistry/openmolcas/openmolcas-23.06-openmp
  |
  | Scratch area is empty
  |
  |       MOLCAS_DRIVER = /software/chemistry/openmolcas/openmolcas-23.06-openmp/sbin/pymolcas
  | MOLCAS_KEEP_WORKDIR = NO
  |       MOLCAS_NPROCS = 1
  |       MOLCAS_SOURCE = /software/chemistry/openmolcas/openmolcas-23.06-openmp
  |    MOLCAS_STRUCTURE = 0
  |
   ------------------------------------------------------------------------------------------------------------

++ ---------   Input file   ---------

&SEWARD
TITLE
orca_geometry_optimisation_225_135_BP86_def2-SVP_def2J_scf_cas1_ras12i11
MULTIPOLES
2
SDIPOLE
ANGMOM
0 0 0
BASIS SET
C.ANO-S...4S3P1D.
C1            0.002660   -0.024654    0.046568 /Angstrom
C3            2.112661    1.261211   -0.025996 /Angstrom
C4            3.264450    1.096375   -1.027513 /Angstrom
C6            4.485373    2.148570   -2.906127 /Angstrom
C19          -0.600973   -1.424573    0.082184 /Angstrom
END OF BASIS
BASIS SET
N.ANO-S...4S3P1D.
N2            1.376866    0.018059    0.060399 /Angstrom
N5            3.424528    2.125252   -1.915196 /Angstrom
END OF BASIS
BASIS SET
O.ANO-S...4S3P1D.
O7           -0.691909    0.991885    0.015588 /Angstrom
O8            3.966733    0.083093   -1.013773 /Angstrom
END OF BASIS
BASIS SET
H.ANO-S...2S1P.
H9           -1.238934   -1.513470    0.984096 /Angstrom
H10          -1.266019   -1.547001   -0.795662 /Angstrom
H11           0.148314   -2.240311    0.087739 /Angstrom
H12           1.940303   -0.835273    0.015927 /Angstrom
H13           1.385338    2.053012   -0.299115 /Angstrom
H14           2.559576    1.543197    0.957271 /Angstrom
H15           2.771809    2.908828   -1.867538 /Angstrom
H16           4.077040    2.202404   -3.937464 /Angstrom
H17           5.173672    3.007161   -2.753292 /Angstrom
H18           5.055438    1.206793   -2.795548 /Angstrom
END OF BASIS
END OF INPUT

&RASSCF
TITLE
orca_geometry_optimisation_225_135_BP86_def2-SVP_def2J_scf_cas1_ras12i11
LUMORB
SPIN
1
SYMMETRY
1
NACTEL
12  0  0
INACTIVE
29
DELETED  ! delete Rydberg orbitals from an initial CAS(12,11) if done
3
FROZEN
0
RAS2
8
ITERATIONS
64 25
CIROOT
7 7
1 2 3 4 5 6 7
1 1 1 1 1 1 1
LEVSHFT
0.3
CIMX
20
FILEorb = /home/pcaah4/outputs/cas1_ras12i11_rasorb_files/orca_geometry_optimisation_225_135_BP86_def2-SVP_def2J_scf_cas1_ras12i11.RasOrb
ALTEr
3
 1 38 210
 1 39 211
 1 40 212
END OF INPUT

&RASSI
NROF JOBIPH
    1 7
    1 2 3 5 4 6 7
TOFILE
TRDI
TDMN
1.0D-6
END OF INPUT

&CASPT2
TITLE
orca_geometry_optimisation_225_135_BP86_def2-SVP_def2J_scf_cas1_ras12i11
MULTISTATE
7 1 2 3 4 5 6 7
SHIFT
0.35
MAXITER
50
END OF INPUT

-- ----------------------------------

--- Start Module: seward at Wed Nov 13 21:00:34 2024 ---
 
()()()()()()()()()()()()()()()()()()()()()()()()()()()()()()()()()()()()()()()()()()()()()()()()()()

                                              &SEWARD

                                   only a single process is used
                       available to each process: 2.0 GB of memory, 1 thread
                                            pid: 1804056
()()()()()()()()()()()()()()()()()()()()()()()()()()()()()()()()()()()()()()()()()()()()()()()()()()
 
               SEWARD will generate:
                  Multipole Moment integrals up to order  2
                  Kinetic Energy integrals
                  Nuclear Attraction integrals (point charge)
                  One-Electron Hamiltonian integrals
                  Velocity integrals
                  Orbital angular momentum around ( 0.0000  0.0000  0.0000 )
                  Velocity quadrupole around ( 3.6546  1.3181 -1.4295 )
                  Two-Electron Repulsion integrals
 
 Title:
            orca_geometry_optimisation_225_135_BP86_def2-SVP_def2J_scf_cas1_ras12i11    
 
 
                   Integrals are discarded if absolute value <: 0.10E-13
                   Integral cutoff threshold is set to       <: 0.10E-15
 
++    Symmetry information:
      ---------------------
 
                    Character Table for C1 
 
                             E  
                    a        1  x, y, xy, Rz, z, xz, Ry, yz, Rx, I
--
 
 
++    Basis set information:
      ----------------------
 
 
      Basis set label: C.ANO-S...4S3P1D......
 
      Electronic valence basis set:
      ------------------
      Associated Effective Charge   6.000000 au
      Associated Actual Charge      6.000000 au
      Nuclear Model: Point charge
 
      Shell  nPrim  nBasis  Cartesian Spherical Contaminant
         s      10       4        X                  
         p       6       3        X                  
         d       3       1                 X         
 
 
      Basis set label: N.ANO-S...4S3P1D......
 
      Electronic valence basis set:
      ------------------
      Associated Effective Charge   7.000000 au
      Associated Actual Charge      7.000000 au
      Nuclear Model: Point charge
 
      Shell  nPrim  nBasis  Cartesian Spherical Contaminant
         s      10       4        X                  
         p       6       3        X                  
         d       3       1                 X         
 
 
      Basis set label: O.ANO-S...4S3P1D......
 
      Electronic valence basis set:
      ------------------
      Associated Effective Charge   8.000000 au
      Associated Actual Charge      8.000000 au
      Nuclear Model: Point charge
 
      Shell  nPrim  nBasis  Cartesian Spherical Contaminant
         s      10       4        X                  
         p       6       3        X                  
         d       3       1                 X         
 
 
      Basis set label: H.ANO-S...2S1P......
 
      Electronic valence basis set:
      ------------------
      Associated Effective Charge   1.000000 au
      Associated Actual Charge      1.000000 au
      Nuclear Model: Point charge
 
      Shell  nPrim  nBasis  Cartesian Spherical Contaminant
         s       7       2        X                  
         p       3       1        X                  
--
 
 
++    Molecular structure info:
      -------------------------
 
                    ************************************************ 
                    **** Cartesian Coordinates / Bohr, Angstrom **** 
                    ************************************************ 
 
     Center  Label                x              y              z                     x              y              z
        1      C1               0.005027      -0.046589       0.088001              0.002660      -0.024654       0.046568
        2      C3               3.992351       2.383343      -0.049125              2.112661       1.261211      -0.025996
        3      C4               6.168916       2.071848      -1.941718              3.264450       1.096375      -1.027513
        4      C6               8.476127       4.060209      -5.491784              4.485373       2.148570      -2.906127
        5      C19             -1.135674      -2.692053       0.155305             -0.600973      -1.424573       0.082184
        6      N2               2.601900       0.034127       0.114138              1.376866       0.018059       0.060399
        7      N5               6.471420       4.016144      -3.619196              3.424528       2.125252      -1.915196
        8      O7              -1.307519       1.874391       0.029457             -0.691909       0.991885       0.015588
        9      O8               7.496039       0.157023      -1.915753              3.966733       0.083093      -1.013773
       10      H9              -2.341246      -2.860044       1.859672             -1.238934      -1.513470       0.984096
       11      H10             -2.392429      -2.923408      -1.503583             -1.266019      -1.547001      -0.795662
       12      H11              0.280273      -4.233574       0.165803              0.148314      -2.240311       0.087739
       13      H12              3.666641      -1.578437       0.030098              1.940303      -0.835273       0.015927
       14      H13              2.617909       3.879630      -0.565245              1.385338       2.053012      -0.299115
       15      H14              4.836898       2.916220       1.808980              2.559576       1.543197       0.957271
       16      H15              5.237960       5.496888      -3.529135              2.771809       2.908828      -1.867538
       17      H16              7.704489       4.161940      -7.440729              4.077040       2.202404      -3.937464
       18      H17              9.776823       5.682711      -5.202968              5.173672       3.007161      -2.753292
       19      H18              9.553393       2.280508      -5.282820              5.055438       1.206793      -2.795548
 
                    ************************************************* 
                    **** InterNuclear Distances / Bohr, Angstrom **** 
                    ************************************************* 
 
     Atom centers         Bohr        Angstrom
   16 H15       7 N5      1.929284        1.020933
   13 H12       6 N2      1.934192        1.023530
   19 H18       4 C6      2.090814        1.106411
   12 H11       5 C19     2.093157        1.107651
   11 H10       5 C19     2.094008        1.108101
   10 H9        5 C19     2.094395        1.108306
   14 H13       2 C3      2.096269        1.109298
   17 H16       4 C6      2.098609        1.110536
   18 H17       4 C6      2.099462        1.110987
   15 H14       2 C3      2.109448        1.116272
    8 O7        1 C1      2.327309        1.231559
    9 O8        3 C4      2.329911        1.232936
    7 N5        3 C4      2.585677        1.368281
    6 N2        1 C1      2.598259        1.374939
    6 N2        2 C3      2.734745        1.447165
    7 N5        4 C6      2.743606        1.451854
    5 C19       1 C1      2.881702        1.524931
    3 C4        2 C3      2.901099        1.535195
   11 H10      10 H9      3.364241        1.780280
   15 H14      14 H13     3.389545        1.793670
   18 H17      17 H16     3.408050        1.803462
   19 H18      17 H16   
   12 H11      10 H9      3.410006        1.804497
   19 H18      18 H17     3.410466        1.804741
   12 H11      11 H10     3.412729        1.805939
   16 H15       3 C4      3.888119        2.057504
   14 H13       6 N2      3.905089        2.066484
   19 H18       7 N5      3.908790        2.068442
   13 H12       1 C1      3.969551        2.100596
   13 H12       2 C3      3.975936        2.103975
   17 H16       7 N5      4.018187        2.126333
   15 H14       6 N2      4.021712        2.128198
   18 H17       7 N5      4.026347        2.130651
   16 H15       4 C6      4.049909        2.143119
   15 H14       3 C4      4.068780        2.153106
   11 H10       1 C1      4.069032        2.153239
   10 H9        1 C1      4.069317        2.153390
   12 H11       1 C1      4.196744        2.220821
   14 H13       3 C4      4.215733        2.230870
   16 H15      14 H13     4.273737        2.261564
   13 H12      12 H11     4.305306        2.278270
    8 O7        6 N2      4.321724        2.286958
    9 O8        7 N5      4.341011        2.297164
   14 H13       8 O7      4.447880        2.353717
   19 H18       9 O8      4.480964        2.371224
    9 O8        2 C3      4.551553        2.408578
    8 O7        5 C19     4.571409        2.419085
    6 N2        3 C4      4.593742        2.430903
    6 N2        5 C19     4.626360        2.448164
   13 H12       9 O8      4.632758        2.451550
    7 N5        2 C3      4.642976        2.456957
    2 C3        1 C1      4.671416        2.472007
    4 C6        3 C4      4.677581        2.475269
   19 H18       3 C4      4.760376        2.519083
   14 H13       1 C1      4.761207        2.519522
   17 H16      16 H15     4.813150        2.547009
   16 H15       2 C3      4.832823        2.557420
   18 H17      16 H15     4.841232        2.561870
   13 H12       3 C4      4.845000        2.563864
   12 H11       6 N2      4.858589        2.571055
   14 H13       7 N5      4.918820        2.602928
   13 H12       5 C19     4.931334        2.609549
   15 H14      13 H12     4.973516        2.631871
   11 H10       8 O7      5.152293        2.726476
   10 H9        8 O7      5.180073        2.741176
    9 O8        6 N2      5.299826        2.804547
    8 O7        2 C3      5.324831        2.817779
   15 H14       9 O8      5.343953        2.827898
    9 O8        4 C6      5.383626        2.848892
   14 H13      13 H12     5.589703        2.957943
   19 H18      16 H15     5.660696        2.995511
--
 
 
            Nuclear Potential Energy            448.17179784 au
 
 
      Basis set specifications :
      Symmetry species         a  
      Basis functions          212
 
 
      Input file to MOLDEN was generated!
 
--- Stop Module: seward at Wed Nov 13 21:02:22 2024 /rc=_RC_ALL_IS_WELL_ ---
*** files: orca_geometry_optimisation_225_135_BP86_def2-SVP_def2J_scf_cas1_ras12i11_cas2_ras12i8.GssOrb
           orca_geometry_optimisation_225_135_BP86_def2-SVP_def2J_scf_cas1_ras12i11_cas2_ras12i8.guessorb.molden xmldump
    saved to directory /home/pcaah4
--- Module seward spent 1 minute 47 seconds ---

*** symbolic link created: INPORB -> orca_geometry_optimisation_225_135_BP86_def2-SVP_def2J_scf_cas1_ras12i11_cas2_ras12i8.GssOrb
--- Start Module: rasscf at Wed Nov 13 21:02:22 2024 ---
 
()()()()()()()()()()()()()()()()()()()()()()()()()()()()()()()()()()()()()()()()()()()()()()()()()()

                                              &RASSCF

                                   only a single process is used
                       available to each process: 2.0 GB of memory, 1 thread
                                            pid: 1804522
()()()()()()()()()()()()()()()()()()()()()()()()()()()()()()()()()()()()()()()()()()()()()()()()()()
 
 
      Header of the ONEINT file:
      --------------------------
      orca_geometry_optimisation_225_135_BP86_def2-SVP_def2J_scf_cas1_ras12i11
      Integrals generated by Gateway/Seward, Wed Nov 13 21:00:34 2024
 
 
      OrdInt status: non-squared
 
 
      Cartesian coordinates in Angstrom:
      -----------------------------------------------------
      No.  Label        X            Y            Z        
      -----------------------------------------------------
       1   C1         0.00266000  -0.02465400   0.04656800
       2   C3         2.11266100   1.26121100  -0.02599600
       3   C4         3.26445000   1.09637500  -1.02751300
       4   C6         4.48537300   2.14857000  -2.90612700
       5   C19       -0.60097300  -1.42457300   0.08218400
       6   N2         1.37686600   0.01805900   0.06039900
       7   N5         3.42452800   2.12525200  -1.91519600
       8   O7        -0.69190900   0.99188500   0.01558800
       9   O8         3.96673300   0.08309300  -1.01377300
      10   H9        -1.23893400  -1.51347000   0.98409600
      11   H10       -1.26601900  -1.54700100  -0.79566200
      12   H11        0.14831400  -2.24031100   0.08773900
      13   H12        1.94030300  -0.83527300   0.01592700
      14   H13        1.38533800   2.05301200  -0.29911500
      15   H14        2.55957600   1.54319700   0.95727100
      16   H15        2.77180900   2.90882800  -1.86753800
      17   H16        4.07704000   2.20240400  -3.93746400
      18   H17        5.17367200   3.00716100  -2.75329200
      19   H18        5.05543800   1.20679300  -2.79554800
      -----------------------------------------------------
      Nuclear repulsion energy =  448.17179784
 
++    Wave function specifications:
      -----------------------------
 
      Number of closed shell electrons          58
      Number of electrons in active shells      12
      Max number of holes in RAS1 space          0
      Max nr of electrons in RAS3 space          0
      Number of inactive orbitals               29
      Number of active orbitals                  8
      Number of secondary orbitals             172
      Spin quantum number                      0.0
      State symmetry                             1
--
 
++    Orbital specifications:
      -----------------------
 
      Symmetry species                           1
                                                 a
      Frozen orbitals                            0
      Inactive orbitals                         29
      Active orbitals                            8
      RAS1 orbitals                              0
      RAS2 orbitals                              8
      RAS3 orbitals                              0
      Secondary orbitals                       172
      Deleted orbitals                           3
      Number of basis functions                212
--
 
++    CI expansion specifications:
      ----------------------------
 
      Number of CSFs                           336
      Number of determinants                   406
      Number of root(s) required                 7
      Root chosen for geometry opt.              7
      CI roots used                              1     2     3     4     5     6     7
      weights                                0.143 0.143 0.143 0.143 0.143 0.143 0.143
      highest root included in the CI            7
      max. size of the explicit Hamiltonian    200
--
 
++    Optimization specifications:
      ----------------------------
 
      RASSCF algorithm: Conventional
      Maximum number of macro iterations        64
      Maximum number of SX iterations           25
      Threshold for RASSCF energy            0.100E-07
      Threshold for max MO rotation          0.100E+00
      Threshold for max BLB element          0.100E-03
      Level shift parameter                  0.300E+00
      Make Quasi-Newton update
--
 
      The MO-coefficients are taken from the file:
      /home/pcaah4/outputs/cas1_ras12i11_rasorb_files/orca_geometry_optimisation_225_135_BP86_def2-SVP_def2J_scf_cas1_ras12i11.RasOrb                                                                                                                                 
      Title: RASSCF average (pseudo-natural) orbitals                                      
 
      Total molecular charge    0.00
 
      Molecular orbitals exchanged:
        In symmetry  1 :  38 210
        In symmetry  1 :  39 211
        In symmetry  1 :  40 212
 
 
      ************************************************************************************************************************
      *                                                                                                                      *
      *                                            Wave function control section                                             *
      *                                                                                                                      *
      ************************************************************************************************************************
 
 
                                         RASSCF iterations: Energy and convergence statistics
                                         ----------------------------------------------------
 
      Iter CI   SX   CI       RASSCF       Energy    max ROT     max BLB   max BLB  Level Ln srch  Step   QN   Walltime
          iter iter root      energy       change     param      element    value   shift minimum  type update hh:mm:ss
 Nr of preliminary CI iterations:   4
        1   1   25    0  -453.68890239    0.00E+00  -0.40E-01   26  61 1 -0.17E-01*  0.14   0.00    SX    NO    0:00:13
        2   5    9    0  -453.70375558   -0.15E-01* -0.15E-01   13 209 1  0.69E-02*  0.14   0.00    SX    NO    0:00:06
        3   3   10    0  -453.70546819   -0.17E-02* -0.97E-02   23  66 1 -0.40E-02*  0.14   0.00    SX    NO    0:00:06
        4   7    9    0  -453.70629056   -0.82E-03*  0.60E-02   21  98 1 -0.16E-02*  0.14   0.00    SX    NO    0:00:06
        5   4    9    0  -453.70646165   -0.17E-03*  0.71E-02   21  82 1  0.87E-03*  0.15   1.17    QN   YES    0:00:06
        6   5    9    0  -453.70653763   -0.76E-04*  0.27E-02   30 113 1 -0.33E-03*  0.15   1.13    QN   YES    0:00:06
        7   5    8    0  -453.70654378   -0.61E-05*  0.17E-02   21  98 1 -0.26E-03*  0.15   1.09    QN   YES    0:00:06
        8   7    8    0  -453.70654545   -0.17E-05* -0.43E-03    1  40 1  0.89E-04   0.15   0.90    QN   YES    0:00:06
        9   5    7    0  -453.70654580   -0.35E-06* -0.32E-03   21  98 1 -0.95E-04   0.15   1.28    QN   YES    0:00:06
       10   3    7    0  -453.70654592   -0.12E-06* -0.66E-04    1  40 1 -0.26E-04   0.15   0.80    QN   YES    0:00:06
       11   1    6    0  -453.70654594   -0.24E-07* -0.62E-04   21  82 1  0.12E-04   0.15   1.25    QN   YES    0:00:06
       12   3    6    0  -453.70654595   -0.70E-08  -0.40E-04   21  99 1  0.36E-05   0.15   1.15    QN   YES    0:00:06
      Convergence after 12 iterations
       13   3    6    0  -453.70654595   -0.17E-08  -0.40E-04   37  66 1  0.14E-05   0.15   1.15    QN   YES    0:00:06
 
      ************************************************************************************************************************
                                                      Wave function printout:
                       occupation of active orbitals, and spin coupling of open shells (u,d: Spin up or down)
      ************************************************************************************************************************
 
      Note: transformation to natural orbitals
      has been made, which may change the order of the CSFs.
 
      printout of CI-coefficients larger than  0.05 for root  1
      energy=    -453.959550
      conf/sym  11111111     Coeff  Weight
             1  22222200  -0.96370 0.92872
             2  22222ud0  -0.13221 0.01748
             4  22222020   0.07819 0.00611
            17  22220202   0.08514 0.00725
            61  2u2222d0   0.07792 0.00607
            62  2u222d20  -0.06002 0.00360
            84  u222220d   0.09787 0.00958
           171  20222220   0.09827 0.00966
           195  02222202   0.07724 0.00597
 
      printout of CI-coefficients larger than  0.05 for root  2
      energy=    -453.744316
      conf/sym  11111111     Coeff  Weight
            21  222u22d0   0.95849 0.91870
            22  222u2d20  -0.09145 0.00836
            24  222u220d   0.09391 0.00882
            38  222u02d2   0.08299 0.00689
           121  2u2d2220   0.18220 0.03320
           213  u22u22dd  -0.08093 0.00655
           270  022u22d2  -0.07761 0.00602
 
      printout of CI-coefficients larger than  0.05 for root  3
      energy=    -453.734385
      conf/sym  11111111     Coeff  Weight
             7  22222u0d  -0.20696 0.04283
             8  2222u20d  -0.08446 0.00713
            24  222u220d  -0.07380 0.00545
            44  22u2220d  -0.92201 0.85011
            45  22u22dud  -0.06268 0.00393
            47  22u22udd  -0.11061 0.01223
            49  22u2202d   0.07785 0.00606
            54  22u2d202  -0.16830 0.02832
           165  u2d22202  -0.12155 0.01478
           219  2uu222dd  -0.06524 0.00426
           220  2uu22d2d   0.05049 0.00255
           293  20u2222d  -0.09428 0.00889
 
      printout of CI-coefficients larger than  0.05 for root  4
      energy=    -453.642585
      conf/sym  11111111     Coeff  Weight
             2  22222ud0   0.20009 0.04004
             7  22222u0d  -0.18480 0.03415
             8  2222u20d  -0.89304 0.79753
            12  2222uudd  -0.09034 0.00816
            13  2222u02d   0.07771 0.00604
            44  22u2220d   0.11911 0.01419
            62  2u222d20   0.05083 0.00258
            68  2u22u2dd  -0.06579 0.00433
            84  u222220d   0.08393 0.00704
            94  u222d202  -0.22767 0.05183
           174  2022u22d  -0.08894 0.00791
 
      printout of CI-coefficients larger than  0.05 for root  5
      energy=    -453.638573
      conf/sym  11111111     Coeff  Weight
             1  22222200   0.06902 0.00476
             2  22222ud0  -0.46212 0.21355
             4  22222020  -0.10094 0.01019
             7  22222u0d  -0.79783 0.63653
             8  2222u20d   0.07105 0.00505
            24  222u220d   0.06859 0.00470
            44  22u2220d   0.16574 0.02747
            62  2u222d20  -0.12034 0.01448
            64  2u22220d  -0.05151 0.00265
            65  2u222dud  -0.12467 0.01554
            67  2u222udd  -0.16627 0.02765
           171  20222220   0.05497 0.00302
           173  20222u2d  -0.10905 0.01189
 
      printout of CI-coefficients larger than  0.05 for root  6
      energy=    -453.619922
      conf/sym  11111111     Coeff  Weight
             1  22222200   0.09590 0.00920
             2  22222ud0  -0.76552 0.58602
             4  22222020  -0.15143 0.02293
             7  22222u0d   0.43962 0.19327
             8  2222u20d  -0.28550 0.08151
            19  22220ud2   0.07127 0.00508
            44  22u2220d  -0.06144 0.00378
            62  2u222d20  -0.19893 0.03957
            65  2u222dud   0.07498 0.00562
            67  2u222udd   0.11320 0.01281
            87  u2222udd   0.07299 0.00533
            94  u222d202  -0.07206 0.00519
           171  20222220   0.08392 0.00704
           173  20222u2d   0.07064 0.00499
           196  02222ud2   0.05676 0.00322
 
      printout of CI-coefficients larger than  0.05 for root  7
      energy=    -453.606491
      conf/sym  11111111     Coeff  Weight
            21  222u22d0  -0.08629 0.00745
            24  222u220d   0.89235 0.79629
            25  222u2dud  -0.22513 0.05068
            27  222u2udd  -0.31645 0.10014
            44  22u2220d  -0.08491 0.00721
           112  22ud22ud  -0.05227 0.00273
           201  22uu22dd   0.05357 0.00287
           208  2u2u2d2d   0.08027 0.00644
           261  202u222d   0.08247 0.00680
 
      Natural orbitals and occupation numbers for root  1
      sym 1:   1.971182   1.995416   1.999878   1.999850   1.994251   1.957400   0.047359   0.034664
 
      Natural orbitals and occupation numbers for root  2
      sym 1:   1.970877   1.999682   1.998386   1.001915   1.994763   1.999692   0.998675   0.036010
 
      Natural orbitals and occupation numbers for root  3
      sym 1:   1.999833   1.994280   1.008217   1.997759   1.998816   1.956108   0.050376   0.994611
 
      Natural orbitals and occupation numbers for root  4
      sym 1:   1.979975   1.973356   1.999551   1.999819   1.068742   1.927459   0.095659   0.955439
 
      Natural orbitals and occupation numbers for root  5
      sym 1:   1.995902   1.923123   1.990010   1.999267   1.987297   1.030651   0.094602   0.979148
 
      Natural orbitals and occupation numbers for root  6
      sym 1:   1.984947   1.947576   1.998459   1.999552   1.918931   1.069978   0.950876   0.129681
 
      Natural orbitals and occupation numbers for root  7
      sym 1:   1.999807   1.995446   1.996024   1.029822   1.998095   1.933216   0.073972   0.973618
 
      ************************************************************************************************************************
      *                                                                                                                      *
      *                                                    Final results                                                     *
      *                                                                                                                      *
      ************************************************************************************************************************
 
 
++    Wave function specifications:
      -----------------------------
 
      Number of closed shell electrons          58
      Number of electrons in active shells      12
      Max number of holes in RAS1 space          0
      Max nr of electrons in RAS3 space          0
      Number of inactive orbitals               29
      Number of active orbitals                  8
      Number of secondary orbitals             172
      Spin quantum number                      0.0
      State symmetry                             1
--
 
++    Orbital specifications:
      -----------------------
 
      Symmetry species                           1
                                                 a
      Frozen orbitals                            0
      Inactive orbitals                         29
      Active orbitals                            8
      RAS1 orbitals                              0
      RAS2 orbitals                              8
      RAS3 orbitals                              0
      Secondary orbitals                       172
      Deleted orbitals                           3
      Number of basis functions                212
--
 
++    CI expansion specifications:
      ----------------------------
 
      Number of CSFs                           336
      Number of determinants                   406
      Number of root(s) required                 7
      CI roots used                              1     2     3     4     5     6     7
      weights                                0.143 0.143 0.143 0.143 0.143 0.143 0.143
      highest root included in the CI            7
      Root passed to geometry opt.               7
--
 
++    Final optimization conditions:
      ------------------------------
 
      Average CI energy                            -453.70654595
      RASSCF energy for state  7                   -453.60649057
      Super-CI energy                                -0.00000000
      RASSCF energy change                            0.00000000
      Max change in MO coefficients               0.373E-04
      Max non-diagonal density matrix element    -0.404E-04
      Maximum BLB matrix element                  0.139E-05
      (orbital pair  37,  66 in symmetry   1)
      Norm of electronic gradient            0.384E+00
--
 
 
      Final state energy(ies):
      ------------------------
 
::    RASSCF root number  1 Total energy:   -453.95954984
::    RASSCF root number  2 Total energy:   -453.74431637
::    RASSCF root number  3 Total energy:   -453.73438520
::    RASSCF root number  4 Total energy:   -453.64258456
::    RASSCF root number  5 Total energy:   -453.63857316
::    RASSCF root number  6 Total energy:   -453.61992195
::    RASSCF root number  7 Total energy:   -453.60649057
 
++    Molecular orbitals:
      -------------------
 
      Pseudonatural active orbitals and approximate occupation numbers
 
 
 
 
      Molecular orbitals for symmetry species 1: a  
 
 
      Orbital                 1         2         3         4         5         6         7         8         9        10
      Energy           -20.6073  -20.5142  -15.6352  -15.5800  -11.3423  -11.2884  -11.2816  -11.2610  -11.2574   -1.4262
      Occ. No.           2.0000    2.0000    2.0000    2.0000    2.0000    2.0000    2.0000    2.0000    2.0000    2.0000
 
     1 C1     1s         0.0003    0.0000    0.0003   -0.0000    1.0000    0.0001   -0.0001   -0.0000   -0.0037   -0.0393
     2 C1     2s         0.0010    0.0003    0.0013   -0.0001    0.0022   -0.0005   -0.0003   -0.0003   -0.0005    0.3505
     3 C1     3s        -0.0004    0.0001    0.0006   -0.0001   -0.0001   -0.0005   -0.0002   -0.0003   -0.0008   -0.0063
     4 C1     4s        -0.0004    0.0000    0.0001   -0.0000    0.0013   -0.0002   -0.0001   -0.0001   -0.0003    0.0033
     5 C1     2px       -0.0014    0.0001    0.0017   -0.0003    0.0012   -0.0000   -0.0005   -0.0002   -0.0004   -0.0442
     6 C1     3px       -0.0010   -0.0000    0.0013   -0.0004    0.0012   -0.0004   -0.0006   -0.0002    0.0001    0.0308
     7 C1     4px        0.0001   -0.0001   -0.0001   -0.0001    0.0004   -0.0003   -0.0001   -0.0001    0.0002   -0.0135
     8 C1     2py        0.0030   -0.0001    0.0002   -0.0001    0.0011    0.0001   -0.0006   -0.0002   -0.0006    0.0950
     9 C1     3py        0.0020   -0.0001    0.0002   -0.0001    0.0009   -0.0005   -0.0006   -0.0003    0.0001   -0.0678
    10 C1     4py       -0.0004    0.0000    0.0000   -0.0000    0.0007   -0.0004   -0.0001   -0.0001    0.0003    0.0232
    11 C1     2pz       -0.0001   -0.0003    0.0001   -0.0000    0.0000    0.0000    0.0002    0.0000   -0.0000   -0.0021
    12 C1     3pz       -0.0000   -0.0003    0.0001   -0.0001    0.0000    0.0000    0.0002    0.0000   -0.0000    0.0000
    13 C1     4pz        0.0000   -0.0000    0.0000   -0.0000    0.0000    0.0000    0.0000    0.0000   -0.0000   -0.0011
    14 C1     3d2-       0.0001   -0.0000    0.0001    0.0000   -0.0004    0.0000   -0.0000   -0.0000    0.0001   -0.0334
    15 C1     3d1-       0.0000   -0.0000    0.0000   -0.0000   -0.0000   -0.0000    0.0000    0.0000    0.0000   -0.0016
    16 C1     3d0       -0.0000   -0.0000    0.0001   -0.0000   -0.0004   -0.0001    0.0000    0.0000    0.0001   -0.0281
    17 C1     3d1+      -0.0000   -0.0000   -0.0000   -0.0000    0.0000    0.0000    0.0000   -0.0000   -0.0000    0.0010
    18 C1     3d2+       0.0001    0.0000   -0.0002    0.0000   -0.0000    0.0000   -0.0000    0.0000   -0.0000   -0.0091
    19 C3     1s         0.0001    0.0000    0.0003    0.0001   -0.0001    0.9986   -0.0432    0.0000    0.0001   -0.0097
    20 C3     2s         0.0005    0.0002    0.0017    0.0004    0.0006   -0.0014   -0.0004    0.0006    0.0008    0.0151
    21 C3     3s         0.0003    0.0000    0.0008    0.0003    0.0003   -0.0027   -0.0004    0.0003    0.0005   -0.0191
    22 C3     4s         0.0000   -0.0001    0.0001    0.0000   -0.0000    0.0007   -0.0001    0.0000    0.0001   -0.0019
    23 C3     2px       -0.0000   -0.0005   -0.0003    0.0003    0.0008   -0.0008   -0.0002    0.0001    0.0002   -0.0221
    24 C3     3px        0.0002   -0.0005    0.0002    0.0002    0.0012   -0.0008   -0.0008   -0.0002    0.0004   -0.0111
    25 C3     4px        0.0002   -0.0001    0.0002   -0.0001    0.0004   -0.0005   -0.0002   -0.0002    0.0001   -0.0057
    26 C3     2py       -0.0002    0.0009   -0.0003   -0.0006    0.0005   -0.0001    0.0001    0.0001   -0.0001   -0.0195
    27 C3     3py       -0.0001    0.0008    0.0002   -0.0005    0.0006    0.0001   -0.0000    0.0002    0.0000   -0.0049
    28 C3     4py        0.0000    0.0000    0.0002    0.0000    0.0001   -0.0008   -0.0001    0.0000    0.0001   -0.0047
    29 C3     2pz        0.0003   -0.0009   -0.0002    0.0005   -0.0003    0.0002   -0.0001   -0.0004    0.0001    0.0006
    30 C3     3pz        0.0003   -0.0007   -0.0004    0.0006   -0.0004   -0.0000    0.0003   -0.0004    0.0001    0.0035
    31 C3     4pz        0.0000    0.0001   -0.0001    0.0001   -0.0001   -0.0001    0.0001    0.0000    0.0000    0.0017
    32 C3     3d2-       0.0001    0.0000    0.0000   -0.0000    0.0000   -0.0001   -0.0000    0.0000    0.0000    0.0033
    33 C3     3d1-      -0.0000   -0.0001   -0.0000   -0.0000   -0.0000    0.0000    0.0001    0.0000   -0.0000   -0.0001
    34 C3     3d0       -0.0000    0.0000    0.0001   -0.0000   -0.0000    0.0000    0.0000    0.0000   -0.0000   -0.0025
    35 C3     3d1+       0.0000   -0.0001    0.0000   -0.0000    0.0000    0.0001    0.0001   -0.0001    0.0000   -0.0010
    36 C3     3d2+      -0.0000   -0.0000    0.0001   -0.0000    0.0000    0.0000    0.0001    0.0001   -0.0000   -0.0006
    37 C4     1s         0.0000    0.0003   -0.0001    0.0003   -0.0002    0.0432    0.9991    0.0004   -0.0001    0.0002
    38 C4     2s         0.0002    0.0011   -0.0008    0.0010   -0.0014    0.0009    0.0030   -0.0005   -0.0005    0.0311
    39 C4     3s         0.0001   -0.0003   -0.0005    0.0004   -0.0011    0.0003    0.0004   -0.0005   -0.0004    0.0104
    40 C4     4s        -0.0000   -0.0003   -0.0002    0.0001   -0.0004    0.0001    0.0015   -0.0002   -0.0001    0.0037
    41 C4     2px       -0.0001    0.0019    0.0003    0.0003    0.0002   -0.0007    0.0002    0.0001    0.0002   -0.0053
    42 C4     3px        0.0000    0.0011    0.0003    0.0002    0.0004   -0.0001    0.0000   -0.0004    0.0003   -0.0076
    43 C4     4px        0.0001   -0.0003    0.0001   -0.0000    0.0001    0.0002    0.0003   -0.0004    0.0001   -0.0025
    44 C4     2py       -0.0001   -0.0028   -0.0002    0.0011   -0.0001    0.0002    0.0007   -0.0004    0.0000   -0.0040
    45 C4     3py       -0.0001   -0.0020   -0.0000    0.0008   -0.0002    0.0003    0.0004   -0.0005   -0.0000    0.0018
    46 C4     4py       -0.0001    0.0003    0.0001   -0.0001   -0.0001    0.0002    0.0000   -0.0001   -0.0000    0.0004
    47 C4     2pz       -0.0002    0.0001    0.0002   -0.0012   -0.0001    0.0009   -0.0004    0.0002   -0.0002    0.0067
    48 C4     3pz       -0.0004    0.0002    0.0002   -0.0009   -0.0002    0.0006   -0.0002    0.0008   -0.0003    0.0071
    49 C4     4pz       -0.0001    0.0000   -0.0000    0.0001   -0.0000   -0.0001   -0.0002    0.0005   -0.0000    0.0023
    50 C4     3d2-       0.0000    0.0001    0.0001    0.0000    0.0000    0.0000   -0.0003   -0.0000    0.0000   -0.0013
    51 C4     3d1-      -0.0000   -0.0000    0.0000    0.0002    0.0000    0.0000   -0.0002   -0.0001    0.0000   -0.0008
    52 C4     3d0        0.0000    0.0001   -0.0001    0.0000    0.0000    0.0000   -0.0002   -0.0000    0.0000   -0.0007
    53 C4     3d1+      -0.0000   -0.0001   -0.0000   -0.0000    0.0000   -0.0000   -0.0000   -0.0000    0.0000   -0.0003
    54 C4     3d2+       0.0000    0.0000   -0.0001    0.0001    0.0000    0.0001   -0.0003   -0.0000    0.0000   -0.0005
    55 C6     1s         0.0000    0.0001   -0.0001    0.0003   -0.0001    0.0001   -0.0005    0.9997    0.0000    0.0003
    56 C6     2s         0.0002    0.0005   -0.0005    0.0014   -0.0005    0.0002   -0.0004    0.0001    0.0000    0.0058
    57 C6     3s         0.0001    0.0004   -0.0004    0.0003   -0.0004    0.0001   -0.0005   -0.0016   -0.0000    0.0053
    58 C6     4s        -0.0000    0.0001   -0.0001   -0.0001   -0.0001   -0.0000   -0.0002    0.0009   -0.0000    0.0022
    59 C6     2px        0.0001   -0.0001    0.0001   -0.0004    0.0002   -0.0003    0.0002   -0.0001    0.0001   -0.0048
    60 C6     3px        0.0001   -0.0001    0.0000    0.0001    0.0002   -0.0002    0.0002    0.0002    0.0000   -0.0041
    61 C6     4px       -0.0000   -0.0000   -0.0000    0.0002    0.0000    0.0000    0.0000   -0.0005   -0.0000   -0.0001
    62 C6     2py        0.0000   -0.0002   -0.0001    0.0001   -0.0001   -0.0001    0.0002    0.0001    0.0000    0.0000
    63 C6     3py        0.0001   -0.0001   -0.0001    0.0002   -0.0001   -0.0001    0.0004   -0.0001    0.0000   -0.0005
    64 C6     4py        0.0000    0.0001   -0.0000    0.0000    0.0000   -0.0000    0.0001   -0.0000    0.0000   -0.0006
    65 C6     2pz        0.0000    0.0003   -0.0002    0.0003   -0.0002   -0.0001   -0.0004   -0.0000    0.0000    0.0032
    66 C6     3pz        0.0000    0.0002   -0.0002   -0.0002   -0.0002   -0.0001   -0.0005   -0.0002   -0.0000    0.0035
    67 C6     4pz       -0.0000   -0.0000   -0.0000   -0.0002   -0.0000   -0.0000   -0.0001    0.0005   -0.0000    0.0010
    68 C6     3d2-      -0.0000   -0.0000   -0.0000    0.0001   -0.0000   -0.0000    0.0000    0.0000   -0.0000    0.0001
    69 C6     3d1-      -0.0000   -0.0000   -0.0000    0.0000   -0.0000    0.0000   -0.0001   -0.0000    0.0000    0.0000
    70 C6     3d0       -0.0000    0.0000   -0.0000    0.0000   -0.0000    0.0000    0.0000    0.0000   -0.0000    0.0002
    71 C6     3d1+       0.0000   -0.0000    0.0000    0.0001    0.0000   -0.0000   -0.0000    0.0001   -0.0000   -0.0003
    72 C6     3d2+      -0.0000    0.0000   -0.0000   -0.0000   -0.0000    0.0000   -0.0000   -0.0001   -0.0000    0.0003
    73 C19    1s         0.0002   -0.0000   -0.0000   -0.0000    0.0036    0.0002   -0.0000   -0.0000    1.0000   -0.0145
    74 C19    2s         0.0012   -0.0000   -0.0001   -0.0001    0.0005    0.0008   -0.0001   -0.0002    0.0019   -0.0134
    75 C19    3s         0.0007   -0.0000    0.0000   -0.0001    0.0002    0.0004   -0.0001   -0.0002   -0.0005   -0.0393
    76 C19    4s         0.0001   -0.0000   -0.0000   -0.0001    0.0001   -0.0000   -0.0001   -0.0001    0.0012   -0.0036
    77 C19    2px        0.0008    0.0000   -0.0003   -0.0000   -0.0002    0.0002    0.0001   -0.0000   -0.0002   -0.0110
    78 C19    3px        0.0005    0.0000   -0.0002    0.0000   -0.0003    0.0002    0.0001   -0.0000   -0.0001   -0.0080
    79 C19    4px       -0.0002    0.0000    0.0000    0.0000   -0.0000   -0.0000    0.0000    0.0000    0.0002    0.0076
    80 C19    2py       -0.0001   -0.0001    0.0004   -0.0001    0.0004    0.0002   -0.0001   -0.0001   -0.0003    0.0211
    81 C19    3py       -0.0003   -0.0000    0.0003   -0.0001   -0.0001    0.0001   -0.0001   -0.0001   -0.0000   -0.0057
    82 C19    4py       -0.0002    0.0000   -0.0001   -0.0000   -0.0001   -0.0001    0.0000   -0.0000    0.0004    0.0058
    83 C19    2pz       -0.0000   -0.0001    0.0000    0.0000    0.0000    0.0001   -0.0000   -0.0000    0.0000   -0.0001
    84 C19    3pz       -0.0000   -0.0001    0.0000    0.0000    0.0000    0.0001   -0.0000   -0.0000    0.0000    0.0007
    85 C19    4pz        0.0000    0.0000   -0.0000    0.0000   -0.0000   -0.0000   -0.0000    0.0000   -0.0000   -0.0001
    86 C19    3d2-       0.0001   -0.0000   -0.0000   -0.0000    0.0000    0.0001    0.0000   -0.0000   -0.0001    0.0003
    87 C19    3d1-       0.0000    0.0000   -0.0000   -0.0000    0.0000   -0.0000    0.0000    0.0000    0.0000   -0.0001
    88 C19    3d0       -0.0001   -0.0000   -0.0001    0.0000    0.0001   -0.0000    0.0000    0.0000    0.0001    0.0015
    89 C19    3d1+       0.0000    0.0000   -0.0000    0.0000   -0.0000   -0.0000   -0.0000    0.0000    0.0000    0.0000
    90 C19    3d2+       0.0001   -0.0000   -0.0000    0.0000   -0.0001   -0.0000    0.0000    0.0000    0.0001   -0.0070
    91 N2     1s         0.0001   -0.0000    0.9999   -0.0000   -0.0002    0.0001    0.0001    0.0000    0.0001   -0.0179
    92 N2     2s         0.0005   -0.0002    0.0003   -0.0001   -0.0001    0.0014    0.0004    0.0001    0.0006    0.1124
    93 N2     3s         0.0004   -0.0001   -0.0012   -0.0000   -0.0002    0.0007    0.0004    0.0001    0.0005   -0.0483
    94 N2     4s         0.0001    0.0000    0.0005   -0.0000    0.0001    0.0003    0.0001    0.0000    0.0001   -0.0115
    95 N2     2px        0.0002    0.0001    0.0007   -0.0002   -0.0002    0.0009    0.0002   -0.0001   -0.0004   -0.0310
    96 N2     3px        0.0002    0.0000    0.0008   -0.0002    0.0000    0.0008    0.0002   -0.0003   -0.0004    0.0148
    97 N2     4px        0.0000   -0.0001   -0.0001   -0.0000   -0.0002    0.0000   -0.0000   -0.0001    0.0001   -0.0059
    98 N2     2py       -0.0016    0.0002   -0.0007   -0.0002    0.0002    0.0009    0.0003   -0.0000   -0.0004    0.0378
    99 N2     3py       -0.0019    0.0002   -0.0001   -0.0003    0.0002    0.0009    0.0003   -0.0000   -0.0003    0.0166
   100 N2     4py       -0.0000    0.0000    0.0004   -0.0000   -0.0001    0.0002   -0.0000   -0.0000    0.0001   -0.0055
   101 N2     2pz       -0.0000    0.0004   -0.0000   -0.0001    0.0000   -0.0001    0.0001    0.0001   -0.0000    0.0002
   102 N2     3pz        0.0000    0.0006   -0.0001   -0.0001   -0.0000   -0.0002   -0.0000    0.0001   -0.0000    0.0013
   103 N2     4pz        0.0000    0.0001   -0.0001    0.0000   -0.0000   -0.0001    0.0000    0.0000    0.0000   -0.0004
   104 N2     3d2-       0.0001    0.0000   -0.0002   -0.0000   -0.0001   -0.0000    0.0000   -0.0000   -0.0000   -0.0027
   105 N2     3d1-       0.0000    0.0000    0.0000   -0.0000    0.0000    0.0000   -0.0000    0.0000    0.0000   -0.0003
   106 N2     3d0       -0.0000    0.0000   -0.0000    0.0000    0.0002    0.0001   -0.0000   -0.0000   -0.0001   -0.0027
   107 N2     3d1+      -0.0000    0.0000   -0.0000   -0.0000   -0.0000    0.0000   -0.0000    0.0000   -0.0000    0.0001
   108 N2     3d2+      -0.0000   -0.0000   -0.0000   -0.0000    0.0001   -0.0000    0.0000   -0.0000    0.0000    0.0048
   109 N5     1s         0.0000    0.0001    0.0001    0.9999    0.0001    0.0000   -0.0003    0.0001    0.0000   -0.0015
   110 N5     2s         0.0001    0.0010    0.0005    0.0005    0.0005    0.0001   -0.0003    0.0017    0.0001   -0.0003
   111 N5     3s         0.0000    0.0006    0.0003   -0.0011    0.0004    0.0001   -0.0004    0.0010    0.0001   -0.0050
   112 N5     4s         0.0000    0.0001    0.0001    0.0006    0.0001    0.0000    0.0000    0.0004    0.0000   -0.0011
   113 N5     2px       -0.0002   -0.0011    0.0003   -0.0007    0.0002    0.0000    0.0004    0.0007   -0.0001   -0.0012
   114 N5     3px       -0.0002   -0.0013    0.0004   -0.0004    0.0004    0.0001    0.0003    0.0007   -0.0001   -0.0023
   115 N5     4px       -0.0000    0.0000    0.0001    0.0003    0.0001    0.0001   -0.0001    0.0002   -0.0000   -0.0009
   116 N5     2py        0.0001    0.0008   -0.0001    0.0007    0.0000   -0.0002   -0.0002    0.0001    0.0000   -0.0026
   117 N5     3py        0.0001    0.0009   -0.0001    0.0003    0.0001   -0.0001   -0.0001   -0.0001    0.0000   -0.0015
   118 N5     4py       -0.0000    0.0000    0.0001   -0.0003    0.0000    0.0001   -0.0002   -0.0001   -0.0000   -0.0004
   119 N5     2pz        0.0001    0.0006   -0.0002    0.0002   -0.0003    0.0002   -0.0001   -0.0007    0.0000    0.0047
   120 N5     3pz        0.0002    0.0007   -0.0003    0.0001   -0.0005    0.0002   -0.0002   -0.0005   -0.0000    0.0071
   121 N5     4pz        0.0000   -0.0000   -0.0001   -0.0000   -0.0001   -0.0000    0.0002   -0.0001   -0.0000    0.0020
   122 N5     3d2-      -0.0000   -0.0000    0.0000   -0.0001    0.0000   -0.0000    0.0001    0.0000   -0.0000    0.0002
   123 N5     3d1-      -0.0000   -0.0000   -0.0000    0.0000   -0.0000   -0.0000    0.0001    0.0001   -0.0000   -0.0001
   124 N5     3d0       -0.0000    0.0000   -0.0000   -0.0001   -0.0000    0.0000   -0.0000   -0.0000   -0.0000    0.0002
   125 N5     3d1+       0.0000   -0.0001   -0.0000    0.0001    0.0000   -0.0000    0.0002    0.0001    0.0000   -0.0001
   126 N5     3d2+      -0.0000    0.0000   -0.0000   -0.0001   -0.0000   -0.0000   -0.0000    0.0000   -0.0000    0.0001
   127 O7     1s         0.9997    0.0000    0.0000   -0.0000   -0.0003   -0.0000    0.0000    0.0000    0.0001   -0.0237
   128 O7     2s        -0.0016    0.0000    0.0002   -0.0000    0.0004   -0.0001    0.0002    0.0000    0.0004    0.6941
   129 O7     3s        -0.0014   -0.0000    0.0001    0.0000   -0.0000   -0.0000    0.0001    0.0000    0.0003   -0.0342
   130 O7     4s         0.0000   -0.0000    0.0000    0.0000    0.0000    0.0000    0.0000    0.0000    0.0001   -0.0138
   131 O7     2px        0.0001    0.0000   -0.0003    0.0001    0.0004   -0.0001    0.0001    0.0000    0.0001    0.0888
   132 O7     3px       -0.0003    0.0000   -0.0004    0.0001   -0.0001   -0.0000    0.0001   -0.0000    0.0001   -0.0270
   133 O7     4px        0.0009    0.0000   -0.0001    0.0000    0.0001    0.0000    0.0000   -0.0000   -0.0000   -0.0017
   134 O7     2py       -0.0001   -0.0000   -0.0002    0.0000   -0.0006   -0.0000    0.0000   -0.0000   -0.0001   -0.1186
   135 O7     3py        0.0006   -0.0000   -0.0002    0.0000   -0.0003   -0.0000    0.0001   -0.0000   -0.0001    0.0363
   136 O7     4py       -0.0011   -0.0000    0.0001    0.0000   -0.0003   -0.0000    0.0000   -0.0000    0.0000    0.0001
   137 O7     2pz       -0.0000    0.0000   -0.0000   -0.0000    0.0001    0.0000   -0.0000    0.0000    0.0000    0.0062
   138 O7     3pz       -0.0000    0.0001   -0.0000   -0.0000    0.0000    0.0000   -0.0001   -0.0000    0.0000   -0.0007
   139 O7     4pz        0.0000    0.0000   -0.0000   -0.0000    0.0000    0.0000   -0.0000   -0.0000   -0.0000    0.0002
   140 O7     3d2-       0.0001   -0.0000    0.0000   -0.0000   -0.0002    0.0000   -0.0000    0.0000   -0.0000   -0.0183
   141 O7     3d1-       0.0000   -0.0000   -0.0000   -0.0000   -0.0000    0.0000   -0.0000    0.0000   -0.0000   -0.0009
   142 O7     3d0       -0.0000    0.0000   -0.0001   -0.0000   -0.0001   -0.0000    0.0000    0.0000   -0.0000   -0.0106
   143 O7     3d1+      -0.0000   -0.0000    0.0000   -0.0000    0.0000    0.0000    0.0000   -0.0000   -0.0000    0.0006
   144 O7     3d2+       0.0000   -0.0000   -0.0001    0.0000   -0.0001   -0.0000    0.0000    0.0000   -0.0000   -0.0060
   145 O8     1s        -0.0000    0.9997   -0.0000    0.0000    0.0000    0.0000   -0.0002   -0.0000    0.0000   -0.0014
   146 O8     2s        -0.0000   -0.0015   -0.0002    0.0002    0.0002    0.0002    0.0007   -0.0003    0.0001    0.0170
   147 O8     3s        -0.0001   -0.0015   -0.0002    0.0002    0.0002    0.0002    0.0001   -0.0001    0.0001   -0.0035
   148 O8     4s        -0.0000    0.0000   -0.0001    0.0000    0.0001    0.0000    0.0001   -0.0000    0.0000   -0.0010
   149 O8     2px        0.0000   -0.0001    0.0001   -0.0002   -0.0001   -0.0000   -0.0004   -0.0000   -0.0001   -0.0024
   150 O8     3px        0.0001    0.0003    0.0001   -0.0001   -0.0001    0.0000   -0.0002   -0.0000   -0.0001    0.0023
   151 O8     4px        0.0000   -0.0008   -0.0000    0.0001   -0.0000    0.0000   -0.0001   -0.0000   -0.0000    0.0000
   152 O8     2py        0.0001    0.0002   -0.0000   -0.0001    0.0001    0.0001    0.0007   -0.0001    0.0000    0.0020
   153 O8     3py        0.0001   -0.0005   -0.0001   -0.0002    0.0001    0.0001    0.0001   -0.0000   -0.0000   -0.0026
   154 O8     4py        0.0000    0.0011   -0.0000   -0.0001   -0.0000   -0.0000    0.0001    0.0000   -0.0000    0.0001
   155 O8     2pz        0.0000   -0.0000   -0.0001    0.0003    0.0000   -0.0001   -0.0001    0.0000    0.0001    0.0000
   156 O8     3pz        0.0000   -0.0000   -0.0002    0.0003   -0.0000   -0.0001    0.0000   -0.0000    0.0001   -0.0003
   157 O8     4pz        0.0000   -0.0000   -0.0000    0.0000   -0.0000   -0.0000    0.0000   -0.0000    0.0000   -0.0000
   158 O8     3d2-      -0.0000    0.0001    0.0000   -0.0000   -0.0000   -0.0000   -0.0002    0.0000   -0.0000   -0.0004
   159 O8     3d1-      -0.0000   -0.0000    0.0000    0.0000    0.0000   -0.0000    0.0000    0.0000    0.0000    0.0000
   160 O8     3d0       -0.0000    0.0001    0.0000   -0.0000   -0.0000   -0.0000   -0.0001    0.0000   -0.0000   -0.0003
   161 O8     3d1+       0.0000   -0.0001    0.0000   -0.0001   -0.0000   -0.0000    0.0001   -0.0000   -0.0000    0.0000
   162 O8     3d2+      -0.0000    0.0000   -0.0000    0.0000    0.0000   -0.0000   -0.0001    0.0000    0.0000   -0.0000
   163 H9     1s         0.0001    0.0002    0.0001   -0.0001   -0.0000   -0.0003   -0.0002    0.0000    0.0003    0.0145
   164 H9     2s         0.0001    0.0001    0.0000   -0.0000    0.0000   -0.0002   -0.0001   -0.0000   -0.0003    0.0038
   165 H9     2px       -0.0000    0.0000    0.0000   -0.0000    0.0000   -0.0000   -0.0000   -0.0000   -0.0000    0.0009
   166 H9     2py       -0.0001    0.0000   -0.0000    0.0000    0.0000   -0.0000   -0.0000    0.0000    0.0000    0.0012
   167 H9     2pz       -0.0000   -0.0000    0.0000    0.0000   -0.0000    0.0000    0.0000    0.0000    0.0001   -0.0007
   168 H10    1s         0.0001   -0.0002    0.0002   -0.0001    0.0001   -0.0001   -0.0001   -0.0001    0.0003    0.0148
   169 H10    2s         0.0000   -0.0002    0.0001   -0.0001    0.0001   -0.0001   -0.0001   -0.0001   -0.0003    0.0038
   170 H10    2px       -0.0000   -0.0000    0.0000   -0.0000    0.0000   -0.0000   -0.0000   -0.0000   -0.0000    0.0009
   171 H10    2py       -0.0001   -0.0000   -0.0000   -0.0000    0.0001   -0.0000   -0.0000   -0.0000    0.0000    0.0012
   172 H10    2pz        0.0000   -0.0000   -0.0000   -0.0000    0.0000   -0.0000   -0.0000   -0.0000   -0.0001    0.0006
   173 H11    1s        -0.0004   -0.0001    0.0005   -0.0001    0.0003   -0.0001   -0.0001   -0.0001    0.0004    0.0214
   174 H11    2s        -0.0003   -0.0000    0.0004   -0.0001    0.0001   -0.0001   -0.0001   -0.0001   -0.0002    0.0066
   175 H11    2px       -0.0000    0.0000   -0.0001    0.0000   -0.0000    0.0000    0.0000    0.0000    0.0001   -0.0002
   176 H11    2py       -0.0000   -0.0000    0.0000   -0.0000    0.0001    0.0000   -0.0000   -0.0000   -0.0000    0.0020
   177 H11    2pz       -0.0000    0.0000   -0.0000   -0.0000   -0.0000   -0.0000    0.0000    0.0000   -0.0000   -0.0000
   178 H12    1s        -0.0011    0.0002   -0.0010    0.0001    0.0001   -0.0001    0.0001   -0.0001   -0.0005    0.0369
   179 H12    2s        -0.0007    0.0002   -0.0007    0.0001   -0.0000   -0.0000    0.0001   -0.0000   -0.0003   -0.0017
   180 H12    2px        0.0001   -0.0000    0.0002    0.0000   -0.0001    0.0000   -0.0000    0.0000    0.0001   -0.0045
   181 H12    2py       -0.0000    0.0000   -0.0004    0.0000    0.0000    0.0000    0.0000   -0.0000   -0.0000    0.0040
   182 H12    2pz       -0.0000   -0.0000   -0.0000   -0.0000    0.0000    0.0000    0.0000   -0.0000    0.0000    0.0004
   183 H13    1s         0.0003   -0.0008   -0.0004    0.0005   -0.0003    0.0007   -0.0003   -0.0000    0.0001    0.0129
   184 H13    2s         0.0003   -0.0005   -0.0002    0.0004   -0.0001   -0.0000   -0.0002   -0.0000    0.0001   -0.0029
   185 H13    2px        0.0000   -0.0001    0.0000    0.0000   -0.0000    0.0000    0.0000    0.0000   -0.0000   -0.0004
   186 H13    2py       -0.0000    0.0000   -0.0000   -0.0001    0.0000   -0.0001   -0.0000   -0.0000   -0.0000   -0.0011
   187 H13    2pz        0.0000    0.0000    0.0000    0.0000   -0.0000   -0.0000   -0.0000   -0.0000   -0.0000    0.0006
   188 H14    1s         0.0002    0.0007   -0.0005   -0.0003   -0.0005    0.0009   -0.0001   -0.0000   -0.0002    0.0117
   189 H14    2s         0.0001    0.0004   -0.0002   -0.0002   -0.0004    0.0002    0.0000   -0.0000   -0.0001    0.0028
   190 H14    2px       -0.0000   -0.0001    0.0000   -0.0000    0.0000    0.0000    0.0001   -0.0000   -0.0000   -0.0006
   191 H14    2py       -0.0000   -0.0000    0.0000    0.0000    0.0000   -0.0000   -0.0000   -0.0000    0.0000   -0.0004
   192 H14    2pz       -0.0000   -0.0000    0.0000    0.0000    0.0001    0.0000   -0.0000    0.0000    0.0000   -0.0010
   193 H15    1s        -0.0003   -0.0013    0.0003   -0.0008    0.0001    0.0001    0.0004   -0.0001   -0.0001    0.0035
   194 H15    2s        -0.0002   -0.0007    0.0002   -0.0006    0.0000    0.0001    0.0001   -0.0000   -0.0001    0.0012
   195 H15    2px       -0.0000   -0.0001    0.0000   -0.0003   -0.0000    0.0000    0.0000    0.0000   -0.0000    0.0006
   196 H15    2py        0.0000    0.0001   -0.0000    0.0004    0.0000   -0.0000   -0.0001    0.0000    0.0000   -0.0004
   197 H15    2pz        0.0000   -0.0000    0.0000    0.0000    0.0000   -0.0000    0.0001   -0.0000    0.0000   -0.0003
   198 H16    1s         0.0000    0.0004   -0.0001   -0.0005   -0.0001   -0.0002   -0.0004    0.0005   -0.0000    0.0025
   199 H16    2s         0.0000    0.0002   -0.0001   -0.0002   -0.0001   -0.0001   -0.0003   -0.0001   -0.0000    0.0021
   200 H16    2px       -0.0000   -0.0000   -0.0000    0.0000   -0.0000   -0.0000   -0.0000   -0.0000    0.0000    0.0001
   201 H16    2py       -0.0000   -0.0000    0.0000    0.0000    0.0000    0.0000    0.0000   -0.0000   -0.0000   -0.0000
   202 H16    2pz        0.0000    0.0000   -0.0000   -0.0000   -0.0000   -0.0000   -0.0001    0.0000    0.0000    0.0001
   203 H17    1s        -0.0001    0.0003    0.0002   -0.0005   -0.0001    0.0002   -0.0003    0.0005   -0.0001    0.0029
   204 H17    2s        -0.0001    0.0002    0.0001   -0.0002   -0.0001    0.0001   -0.0003   -0.0001   -0.0000    0.0020
   205 H17    2px        0.0000   -0.0000   -0.0000    0.0000    0.0000    0.0000    0.0000   -0.0000    0.0000   -0.0001
   206 H17    2py        0.0000   -0.0000   -0.0000    0.0000    0.0000   -0.0000    0.0001    0.0000    0.0000   -0.0004
   207 H17    2pz        0.0000    0.0000    0.0000   -0.0000   -0.0000   -0.0000    0.0000    0.0000    0.0000   -0.0001
   208 H18    1s        -0.0001    0.0000   -0.0002   -0.0001   -0.0003    0.0001    0.0000    0.0010   -0.0000    0.0050
   209 H18    2s        -0.0001    0.0001   -0.0001   -0.0000   -0.0002    0.0001    0.0001    0.0001   -0.0000    0.0032
   210 H18    2px        0.0000    0.0000    0.0000   -0.0000    0.0000   -0.0000   -0.0000   -0.0001    0.0000   -0.0003
   211 H18    2py       -0.0000    0.0000   -0.0000    0.0000   -0.0000    0.0000   -0.0000    0.0001   -0.0000    0.0006
   212 H18    2pz       -0.0000   -0.0000    0.0000   -0.0000    0.0000    0.0000    0.0000    0.0000    0.0000   -0.0000
 
 
      Orbital                11        12        13        14        15        16        17        18        19        20
      Energy            -1.3578   -1.2544   -1.2110   -1.0292   -0.9707   -0.9142   -0.8185   -0.7756   -0.7185   -0.6945
      Occ. No.           2.0000    2.0000    2.0000    2.0000    2.0000    2.0000    2.0000    2.0000    2.0000    2.0000
 
     1 C1     1s         0.0037   -0.0086    0.0027   -0.0162   -0.0010    0.0068    0.0135    0.0018    0.0069    0.0028
     2 C1     2s         0.0132    0.1353    0.0061    0.2798   -0.0354   -0.0858   -0.3802   -0.0504   -0.2599   -0.0529
     3 C1     3s         0.0175    0.0018    0.0141   -0.0160   -0.0043    0.0124    0.0031    0.0001    0.0078    0.0171
     4 C1     4s         0.0053    0.0012    0.0044   -0.0045   -0.0021    0.0050    0.0023    0.0004    0.0039    0.0028
     5 C1     2px        0.0336    0.1527    0.0136   -0.0046    0.1041   -0.0953   -0.1295   -0.0089    0.1663    0.2526
     6 C1     3px        0.0202   -0.0400    0.0301   -0.0440   -0.0288    0.0354    0.0264   -0.0107   -0.0727   -0.0550
     7 C1     4px        0.0093    0.0275    0.0046   -0.0082    0.0112   -0.0068   -0.0089   -0.0027    0.0064    0.0172
     8 C1     2py        0.0093   -0.0322    0.0230   -0.1572    0.0591    0.0027   -0.0579    0.0324    0.0504   -0.1550
     9 C1     3py        0.0264    0.0464    0.0249    0.0158   -0.0524    0.0424    0.0104   -0.0025   -0.0043    0.0627
    10 C1     4py        0.0009   -0.0051    0.0050   -0.0247    0.0061    0.0035   -0.0073    0.0021   -0.0028   -0.0086
    11 C1     2pz        0.0023   -0.0046   -0.0029    0.0089    0.0028   -0.0058   -0.0068   -0.0001    0.0055    0.0013
    12 C1     3pz        0.0020   -0.0116   -0.0045    0.0047    0.0050   -0.0079   -0.0052   -0.0004    0.0026   -0.0024
    13 C1     4pz       -0.0001   -0.0016   -0.0015    0.0027    0.0012   -0.0024   -0.0004    0.0005    0.0017   -0.0007
    14 C1     3d2-       0.0030    0.0152   -0.0005    0.0082   -0.0089    0.0063   -0.0132    0.0068    0.0182    0.0063
    15 C1     3d1-       0.0000    0.0003    0.0000   -0.0004    0.0005   -0.0002    0.0002    0.0002    0.0007    0.0004
    16 C1     3d0        0.0005   -0.0067    0.0002   -0.0117   -0.0004    0.0048    0.0136    0.0016    0.0061    0.0021
    17 C1     3d1+       0.0001   -0.0005    0.0002    0.0003    0.0011   -0.0004   -0.0007    0.0005    0.0012   -0.0008
    18 C1     3d2+       0.0027    0.0272   -0.0015    0.0020    0.0155   -0.0129   -0.0097   -0.0007    0.0156    0.0162
    19 C3     1s        -0.0166   -0.0293   -0.0054    0.0328    0.0268   -0.0199    0.0085   -0.0053    0.0007   -0.0000
    20 C3     2s         0.0252    0.1757    0.0105   -0.2926   -0.2544    0.3177   -0.1062    0.0660   -0.0331    0.0421
    21 C3     3s        -0.0428   -0.0475   -0.0161    0.0551    0.0445   -0.0110    0.0175   -0.0104    0.0040   -0.0005
    22 C3     4s        -0.0059   -0.0101   -0.0018    0.0156    0.0108   -0.0042    0.0049   -0.0039    0.0024   -0.0020
    23 C3     2px        0.0246   -0.0564    0.0219   -0.0200   -0.0592    0.0161    0.0575   -0.1309   -0.2478    0.1075
    24 C3     3px        0.0080    0.0054    0.0191   -0.0224    0.0182    0.0293   -0.0084    0.0189    0.0342   -0.0148
    25 C3     4px        0.0075   -0.0057    0.0068   -0.0042    0.0006    0.0021    0.0029   -0.0078   -0.0036    0.0029
    26 C3     2py       -0.0327   -0.0951    0.0168    0.0078   -0.0360   -0.0320   -0.1431   -0.0025   -0.0210    0.2199
    27 C3     3py       -0.0028    0.0097   -0.0005   -0.0326    0.0130   -0.0219    0.0084    0.0072    0.0074   -0.0331
    28 C3     4py        0.0046   -0.0032    0.0024   -0.0117   -0.0074    0.0042   -0.0077    0.0070   -0.0020    0.0087
    29 C3     2pz        0.0021    0.0068   -0.0203    0.0114    0.0329    0.0503   -0.0010    0.0871    0.0628   -0.0839
    30 C3     3pz        0.0190    0.0141    0.0004   -0.0148   -0.0240    0.0306   -0.0058   -0.0160   -0.0108    0.0110
    31 C3     4pz       -0.0056    0.0096   -0.0008   -0.0083   -0.0062    0.0160   -0.0016    0.0030   -0.0019   -0.0001
    32 C3     3d2-       0.0009    0.0184    0.0036   -0.0031    0.0063   -0.0018    0.0045    0.0038    0.0155   -0.0219
    33 C3     3d1-       0.0054   -0.0022   -0.0027    0.0005   -0.0011    0.0013    0.0015   -0.0031   -0.0082    0.0025
    34 C3     3d0       -0.0021   -0.0106    0.0034    0.0037   -0.0055   -0.0029   -0.0023   -0.0079   -0.0128    0.0111
    35 C3     3d1+      -0.0023   -0.0038   -0.0022    0.0054    0.0090    0.0017   -0.0041    0.0112    0.0112   -0.0031
    36 C3     3d2+       0.0016   -0.0094    0.0007    0.0007   -0.0076   -0.0024   -0.0173   -0.0070   -0.0061    0.0180
    37 C4     1s        -0.0400    0.0069   -0.0057    0.0088    0.0143    0.0081    0.0025    0.0162    0.0026   -0.0024
    38 C4     2s         0.3613    0.0117    0.1193   -0.0950   -0.2253   -0.0615   -0.0184   -0.4065   -0.0673    0.0559
    39 C4     3s        -0.0082    0.0183    0.0074    0.0204    0.0105    0.0169    0.0071    0.0080    0.0036   -0.0019
    40 C4     4s         0.0016    0.0050    0.0021    0.0064    0.0037    0.0053    0.0018    0.0050    0.0030   -0.0023
    41 C4     2px        0.0724   -0.0434   -0.0024    0.0537    0.1076   -0.0056   -0.0070   -0.0159    0.1155   -0.0775
    42 C4     3px       -0.0281    0.0089    0.0517   -0.0388    0.0188    0.0663   -0.0075   -0.0107   -0.0461    0.0325
    43 C4     4px        0.0197   -0.0089    0.0045    0.0037    0.0171    0.0071   -0.0029   -0.0046    0.0019    0.0003
    44 C4     2py       -0.0639    0.0041    0.1500   -0.0253   -0.0690   -0.0672   -0.0180   -0.0933    0.0415    0.0145
    45 C4     3py        0.0596   -0.0318   -0.0367    0.0140    0.0322    0.0315   -0.0146    0.0177   -0.0207    0.0024
    46 C4     4py       -0.0183   -0.0018    0.0284   -0.0019   -0.0063   -0.0047   -0.0084   -0.0042    0.0026    0.0010
    47 C4     2pz       -0.0255    0.0165   -0.1038   -0.0381   -0.0545    0.0414    0.0111    0.0679   -0.1599    0.0781
    48 C4     3pz       -0.0149   -0.0099   -0.0285    0.0229   -0.0242   -0.1065    0.0105   -0.0058    0.0604   -0.0392
    49 C4     4pz       -0.0064    0.0032   -0.0243   -0.0049   -0.0103   -0.0059    0.0032    0.0066   -0.0058    0.0005
    50 C4     3d2-      -0.0330    0.0068    0.0170   -0.0002    0.0021   -0.0003    0.0059   -0.0061    0.0065   -0.0111
    51 C4     3d1-      -0.0091   -0.0009   -0.0206    0.0002    0.0062    0.0154   -0.0037    0.0131   -0.0093    0.0091
    52 C4     3d0       -0.0193    0.0048    0.0116   -0.0023   -0.0011    0.0018    0.0019   -0.0076    0.0014   -0.0041
    53 C4     3d1+      -0.0045   -0.0032   -0.0047    0.0082    0.0095   -0.0079    0.0015    0.0157    0.0029   -0.0001
    54 C4     3d2+      -0.0152    0.0053   -0.0068   -0.0049    0.0013    0.0146   -0.0025    0.0001   -0.0024    0.0006
    55 C6     1s        -0.0090    0.0054   -0.0345   -0.0145   -0.0367   -0.0430    0.0049    0.0081    0.0048   -0.0060
    56 C6     2s         0.0302    0.0206    0.1590    0.0696    0.2412    0.3809   -0.0317   -0.1091   -0.0418    0.0448
    57 C6     3s        -0.0131    0.0254   -0.0599   -0.0274   -0.0703   -0.0689    0.0141    0.0155    0.0123   -0.0173
    58 C6     4s        -0.0004    0.0072   -0.0100   -0.0049   -0.0152   -0.0141    0.0039    0.0042    0.0032   -0.0047
    59 C6     2px       -0.0153   -0.0050   -0.0771   -0.0170   -0.0137    0.0234   -0.0248   -0.1115   -0.0251    0.0760
    60 C6     3px        0.0029   -0.0081    0.0139    0.0029    0.0130    0.0015   -0.0004    0.0080    0.0062   -0.0122
    61 C6     4px       -0.0027   -0.0004   -0.0016    0.0031    0.0090    0.0146   -0.0030   -0.0092   -0.0010    0.0034
    62 C6     2py       -0.0066    0.0047   -0.0030   -0.0011    0.0050    0.0158    0.0041    0.1040   -0.0911    0.0636
    63 C6     3py       -0.0005    0.0038    0.0027   -0.0005    0.0065    0.0134   -0.0031   -0.0030    0.0086   -0.0052
    64 C6     4py       -0.0006    0.0002    0.0022    0.0001    0.0026    0.0018    0.0015    0.0054   -0.0052    0.0031
    65 C6     2pz        0.0185    0.0076    0.0723    0.0111    0.0060   -0.0266    0.0167    0.0296    0.0817   -0.1080
    66 C6     3pz       -0.0023    0.0129   -0.0151   -0.0070   -0.0197   -0.0037    0.0010   -0.0029   -0.0115    0.0154
    67 C6     4pz        0.0025    0.0014   -0.0002   -0.0020   -0.0109   -0.0143    0.0017    0.0047    0.0042   -0.0049
    68 C6     3d2-       0.0002    0.0003    0.0002   -0.0005   -0.0018   -0.0017   -0.0006   -0.0043    0.0004    0.0006
    69 C6     3d1-      -0.0007    0.0004    0.0005   -0.0004   -0.0003    0.0003    0.0008    0.0102   -0.0067    0.0039
    70 C6     3d0        0.0012   -0.0001    0.0046    0.0006    0.0001   -0.0016    0.0009   -0.0004    0.0024   -0.0034
    71 C6     3d1+      -0.0046    0.0005   -0.0204   -0.0042   -0.0059    0.0021   -0.0030   -0.0095   -0.0098    0.0148
    72 C6     3d2+       0.0020   -0.0000    0.0114    0.0022    0.0026   -0.0015    0.0021    0.0117    0.0006   -0.0049
    73 C19    1s         0.0008   -0.0101    0.0019   -0.0565    0.0428   -0.0207   -0.0131   -0.0038   -0.0092    0.0024
    74 C19    2s         0.0056    0.0008    0.0086    0.3027   -0.2749    0.1545    0.0730    0.0429    0.0965   -0.0032
    75 C19    3s         0.0071   -0.0284    0.0123   -0.1111    0.0799   -0.0352   -0.0354   -0.0067   -0.0170    0.0126
    76 C19    4s         0.0030   -0.0034    0.0042   -0.0236    0.0179   -0.0077   -0.0097   -0.0023   -0.0052    0.0035
    77 C19    2px        0.0019    0.0238   -0.0015    0.0543    0.0021   -0.0268   -0.0419   -0.0260   -0.0493    0.1362
    78 C19    3px       -0.0014   -0.0019   -0.0012    0.0048    0.0049   -0.0023    0.0024    0.0053    0.0122   -0.0129
    79 C19    4px       -0.0012    0.0004   -0.0008   -0.0077    0.0121   -0.0082   -0.0012   -0.0034   -0.0057    0.0032
    80 C19    2py        0.0056    0.0091    0.0072    0.0484   -0.0109   -0.0155   -0.0628   -0.0416   -0.2128   -0.0398
    81 C19    3py        0.0069   -0.0028    0.0084   -0.0301    0.0177   -0.0020    0.0111   -0.0007    0.0227    0.0104
    82 C19    4py        0.0003    0.0011    0.0002   -0.0127    0.0144   -0.0093   -0.0130   -0.0026   -0.0088   -0.0011
    83 C19    2pz        0.0034   -0.0011    0.0007   -0.0024    0.0003    0.0027    0.0004   -0.0005    0.0079   -0.0013
    84 C19    3pz        0.0032   -0.0000    0.0011   -0.0015   -0.0014    0.0030    0.0000   -0.0022   -0.0017   -0.0002
    85 C19    4pz       -0.0001    0.0005    0.0003   -0.0001   -0.0009    0.0006    0.0007    0.0002    0.0000    0.0002
    86 C19    3d2-       0.0006    0.0060   -0.0003    0.0107   -0.0019   -0.0026   -0.0072   -0.0033   -0.0136    0.0006
    87 C19    3d1-      -0.0001    0.0002   -0.0000   -0.0005    0.0003   -0.0000    0.0002    0.0003    0.0009   -0.0002
    88 C19    3d0       -0.0001   -0.0008    0.0001   -0.0089    0.0037    0.0006    0.0033    0.0027    0.0080   -0.0088
    89 C19    3d1+      -0.0003    0.0001    0.0000   -0.0003   -0.0001    0.0001    0.0004    0.0002    0.0001   -0.0002
    90 C19    3d2+       0.0004    0.0021   -0.0002   -0.0076    0.0049   -0.0009    0.0034    0.0024    0.0147    0.0039
    91 N2     1s        -0.0060   -0.0412    0.0015   -0.0043   -0.0045    0.0016   -0.0043    0.0003    0.0027   -0.0008
    92 N2     2s         0.0644    0.5862   -0.0305   -0.0228    0.2076   -0.1114    0.1531    0.0017    0.1233   -0.0606
    93 N2     3s        -0.0115   -0.0786    0.0021   -0.0121    0.0022   -0.0021   -0.0084    0.0006    0.0128   -0.0016
    94 N2     4s        -0.0031   -0.0253    0.0011   -0.0013   -0.0018    0.0009   -0.0033   -0.0003    0.0004    0.0003
    95 N2     2px        0.0185   -0.0367    0.0086   -0.1462   -0.0432    0.1176    0.3656    0.0083   -0.1130   -0.2690
    96 N2     3px        0.0114   -0.0181    0.0115    0.0236    0.0470   -0.0607   -0.1124   -0.0081    0.0027    0.0624
    97 N2     4px        0.0043    0.0005    0.0022   -0.0064    0.0076   -0.0049    0.0018   -0.0007   -0.0019    0.0063
    98 N2     2py       -0.0005   -0.0068    0.0041   -0.1183   -0.0501    0.1101   -0.2179    0.1390    0.2375   -0.2208
    99 N2     3py       -0.0111   -0.0486   -0.0027    0.0452    0.0528   -0.0566    0.0327   -0.0378   -0.0541    0.0310
   100 N2     4py       -0.0004   -0.0129   -0.0001   -0.0002    0.0050   -0.0052   -0.0088   -0.0024   -0.0013    0.0049
   101 N2     2pz       -0.0105    0.0023   -0.0002    0.0111    0.0073   -0.0070    0.0038    0.0194    0.0242   -0.0196
   102 N2     3pz       -0.0107    0.0129   -0.0003    0.0018   -0.0027   -0.0062    0.0134    0.0033   -0.0037    0.0028
   103 N2     4pz       -0.0021    0.0010    0.0001    0.0006    0.0004   -0.0004    0.0018    0.0015   -0.0010    0.0011
   104 N2     3d2-       0.0013    0.0071    0.0001   -0.0019   -0.0082    0.0087   -0.0072    0.0042    0.0066   -0.0033
   105 N2     3d1-      -0.0004   -0.0004   -0.0003    0.0011    0.0011   -0.0004    0.0012    0.0008   -0.0005   -0.0000
   106 N2     3d0       -0.0021   -0.0169    0.0010    0.0016   -0.0040    0.0014   -0.0005   -0.0006   -0.0019   -0.0000
   107 N2     3d1+      -0.0007   -0.0001    0.0002    0.0005   -0.0000   -0.0005   -0.0016    0.0006    0.0013    0.0003
   108 N2     3d2+       0.0011    0.0055    0.0002    0.0101    0.0062   -0.0110   -0.0186   -0.0051   -0.0023    0.0143
   109 N5     1s        -0.0202    0.0000   -0.0424   -0.0017    0.0015    0.0026   -0.0012   -0.0025    0.0022   -0.0019
   110 N5     2s         0.1344   -0.0247    0.5758    0.0418   -0.0125   -0.2228    0.0561    0.1763    0.0733   -0.1048
   111 N5     3s        -0.0505   -0.0008   -0.0793   -0.0046   -0.0018   -0.0156    0.0014    0.0033    0.0115   -0.0114
   112 N5     4s        -0.0120    0.0008   -0.0264   -0.0024   -0.0016   -0.0019    0.0003   -0.0013    0.0012   -0.0010
   113 N5     2px        0.0198   -0.0227   -0.0066    0.0461    0.0993    0.1008   -0.0102   -0.1064    0.1186   -0.1298
   114 N5     3px        0.0059   -0.0267   -0.0301    0.0051   -0.0356   -0.0771    0.0011    0.0286   -0.0206    0.0275
   115 N5     4px       -0.0060   -0.0042   -0.0079    0.0028    0.0013   -0.0046   -0.0004   -0.0051    0.0013    0.0003
   116 N5     2py       -0.0343    0.0067   -0.0063    0.0123    0.0513    0.0412    0.0412    0.3531   -0.1971    0.1020
   117 N5     3py        0.0107   -0.0031    0.0253    0.0012    0.0034    0.0001   -0.0017   -0.0908    0.0327   -0.0183
   118 N5     4py       -0.0019   -0.0019    0.0089    0.0035    0.0038   -0.0006    0.0003    0.0057   -0.0013    0.0017
   119 N5     2pz        0.0063    0.0213    0.0158   -0.0469   -0.1363   -0.1231   -0.0063   -0.1561    0.0257    0.0408
   120 N5     3pz       -0.0166    0.0304    0.0089    0.0129    0.0291    0.0662    0.0078    0.0386   -0.0020   -0.0130
   121 N5     4pz        0.0063    0.0052    0.0002   -0.0001   -0.0039    0.0030    0.0021    0.0004   -0.0003   -0.0011
   122 N5     3d2-      -0.0009    0.0006   -0.0014   -0.0016   -0.0020    0.0031   -0.0015   -0.0126    0.0026   -0.0012
   123 N5     3d1-      -0.0052    0.0009   -0.0128    0.0011    0.0057    0.0075    0.0014    0.0130   -0.0049    0.0010
   124 N5     3d0       -0.0007    0.0007    0.0027   -0.0009   -0.0008    0.0030   -0.0011   -0.0076    0.0013   -0.0008
   125 N5     3d1+       0.0004   -0.0006   -0.0139   -0.0014   -0.0043   -0.0058   -0.0001   -0.0022    0.0001    0.0018
   126 N5     3d2+      -0.0039    0.0012   -0.0017    0.0010    0.0057    0.0095    0.0005    0.0064   -0.0029   -0.0005
   127 O7     1s         0.0008    0.0023   -0.0006   -0.0044    0.0023    0.0003    0.0135    0.0004    0.0154    0.0210
   128 O7     2s        -0.0645   -0.3032    0.0074   -0.2083    0.0562    0.0283    0.3484   -0.0022    0.2563    0.3390
   129 O7     3s        -0.0013   -0.0099   -0.0022   -0.0202    0.0104   -0.0003    0.0426    0.0004    0.0429    0.0595
   130 O7     4s         0.0002   -0.0004   -0.0008   -0.0035    0.0027   -0.0007    0.0083   -0.0002    0.0085    0.0127
   131 O7     2px       -0.0074   -0.0024   -0.0032   -0.0021    0.0281   -0.0312   -0.1774    0.0073   -0.1157   -0.2285
   132 O7     3px       -0.0023   -0.0006   -0.0033   -0.0083    0.0036    0.0030    0.0229   -0.0003    0.0101    0.0202
   133 O7     4px       -0.0003    0.0002   -0.0004   -0.0009   -0.0001    0.0012    0.0020    0.0003    0.0005    0.0012
   134 O7     2py        0.0094    0.0389   -0.0021   -0.0340    0.0251    0.0034    0.1548    0.0098    0.2914    0.3946
   135 O7     3py       -0.0037   -0.0007   -0.0017    0.0131    0.0004   -0.0020   -0.0239   -0.0045   -0.0341   -0.0417
   136 O7     4py       -0.0010   -0.0017   -0.0003   -0.0007    0.0007    0.0009   -0.0028   -0.0006   -0.0042   -0.0064
   137 O7     2pz       -0.0011    0.0008    0.0004    0.0022    0.0006   -0.0008   -0.0055   -0.0006   -0.0107   -0.0137
   138 O7     3pz       -0.0007    0.0015    0.0013    0.0000    0.0002    0.0000    0.0025   -0.0004    0.0002    0.0015
   139 O7     4pz       -0.0002    0.0003    0.0005    0.0003    0.0002   -0.0001    0.0006   -0.0003    0.0000    0.0003
   140 O7     3d2-       0.0013    0.0036   -0.0001    0.0007   -0.0021    0.0024    0.0120    0.0002    0.0112    0.0181
   141 O7     3d1-       0.0001    0.0003    0.0000   -0.0001    0.0001   -0.0001    0.0003   -0.0000    0.0006    0.0010
   142 O7     3d0        0.0009    0.0042   -0.0003    0.0014    0.0001   -0.0002    0.0051   -0.0002    0.0070    0.0117
   143 O7     3d1+      -0.0001   -0.0001    0.0000    0.0001    0.0002   -0.0002   -0.0004   -0.0000   -0.0003   -0.0007
   144 O7     3d2+       0.0007    0.0048   -0.0003   -0.0025    0.0046   -0.0029   -0.0015    0.0009    0.0116    0.0110
   145 O8     1s        -0.0233    0.0024    0.0041    0.0007    0.0028    0.0003    0.0003    0.0124    0.0019    0.0006
   146 O8     2s         0.6653   -0.1490   -0.3294    0.1069    0.1546    0.0082   -0.0159    0.3514    0.0382    0.0294
   147 O8     3s        -0.0277   -0.0039   -0.0097    0.0059    0.0132    0.0006   -0.0019    0.0465    0.0065    0.0025
   148 O8     4s        -0.0124   -0.0004   -0.0001    0.0002    0.0014   -0.0002   -0.0013    0.0096    0.0015    0.0005
   149 O8     2px       -0.0750    0.0066    0.0354    0.0141    0.0123   -0.0176   -0.0097    0.0816    0.0665   -0.0116
   150 O8     3px        0.0242   -0.0030   -0.0041    0.0020   -0.0102   -0.0075    0.0005   -0.0157   -0.0042   -0.0013
   151 O8     4px        0.0007   -0.0005   -0.0022    0.0014   -0.0000   -0.0006    0.0002   -0.0016   -0.0011    0.0001
   152 O8     2py        0.1192   -0.0251   -0.0270    0.0032   -0.0149   -0.0199   -0.0128   -0.1670    0.0265   -0.0365
   153 O8     3py       -0.0362    0.0024    0.0014    0.0045    0.0060    0.0009   -0.0013    0.0246    0.0031    0.0022
   154 O8     4py       -0.0010   -0.0003    0.0008    0.0003   -0.0009    0.0009   -0.0020    0.0032    0.0006    0.0007
   155 O8     2pz       -0.0048    0.0099   -0.0134   -0.0185   -0.0125    0.0356    0.0121    0.0292   -0.0829    0.0375
   156 O8     3pz        0.0037    0.0055    0.0054   -0.0040    0.0022    0.0109   -0.0006   -0.0001    0.0036   -0.0013
   157 O8     4pz        0.0012    0.0019    0.0020   -0.0013   -0.0002    0.0012    0.0002    0.0004    0.0014   -0.0007
   158 O8     3d2-      -0.0162    0.0026    0.0068   -0.0003   -0.0003   -0.0009    0.0001    0.0066    0.0023    0.0002
   159 O8     3d1-      -0.0010    0.0008   -0.0010   -0.0018   -0.0017    0.0028    0.0003    0.0014   -0.0060    0.0031
   160 O8     3d0       -0.0104    0.0017    0.0037   -0.0004   -0.0002    0.0002   -0.0000    0.0047    0.0006    0.0005
   161 O8     3d1+       0.0005   -0.0004    0.0025    0.0006   -0.0003   -0.0026   -0.0006   -0.0025    0.0041   -0.0017
[...]
AIVX     1  Mu1.0001  In1.021 Se1.046               0.18862806      0.00023150     -0.00036015     -0.00000008
AIVX     1  Mu1.0001  In1.022 Se1.046               0.09731969      0.00020084     -0.00009125     -0.00000002
AIVX     1  Mu1.0001  In1.024 Se1.046               0.11874075     -0.00007904      0.00010671     -0.00000001
AIVX     1  Mu1.0001  In1.025 Se1.046               0.26771260      0.00019521     -0.00026446     -0.00000005
AIVX     1  Mu1.0001  In1.026 Se1.046               0.20623617      0.00017841     -0.00024245     -0.00000004
AIVX     1  Mu1.0001  In1.027 Se1.046               0.24166688      0.00031535     -0.00085664     -0.00000027
AIVX     1  Mu1.0001  In1.028 Se1.046               0.01481045     -0.00007042     -0.00006399      0.00000000
AIVX     1  Mu1.0001  In1.029 Se1.046               0.06272402     -0.00001280      0.00000079     -0.00000000
AIVX     1  Mu1.0001  In1.018 Se1.047               0.28261864     -0.00019888      0.00028963     -0.00000006
AIVX     1  Mu1.0001  In1.021 Se1.047               0.21633215     -0.00002745      0.00005676     -0.00000000
AIVX     1  Mu1.0001  In1.022 Se1.047               0.12502378     -0.00011455      0.00024534     -0.00000003
AIVX     1  Mu1.0001  In1.024 Se1.047               0.14644484     -0.00008487      0.00016331     -0.00000001
AIVX     1  Mu1.0001  In1.025 Se1.047               0.29541669      0.00018282     -0.00025507     -0.00000005
AIVX     1  Mu1.0001  In1.026 Se1.047               0.23394026     -0.00004347      0.00004125     -0.00000000
AIVX     1  Mu1.0001  In1.027 Se1.047               0.26937097      0.00012664     -0.00029102     -0.00000004
AIVX     1  Mu1.0001  In1.028 Se1.047               0.04251454      0.00001132     -0.00004753     -0.00000000
AIVX     1  Mu1.0001  In1.029 Se1.047               0.09042811     -0.00007528      0.00015474     -0.00000001
AIVX     1  Mu1.0001  In1.021 Se1.048               0.24079859     -0.00014115      0.00011703     -0.00000002
AIVX     1  Mu1.0001  In1.022 Se1.048               0.14949022      0.00007240     -0.00031323     -0.00000002
AIVX     1  Mu1.0001  In1.024 Se1.048               0.17091128      0.00007186     -0.00010151     -0.00000001
AIVX     1  Mu1.0001  In1.026 Se1.048               0.25840670     -0.00009219      0.00012511     -0.00000001
AIVX     1  Mu1.0001  In1.027 Se1.048               0.29383741      0.00006382      0.00019152      0.00000001
AIVX     1  Mu1.0001  In1.028 Se1.048               0.06698098      0.00028508     -0.00038722     -0.00000011
AIVX     1  Mu1.0001  In1.029 Se1.048               0.11489455     -0.00013898      0.00023255     -0.00000003
AIVX     1  Mu1.0001  In1.021 Se1.049               0.25137715      0.00037723     -0.00052758     -0.00000020
AIVX     1  Mu1.0001  In1.022 Se1.049               0.16006878      0.00002889      0.00029314      0.00000001
AIVX     1  Mu1.0001  In1.024 Se1.049               0.18148983     -0.00001465      0.00002170     -0.00000000
AIVX     1  Mu1.0001  In1.026 Se1.049               0.26898526     -0.00012699      0.00036117     -0.00000005
AIVX     1  Mu1.0001  In1.028 Se1.049               0.07755954     -0.00013384      0.00011959     -0.00000002
AIVX     1  Mu1.0001  In1.029 Se1.049               0.12547311      0.00008178     -0.00021400     -0.00000002
AIVX     1  Mu1.0001  In1.021 Se1.050               0.27159379      0.00040934     -0.00057940     -0.00000024
AIVX     1  Mu1.0001  In1.022 Se1.050               0.18028543      0.00000371      0.00006409      0.00000000
AIVX     1  Mu1.0001  In1.024 Se1.050               0.20170648      0.00004809     -0.00010957     -0.00000001
AIVX     1  Mu1.0001  In1.026 Se1.050               0.28920191      0.00007171     -0.00017281     -0.00000001
AIVX     1  Mu1.0001  In1.028 Se1.050               0.09777619      0.00002223     -0.00013763     -0.00000000
AIVX     1  Mu1.0001  In1.029 Se1.050               0.14568976      0.00031593     -0.00052651     -0.00000017
AIVX     1  Mu1.0001  In1.021 Se1.051               0.29200248      0.00010727     -0.00006188     -0.00000001
AIVX     1  Mu1.0001  In1.022 Se1.051               0.20069411     -0.00005185      0.00031071     -0.00000002
AIVX     1  Mu1.0001  In1.024 Se1.051               0.22211517     -0.00004635      0.00006976     -0.00000000
AIVX     1  Mu1.0001  In1.028 Se1.051               0.11818487     -0.00012443      0.00002881     -0.00000000
AIVX     1  Mu1.0001  In1.029 Se1.051               0.16609844      0.00006945     -0.00011065     -0.00000001
AIVX     1  Mu1.0001  In1.022 Se1.052               0.23384824      0.00011303     -0.00037530     -0.00000004
AIVX     1  Mu1.0001  In1.024 Se1.052               0.25526930     -0.00004486      0.00007882     -0.00000000
AIVX     1  Mu1.0001  In1.028 Se1.052               0.15133900      0.00000644      0.00009683      0.00000000
AIVX     1  Mu1.0001  In1.029 Se1.052               0.19925257      0.00012023     -0.00012820     -0.00000002
AIVX     1  Mu1.0001  In1.022 Se1.053               0.25104358     -0.00004382      0.00006357     -0.00000000
AIVX     1  Mu1.0001  In1.024 Se1.053               0.27246463     -0.00002878      0.00001945     -0.00000000
AIVX     1  Mu1.0001  In1.028 Se1.053               0.16853434      0.00005632     -0.00004187     -0.00000000
AIVX     1  Mu1.0001  In1.029 Se1.053               0.21644791     -0.00019195      0.00026748     -0.00000005
AIVX     1  Mu1.0001  In1.022 Se1.054               0.25771297      0.00018900     -0.00007605     -0.00000001
AIVX     1  Mu1.0001  In1.024 Se1.054               0.27913403      0.00009046     -0.00011233     -0.00000001
AIVX     1  Mu1.0001  In1.028 Se1.054               0.17520374     -0.00013409      0.00006510     -0.00000001
AIVX     1  Mu1.0001  In1.029 Se1.054               0.22311730      0.00002782     -0.00001202     -0.00000000
AIVX     1  Mu1.0001  In1.022 Se1.055               0.27177114     -0.00009030     -0.00000858      0.00000000
AIVX     1  Mu1.0001  In1.024 Se1.055               0.29319220      0.00006921     -0.00007705     -0.00000001
AIVX     1  Mu1.0001  In1.028 Se1.055               0.18926191      0.00013778     -0.00015909     -0.00000002
AIVX     1  Mu1.0001  In1.029 Se1.055               0.23717547      0.00006070     -0.00005261     -0.00000000
AIVX     1  Mu1.0001  In1.028 Se1.056               0.24525486     -0.00007655      0.00022141     -0.00000002
AIVX     1  Mu1.0001  In1.029 Se1.056               0.29316843      0.00014682     -0.00020044     -0.00000003
AIVX     1  Mu1.0001  In1.022 Se1.057               0.28704082      0.00039807     -0.00038592     -0.00000015
AIVX     1  Mu1.0001  In1.028 Se1.057               0.20453159     -0.00012215      0.00009464     -0.00000001
AIVX     1  Mu1.0001  In1.029 Se1.057               0.25244515     -0.00013458      0.00018959     -0.00000003
AIVX     1  Mu1.0001  In1.022 Se1.058               0.29432392      0.00024800     -0.00042886     -0.00000011
AIVX     1  Mu1.0001  In1.028 Se1.058               0.21181468      0.00022210     -0.00023710     -0.00000005
AIVX     1  Mu1.0001  In1.029 Se1.058               0.25972825     -0.00002431      0.00004448     -0.00000000
AIVX     1  Mu1.0001  In1.028 Se1.059               0.23782899      0.00033503     -0.00027510     -0.00000009
AIVX     1  Mu1.0001  In1.029 Se1.059               0.28574256      0.00005650     -0.00011775     -0.00000001
AIVX     1  Mu1.0001  In1.028 Se1.065               0.27377028     -0.00006085      0.00000789     -0.00000000
AIVX     1  Mu1.0001  In1.028 Se1.066               0.29190035     -0.00020434      0.00017635     -0.00000004
AIVX     1  Mu1.0001  In1.028 Se1.067               0.29426287     -0.00008667      0.00010488     -0.00000001
AIVX     1  Mu1.0001  In1.022 Se1.207               0.23734131     -0.00029776      0.00040251     -0.00000012
AIVX     1  Mu1.0001  In1.024 Se1.207               0.25876237      0.00011046     -0.00012770     -0.00000001
AIVX     1  Mu1.0001  In1.028 Se1.207               0.15483207     -0.00010866      0.00023149     -0.00000003
AIVX     1  Mu1.0001  In1.029 Se1.207               0.20274564      0.00008188     -0.00015415     -0.00000001
--
 
   (Skipping property calculation,
    use PROP keyword to activate)
--
 
  Total CASPT2 energies:
::    CASPT2 Root  1     Total energy:   -455.23164436
::    CASPT2 Root  2     Total energy:   -455.03480203
::    CASPT2 Root  3     Total energy:   -455.03682573
::    CASPT2 Root  4     Total energy:   -454.96596696
::    CASPT2 Root  5     Total energy:   -454.95911324
::    CASPT2 Root  6     Total energy:   -454.95667981
::    CASPT2 Root  7     Total energy:   -454.93093794
 
++ Multi-State CASPT2 section:
********************************************************************************
  MULTI-STATE CASPT2 SECTION
--------------------------------------------------------------------------------
 
  Output diagonal energies have been shifted. Add   -455.000000000000     
 
  Effective Hamiltonian matrix (Symmetric):
 
                1               2               3               4               5
   1        -0.23164436
   2        -0.00001623     -0.03480203
   3         0.00049967      0.00060742     -0.03682573
   4        -0.01149953      0.00006255     -0.00056897      0.03403304
   5         0.00941991     -0.00100330     -0.00091481     -0.00001829      0.04088676
   6         0.00872648     -0.00011797      0.00116902     -0.00094463     -0.01239779
   7        -0.00130182     -0.00058637      0.00098143     -0.00016906     -0.00080176
 
                6               7
   6         0.04332019
   7         0.00121155      0.06906206
 
       Total MS-CASPT2 energies:
::    MS-CASPT2 Root  1     Total energy:   -455.23277250
::    MS-CASPT2 Root  2     Total energy:   -455.03702793
::    MS-CASPT2 Root  3     Total energy:   -455.03465389
::    MS-CASPT2 Root  4     Total energy:   -454.97003683
::    MS-CASPT2 Root  5     Total energy:   -454.96517295
::    MS-CASPT2 Root  6     Total energy:   -454.94553062
::    MS-CASPT2 Root  7     Total energy:   -454.93077534
 
       Eigenvectors:
            0.99787856      0.00174873      0.00123316      0.03611599     -0.05393576
           -0.00011267     -0.26427584      0.96432433     -0.01192726      0.00408636
           -0.00241201      0.96424849      0.26422246     -0.00036015     -0.00763436
            0.04288767      0.00803373      0.00152676      0.25705339      0.96477981
           -0.03583736      0.00545335      0.01586268      0.71032336     -0.21190456
           -0.03301156     -0.01351819     -0.00014783      0.65414437     -0.14595221
            0.00437283     -0.01015101      0.00309398     -0.00355988      0.00320452
 
            0.00238621     -0.00383149
            0.00725172     -0.00502987
            0.01534036      0.01057250
           -0.03441753     -0.00571615
           -0.66709914     -0.06285096
            0.73738671      0.07603557
           -0.09879982      0.99502961
 
--
 
  THE ORIGINAL CI ARRAYS ARE NOW MIXED AS LINEAR
  COMBINATIONS, GIVEN BY THE EIGENVECTORS.
  A NEW JOBIPH FILE NAMED 'JOBMIX' IS PREPARED.
********************************************************************************
 
++ Mixed CI coefficients:
  The CI coefficients for the MIXED state nr.   1
--------------------------------------------------------------------------------
 CI COEFFICIENTS LARGER THAN  0.50D-01
  Occupation of active orbitals, and spin coupling
  of open shells. (u,d: Spin up or down).
  SGUGA info is (Midvert:IsyUp:UpperWalk/LowerWalk)
        Conf  SGUGA info        Occupation    Coefficient         Weight
           1  ( 1:1:   1/   1)   22222200       -0.969478       0.939888
           2  ( 1:1:   2/   1)   22222ud0       -0.081360       0.006619
           4  ( 1:1:   4/   1)   22222020        0.088435       0.007821
          17  ( 1:1:  17/   1)   22220202        0.088108       0.007763
          61  ( 2:1:   1/   3)   2u2222d0        0.077832       0.006058
          84  ( 2:1:   4/   4)   u222220d        0.103931       0.010802
         171  ( 3:1:   1/   8)   20222220        0.092467       0.008550
         195  ( 3:1:   5/  10)   02222202        0.075903       0.005761
 
  The CI coefficients for the MIXED state nr.   2
--------------------------------------------------------------------------------
 CI COEFFICIENTS LARGER THAN  0.50D-01
  Occupation of active orbitals, and spin coupling
  of open shells. (u,d: Spin up or down).
  SGUGA info is (Midvert:IsyUp:UpperWalk/LowerWalk)
        Conf  SGUGA info        Occupation    Coefficient         Weight
           7  ( 1:1:   7/   1)   22222u0d       -0.213096       0.045410
           8  ( 1:1:   8/   1)   2222u20d       -0.085196       0.007258
          21  ( 2:1:   1/   1)   222u22d0       -0.211834       0.044874
          24  ( 2:1:   4/   1)   222u220d       -0.104490       0.010918
          44  ( 2:1:   4/   2)   22u2220d       -0.894505       0.800139
          45  ( 2:1:   5/   2)   22u22dud       -0.060960       0.003716
          47  ( 2:1:   7/   2)   22u22udd       -0.107480       0.011552
          49  ( 2:1:   9/   2)   22u2202d        0.075664       0.005725
          54  ( 2:1:  14/   2)   22u2d202       -0.163806       0.026832
         165  ( 3:1:   5/   7)   u2d22202       -0.118108       0.013950
         219  ( 4:1:   1/   4)   2uu222dd       -0.063221       0.003997
         293  ( 5:1:   1/  15)   20u2222d       -0.091393       0.008353
 
  The CI coefficients for the MIXED state nr.   3
--------------------------------------------------------------------------------
 CI COEFFICIENTS LARGER THAN  0.50D-01
  Occupation of active orbitals, and spin coupling
  of open shells. (u,d: Spin up or down).
  SGUGA info is (Midvert:IsyUp:UpperWalk/LowerWalk)
        Conf  SGUGA info        Occupation    Coefficient         Weight
           7  ( 1:1:   7/   1)   22222u0d       -0.062855       0.003951
          21  ( 2:1:   1/   1)   222u22d0        0.935041       0.874301
          22  ( 2:1:   2/   1)   222u2d20       -0.089236       0.007963
          24  ( 2:1:   4/   1)   222u220d        0.074940       0.005616
          38  ( 2:1:  18/   1)   222u02d2        0.080905       0.006546
          44  ( 2:1:   4/   2)   22u2220d       -0.208238       0.043363
         121  ( 3:1:   1/   3)   2u2d2220        0.177613       0.031547
         213  ( 4:1:   1/   3)   u22u22dd       -0.078741       0.006200
         270  ( 5:1:   2/   9)   022u22d2       -0.075638       0.005721
 
  The CI coefficients for the MIXED state nr.   4
--------------------------------------------------------------------------------
 CI COEFFICIENTS LARGER THAN  0.50D-01
  Occupation of active orbitals, and spin coupling
  of open shells. (u,d: Spin up or down).
  SGUGA info is (Midvert:IsyUp:UpperWalk/LowerWalk)
        Conf  SGUGA info        Occupation    Coefficient         Weight
           1  ( 1:1:   1/   1)   22222200        0.064191       0.004121
           2  ( 1:1:   2/   1)   22222ud0       -0.782478       0.612271
           4  ( 1:1:   4/   1)   22222020       -0.157546       0.024821
           7  ( 1:1:   7/   1)   22222u0d       -0.326982       0.106917
           8  ( 1:1:   8/   1)   2222u20d       -0.365268       0.133421
          19  ( 1:1:  19/   1)   22220ud2        0.072987       0.005327
          24  ( 2:1:   4/   1)   222u220d        0.052494       0.002756
          44  ( 2:1:   4/   2)   22u2220d        0.108165       0.011700
          62  ( 2:1:   2/   3)   2u222d20       -0.204722       0.041911
          67  ( 2:1:   7/   3)   2u222udd       -0.053540       0.002867
          85  ( 2:1:   5/   4)   u2222dud        0.050894       0.002590
          87  ( 2:1:   7/   4)   u2222udd        0.076223       0.005810
          94  ( 2:1:  14/   4)   u222d202       -0.107489       0.011554
         171  ( 3:1:   1/   8)   20222220        0.092459       0.008549
         196  ( 3:1:   6/  10)   02222ud2        0.059861       0.003583
 
  The CI coefficients for the MIXED state nr.   5
--------------------------------------------------------------------------------
 CI COEFFICIENTS LARGER THAN  0.50D-01
  Occupation of active orbitals, and spin coupling
  of open shells. (u,d: Spin up or down).
  SGUGA info is (Midvert:IsyUp:UpperWalk/LowerWalk)
        Conf  SGUGA info        Occupation    Coefficient         Weight
           2  ( 1:1:   2/   1)   22222ud0        0.409986       0.168088
           4  ( 1:1:   4/   1)   22222020        0.078307       0.006132
           7  ( 1:1:   7/   1)   22222u0d       -0.071352       0.005091
           8  ( 1:1:   8/   1)   2222u20d       -0.835215       0.697584
          12  ( 1:1:  12/   1)   2222uudd       -0.085673       0.007340
          13  ( 1:1:  13/   1)   2222u02d        0.070969       0.005037
          44  ( 2:1:   4/   2)   22u2220d        0.095990       0.009214
          62  ( 2:1:   2/   3)   2u222d20        0.106851       0.011417
          68  ( 2:1:   8/   3)   2u22u2dd       -0.062663       0.003927
          84  ( 2:1:   4/   4)   u222220d        0.089710       0.008048
          94  ( 2:1:  14/   4)   u222d202       -0.210401       0.044269
         174  ( 3:1:   4/   8)   2022u22d       -0.084334       0.007112
 
  The CI coefficients for the MIXED state nr.   6
--------------------------------------------------------------------------------
 CI COEFFICIENTS LARGER THAN  0.50D-01
  Occupation of active orbitals, and spin coupling
  of open shells. (u,d: Spin up or down).
  SGUGA info is (Midvert:IsyUp:UpperWalk/LowerWalk)
        Conf  SGUGA info        Occupation    Coefficient         Weight
           2  ( 1:1:   2/   1)   22222ud0       -0.266540       0.071043
           7  ( 1:1:   7/   1)   22222u0d        0.855090       0.731179
           8  ( 1:1:   8/   1)   2222u20d       -0.229729       0.052776
          24  ( 2:1:   4/   1)   222u220d       -0.133601       0.017849
          44  ( 2:1:   4/   2)   22u2220d       -0.165494       0.027388
          62  ( 2:1:   2/   3)   2u222d20       -0.069037       0.004766
          65  ( 2:1:   5/   3)   2u222dud        0.138324       0.019134
          67  ( 2:1:   7/   3)   2u222udd        0.194580       0.037861
         173  ( 3:1:   3/   8)   20222u2d        0.124837       0.015584
 
  The CI coefficients for the MIXED state nr.   7
--------------------------------------------------------------------------------
 CI COEFFICIENTS LARGER THAN  0.50D-01
  Occupation of active orbitals, and spin coupling
  of open shells. (u,d: Spin up or down).
  SGUGA info is (Midvert:IsyUp:UpperWalk/LowerWalk)
        Conf  SGUGA info        Occupation    Coefficient         Weight
           7  ( 1:1:   7/   1)   22222u0d        0.127955       0.016372
          21  ( 2:1:   1/   1)   222u22d0       -0.089556       0.008020
          24  ( 2:1:   4/   1)   222u220d        0.882389       0.778610
          25  ( 2:1:   5/   1)   222u2dud       -0.223662       0.050025
          27  ( 2:1:   7/   1)   222u2udd       -0.314198       0.098720
          44  ( 2:1:   4/   2)   22u2220d       -0.110157       0.012135
         112  ( 3:1:   2/   2)   22ud22ud       -0.052046       0.002709
         201  ( 4:1:   1/   1)   22uu22dd        0.053125       0.002822
         208  ( 4:1:   2/   2)   2u2u2d2d        0.079723       0.006356
         261  ( 5:1:   1/   7)   202u222d        0.081538       0.006648
 
--
 
--- Stop Module: caspt2 at Wed Nov 13 21:11:46 2024 /rc=_RC_ALL_IS_WELL_ ---
*** files: xmldump
    saved to directory /home/pcaah4
--- Module caspt2 spent 6 minutes 57 seconds ---

.##################.
.# Happy landing! #.
.##################.

    Timing: Wall=667.32 User=580.75 System=77.20
******************************************************
*** WorkDir at /srv/COMMUNAL_SCRATCH/10406 cleaned ***
******************************************************
