   This run of MOLCAS is using the pymolcas driver

                             OPE
                             OPE          NMOL  CASOP  ENMOLC A   SO
                 OPE        NMOLC        AS  OP EN  MO LC     AS  OP
                OPENM       OL CA        SO  PE NM  OL CA     SOP EN
                OP EN      MO   LC       AS  OP ENMOL  CASO   PENMOL
                OP  EN     MO   LC       AS  OP EN     MO     LC ASO
               OP   E  NMOL  C  AS       OP  EN MO     LC     AS  OP
               OP  E   NMO   LC AS        OPEN  MO     LCASOP EN   M
               O  PEN   MO  LCA  SO
            OPE   NMO   L   CAS    OP
        OPENMOL  CASOP     ENMOL   CASOPE
     OPENMOLCA   SOPENMOLCASOPEN   MOLCASOPE
    OPENMOLCAS   OP           EN   MOL    CAS
    OPENMOLCAS       OP  ENM        O     LCA
    OPENMOLCAS    OPEN  MOLCASO     P  E  NMO
    OPENMOLCAS     OP               E  N  MOL
    OPENMOLCA   SO           PENM   O  L  CAS    OPEN    MO    LCAS
    OPENMOLCA   SOP           ENM   O  L  CAS   OP  EN  MOLC  AS   O
    OPENMOLCA   SOPE           NM      O  LCA   S      OP  EN MO
    OPENMOLC                AS         O  PEN   M      OL  CA  SOPE
    OPENMO        LCASOPE  NMOL        C  ASO   P      ENMOLC     AS
    OPE     NMO      LCA  SO     P     E   NM   OL  CA SO  PE N   MO
          OPENMOLCA            SOPE   NMO        LCAS  O    P  ENMO
     OPENMOLCASOPENMOLCASOPENMOLCASOPENMOLCA
        OPENMOLCASOPENMOLCASOPENMOLCASOPE
            OPENMOLCASOPENMOLCASOPENM
               OPENMOLCASOPENMOLCA        version: v23.06
                   OPENMOLCASO
                       OPE                tag:

 OpenMolcas is free software; you can redistribute it and/or modify it
 under the terms of the GNU Lesser General Public License version 2.1.
 OpenMolcas is distributed in the hope that it will be useful, but it
 is provided "as is" and without any express or implied warranties.
 For more details see the full text of the license in the file
 LICENSE or in <http://www.gnu.org/licenses/>.

                 Copyright (C) The OpenMolcas Authors
           For the author list and the recommended citation,
                   consult the file CONTRIBUTORS.md

           *************************************************
           * pymolcas version py2.24                       *
           *   build 4567b286dd94b1984b333a4ddf893180      *
           *   (after the EMIL interpreter by V. Veryazov) *
           *************************************************

configuration info
------------------
Host name: loginchem01.nottingham.ac.uk (Linux)
C Compiler ID: Intel
C flags: -std=gnu99 -gcc-sys -qopenmp
Fortran Compiler ID: Intel
Fortran flags: -fpp -i8 -heap-arrays -qopenmp
Definitions: _MOLCAS_;_I8_;_LINUX_
Parallel: OFF (GA=OFF)


   ------------------------------------------------------------------------------------------------------------
  |
  |              Project: orca_geometry_optimisation_240_135_BP86_def2-SVP_def2J_scf_cas1_ras12i11_cas2_ras12i8
  |       Submitted from: /home/pcaah4
  |         Scratch area: /srv/COMMUNAL_SCRATCH/10393
  |      Save outputs to: /home/pcaah4
  |               Molcas: /software/chemistry/openmolcas/openmolcas-23.06-openmp
  |
  | Scratch area is empty
  |
  |       MOLCAS_DRIVER = /software/chemistry/openmolcas/openmolcas-23.06-openmp/sbin/pymolcas
  | MOLCAS_KEEP_WORKDIR = NO
  |       MOLCAS_NPROCS = 1
  |       MOLCAS_SOURCE = /software/chemistry/openmolcas/openmolcas-23.06-openmp
  |    MOLCAS_STRUCTURE = 0
  |
   ------------------------------------------------------------------------------------------------------------

++ ---------   Input file   ---------

&SEWARD
TITLE
orca_geometry_optimisation_240_135_BP86_def2-SVP_def2J_scf_cas1_ras12i11
MULTIPOLES
2
SDIPOLE
ANGMOM
0 0 0
BASIS SET
C.ANO-S...4S3P1D.
C1           -0.003370   -0.021888    0.065637 /Angstrom
C3            2.079384    1.302639   -0.007428 /Angstrom
C4            3.002242    1.274835   -1.236426 /Angstrom
C6            3.804033    2.551874   -3.199264 /Angstrom
C19          -0.581437   -1.432109    0.033517 /Angstrom
END OF BASIS
BASIS SET
N.ANO-S...4S3P1D.
N2            1.372482    0.043516    0.101459 /Angstrom
N5            2.973743    2.397263   -2.018558 /Angstrom
END OF BASIS
BASIS SET
O.ANO-S...4S3P1D.
O7           -0.717103    0.981108    0.082403 /Angstrom
O8            3.700732    0.287036   -1.473545 /Angstrom
END OF BASIS
BASIS SET
H.ANO-S...2S1P.
H9           -1.240323   -1.565811    0.914435 /Angstrom
H10          -1.221628   -1.533324   -0.865397 /Angstrom
H11           0.182692   -2.233854    0.028359 /Angstrom
H12           1.935303   -0.793493   -0.072899 /Angstrom
H13           1.307307    2.097820   -0.049574 /Angstrom
H14           2.716565    1.486211    0.888505 /Angstrom
H15           2.329671    3.146930   -1.762378 /Angstrom
H16           3.189956    2.684352   -4.115212 /Angstrom
H17           4.492610    3.418813   -3.107513 /Angstrom
H18           4.401372    1.626147   -3.301008 /Angstrom
END OF BASIS
END OF INPUT

&RASSCF
TITLE
orca_geometry_optimisation_240_135_BP86_def2-SVP_def2J_scf_cas1_ras12i11
LUMORB
SPIN
1
SYMMETRY
1
NACTEL
12  0  0
INACTIVE
29
DELETED  ! delete Rydberg orbitals from an initial CAS(12,11) if done
3
FROZEN
0
RAS2
8
ITERATIONS
64 25
CIROOT
7 7
1 2 3 4 5 6 7
1 1 1 1 1 1 1
LEVSHFT
0.3
CIMX
20
FILEorb = /home/pcaah4/outputs/cas1_ras12i11_rasorb_files/orca_geometry_optimisation_240_135_BP86_def2-SVP_def2J_scf_cas1_ras12i11.RasOrb
ALTEr
4
 1 36 40
 1 38 210
 1 39 211
 1 40 212
END OF INPUT

&RASSI
NROF JOBIPH
    1 7
    1 2 3 5 4 6 7
TOFILE
TRDI
TDMN
1.0D-6
END OF INPUT

&CASPT2
TITLE
orca_geometry_optimisation_240_135_BP86_def2-SVP_def2J_scf_cas1_ras12i11
MULTISTATE
7 1 2 3 4 5 6 7
SHIFT
0.35
MAXITER
50
END OF INPUT

-- ----------------------------------

--- Start Module: seward at Wed Nov 13 20:15:36 2024 ---
 
()()()()()()()()()()()()()()()()()()()()()()()()()()()()()()()()()()()()()()()()()()()()()()()()()()

                                              &SEWARD

                                   only a single process is used
                       available to each process: 2.0 GB of memory, 1 thread
                                            pid: 1792045
()()()()()()()()()()()()()()()()()()()()()()()()()()()()()()()()()()()()()()()()()()()()()()()()()()
 
               SEWARD will generate:
                  Multipole Moment integrals up to order  2
                  Kinetic Energy integrals
                  Nuclear Attraction integrals (point charge)
                  One-Electron Hamiltonian integrals
                  Velocity integrals
                  Orbital angular momentum around ( 0.0000  0.0000  0.0000 )
                  Velocity quadrupole around ( 3.2896  1.5540 -1.6381 )
                  Two-Electron Repulsion integrals
 
 Title:
            orca_geometry_optimisation_240_135_BP86_def2-SVP_def2J_scf_cas1_ras12i11    
 
 
                   Integrals are discarded if absolute value <: 0.10E-13
                   Integral cutoff threshold is set to       <: 0.10E-15
 
++    Symmetry information:
      ---------------------
 
                    Character Table for C1 
 
                             E  
                    a        1  x, y, xy, Rz, z, xz, Ry, yz, Rx, I
--
 
 
++    Basis set information:
      ----------------------
 
 
      Basis set label: C.ANO-S...4S3P1D......
 
      Electronic valence basis set:
      ------------------
      Associated Effective Charge   6.000000 au
      Associated Actual Charge      6.000000 au
      Nuclear Model: Point charge
 
      Shell  nPrim  nBasis  Cartesian Spherical Contaminant
         s      10       4        X                  
         p       6       3        X                  
         d       3       1                 X         
 
 
      Basis set label: N.ANO-S...4S3P1D......
 
      Electronic valence basis set:
      ------------------
      Associated Effective Charge   7.000000 au
      Associated Actual Charge      7.000000 au
      Nuclear Model: Point charge
 
      Shell  nPrim  nBasis  Cartesian Spherical Contaminant
         s      10       4        X                  
         p       6       3        X                  
         d       3       1                 X         
 
 
      Basis set label: O.ANO-S...4S3P1D......
 
      Electronic valence basis set:
      ------------------
      Associated Effective Charge   8.000000 au
      Associated Actual Charge      8.000000 au
      Nuclear Model: Point charge
 
      Shell  nPrim  nBasis  Cartesian Spherical Contaminant
         s      10       4        X                  
         p       6       3        X                  
         d       3       1                 X         
 
 
      Basis set label: H.ANO-S...2S1P......
 
      Electronic valence basis set:
      ------------------
      Associated Effective Charge   1.000000 au
      Associated Actual Charge      1.000000 au
      Nuclear Model: Point charge
 
      Shell  nPrim  nBasis  Cartesian Spherical Contaminant
         s       7       2        X                  
         p       3       1        X                  
--
 
 
++    Molecular structure info:
      -------------------------
 
                    ************************************************ 
                    **** Cartesian Coordinates / Bohr, Angstrom **** 
                    ************************************************ 
 
     Center  Label                x              y              z                     x              y              z
        1      C1              -0.006368      -0.041362       0.124036             -0.003370      -0.021888       0.065637
        2      C3               3.929466       2.461631      -0.014037              2.079384       1.302639      -0.007428
        3      C4               5.673415       2.409089      -2.336507              3.002242       1.274835      -1.236426
        4      C6               7.188581       4.822343      -6.045733              3.804033       2.551874      -3.199264
        5      C19             -1.098757      -2.706294       0.063338             -0.581437      -1.432109       0.033517
        6      N2               2.593615       0.082233       0.191730              1.372482       0.043516       0.101459
        7      N5               5.619560       4.530171      -3.814522              2.973743       2.397263      -2.018558
        8      O7              -1.355128       1.854025       0.155719             -0.717103       0.981108       0.082403
        9      O8               6.993370       0.542419      -2.784596              3.700732       0.287036      -1.473545
       10      H9              -2.343871      -2.958954       1.728032             -1.240323      -1.565811       0.914435
       11      H10             -2.308542      -2.897562      -1.635363             -1.221628      -1.533324      -0.865397
       12      H11              0.345238      -4.221372       0.053591              0.182692      -2.233854       0.028359
       13      H12              3.657193      -1.499484      -0.137759              1.935303      -0.793493      -0.072899
       14      H13              2.470452       3.964305      -0.093681              1.307307       2.097820      -0.049574
       15      H14              5.133564       2.808532       1.679031              2.716565       1.486211       0.888505
       16      H15              4.402440       5.946836      -3.330412              2.329671       3.146930      -1.762378
       17      H16              6.028143       5.072690      -7.776624              3.189956       2.684352      -4.115212
       18      H17              8.489802       6.460620      -5.872348              4.492610       3.418813      -3.107513
       19      H18              8.317388       3.072972      -6.238001              4.401372       1.626147      -3.301008
 
                    ************************************************* 
                    **** InterNuclear Distances / Bohr, Angstrom **** 
                    ************************************************* 
 
     Atom centers         Bohr        Angstrom
   16 H15       7 N5      1.929426        1.021008
   13 H12       6 N2      1.934319        1.023598
   19 H18       4 C6      2.090806        1.106407
   12 H11       5 C19     2.093007        1.107572
   10 H9        5 C19     2.094123        1.108162
   11 H10       5 C19     2.094218        1.108213
   14 H13       2 C3      2.095971        1.109140
   17 H16       4 C6      2.098874        1.110676
   18 H17       4 C6      2.099332        1.110918
   15 H14       2 C3      2.106341        1.114627
    8 O7        1 C1      2.326511        1.231136
    9 O8        3 C4      2.329704        1.232826
    7 N5        3 C4      2.585811        1.368352
    6 N2        1 C1      2.603800        1.377871
    6 N2        2 C3      2.736489        1.448088
    7 N5        4 C6      2.743263        1.451672
    5 C19       1 C1      2.880774        1.524440
    3 C4        2 C3      2.904821        1.537165
   11 H10      10 H9      3.364141        1.780227
   15 H14      14 H13     3.401542        1.800018
   19 H18      17 H16     3.406886        1.802846
   18 H17      17 H16     3.407694        1.803274
   12 H11      10 H9      3.410096        1.804545
   19 H18      18 H17     3.411684        1.805385
   12 H11      11 H10     3.412856        1.806006
   16 H15       3 C4      3.888300        2.057600
   14 H13       6 N2      3.894498        2.060879
   19 H18       7 N5      3.908318        2.068193
   13 H12       1 C1      3.951751        2.091177
   13 H12       2 C3      3.972389        2.102098
   15 H14       6 N2      4.011996        2.123057
   17 H16       7 N5      4.019890        2.127234
   18 H17       7 N5      4.024870        2.129870
   16 H15       4 C6      4.049695        2.143006
   10 H9        1 C1      4.068054        2.152721
   11 H10       1 C1      4.068583        2.153002
   15 H14       3 C4      4.071306        2.154443
   12 H11       1 C1      4.195363        2.220091
   14 H13       3 C4      4.208080        2.226820
   16 H15      14 H13     4.259041        2.253787
   13 H12      12 H11     4.291192        2.270801
    8 O7        6 N2      4.328177        2.290373
    9 O8        7 N5      4.341689        2.297523
   14 H13       8 O7      4.376134        2.315750
   19 H18       9 O8      4.481375        2.371442
    9 O8        2 C3      4.554874        2.410336
    8 O7        5 C19     4.568454        2.417522
    6 N2        3 C4      4.614261        2.441762
    6 N2        5 C19     4.628820        2.449466
    7 N5        2 C3      4.645316        2.458195
    2 C3        1 C1      4.666351        2.469327
    4 C6        3 C4      4.677380        2.475163
   14 H13       1 C1      4.714596        2.494857
   13 H12       9 O8      4.722838        2.499218
   19 H18       3 C4      4.759516        2.518627
   17 H16      16 H15     4.814129        2.547528
   16 H15       2 C3      4.834118        2.558105
   18 H17      16 H15     4.840656        2.561565
   12 H11       6 N2      4.857500        2.570478
   15 H14      13 H12     4.902999        2.594556
   14 H13       7 N5      4.907315        2.596839
   13 H12       5 C19     4.910792        2.598679
   13 H12       3 C4      4.916970        2.601948
   10 H9        8 O7      5.158929        2.729988
   11 H10       8 O7      5.166678        2.734088
    8 O7        2 C3      5.322118        2.816344
    9 O8        6 N2      5.331804        2.821469
   15 H14       9 O8      5.340235        2.825931
    9 O8        4 C6      5.384316        2.849258
   14 H13      13 H12     5.591359        2.958820
   19 H18      16 H15     5.660387        2.995348
--
 
 
            Nuclear Potential Energy            449.93189446 au
 
 
      Basis set specifications :
      Symmetry species         a  
      Basis functions          212
 
 
      Input file to MOLDEN was generated!
 
--- Stop Module: seward at Wed Nov 13 20:17:28 2024 /rc=_RC_ALL_IS_WELL_ ---
*** files: orca_geometry_optimisation_240_135_BP86_def2-SVP_def2J_scf_cas1_ras12i11_cas2_ras12i8.GssOrb
           orca_geometry_optimisation_240_135_BP86_def2-SVP_def2J_scf_cas1_ras12i11_cas2_ras12i8.guessorb.molden xmldump
    saved to directory /home/pcaah4
--- Module seward spent 1 minute 51 seconds ---

*** symbolic link created: INPORB -> orca_geometry_optimisation_240_135_BP86_def2-SVP_def2J_scf_cas1_ras12i11_cas2_ras12i8.GssOrb
--- Start Module: rasscf at Wed Nov 13 20:17:28 2024 ---
 
()()()()()()()()()()()()()()()()()()()()()()()()()()()()()()()()()()()()()()()()()()()()()()()()()()

                                              &RASSCF

                                   only a single process is used
                       available to each process: 2.0 GB of memory, 1 thread
                                            pid: 1792343
()()()()()()()()()()()()()()()()()()()()()()()()()()()()()()()()()()()()()()()()()()()()()()()()()()
 
 
      Header of the ONEINT file:
      --------------------------
      orca_geometry_optimisation_240_135_BP86_def2-SVP_def2J_scf_cas1_ras12i11
      Integrals generated by Gateway/Seward, Wed Nov 13 20:15:40 2024
 
 
      OrdInt status: non-squared
 
 
      Cartesian coordinates in Angstrom:
      -----------------------------------------------------
      No.  Label        X            Y            Z        
      -----------------------------------------------------
       1   C1        -0.00337000  -0.02188800   0.06563700
       2   C3         2.07938400   1.30263900  -0.00742800
       3   C4         3.00224200   1.27483500  -1.23642600
       4   C6         3.80403300   2.55187400  -3.19926400
       5   C19       -0.58143700  -1.43210900   0.03351700
       6   N2         1.37248200   0.04351600   0.10145900
       7   N5         2.97374300   2.39726300  -2.01855800
       8   O7        -0.71710300   0.98110800   0.08240300
       9   O8         3.70073200   0.28703600  -1.47354500
      10   H9        -1.24032300  -1.56581100   0.91443500
      11   H10       -1.22162800  -1.53332400  -0.86539700
      12   H11        0.18269200  -2.23385400   0.02835900
      13   H12        1.93530300  -0.79349300  -0.07289900
      14   H13        1.30730700   2.09782000  -0.04957400
      15   H14        2.71656500   1.48621100   0.88850500
      16   H15        2.32967100   3.14693000  -1.76237800
      17   H16        3.18995600   2.68435200  -4.11521200
      18   H17        4.49261000   3.41881300  -3.10751300
      19   H18        4.40137200   1.62614700  -3.30100800
      -----------------------------------------------------
      Nuclear repulsion energy =  449.93189446
 
++    Wave function specifications:
      -----------------------------
 
      Number of closed shell electrons          58
      Number of electrons in active shells      12
      Max number of holes in RAS1 space          0
      Max nr of electrons in RAS3 space          0
      Number of inactive orbitals               29
      Number of active orbitals                  8
      Number of secondary orbitals             172
      Spin quantum number                      0.0
      State symmetry                             1
--
 
++    Orbital specifications:
      -----------------------
 
      Symmetry species                           1
                                                 a
      Frozen orbitals                            0
      Inactive orbitals                         29
      Active orbitals                            8
      RAS1 orbitals                              0
      RAS2 orbitals                              8
      RAS3 orbitals                              0
      Secondary orbitals                       172
      Deleted orbitals                           3
      Number of basis functions                212
--
 
++    CI expansion specifications:
      ----------------------------
 
      Number of CSFs                           336
      Number of determinants                   406
      Number of root(s) required                 7
      Root chosen for geometry opt.              7
      CI roots used                              1     2     3     4     5     6     7
      weights                                0.143 0.143 0.143 0.143 0.143 0.143 0.143
      highest root included in the CI            7
      max. size of the explicit Hamiltonian    200
--
 
++    Optimization specifications:
      ----------------------------
 
      RASSCF algorithm: Conventional
      Maximum number of macro iterations        64
      Maximum number of SX iterations           25
      Threshold for RASSCF energy            0.100E-07
      Threshold for max MO rotation          0.100E+00
      Threshold for max BLB element          0.100E-03
      Level shift parameter                  0.300E+00
      Make Quasi-Newton update
--
 
      The MO-coefficients are taken from the file:
      /home/pcaah4/outputs/cas1_ras12i11_rasorb_files/orca_geometry_optimisation_240_135_BP86_def2-SVP_def2J_scf_cas1_ras12i11.RasOrb                                                                                                                                 
      Title: RASSCF average (pseudo-natural) orbitals                                      
 
      Total molecular charge    0.00
 
      Molecular orbitals exchanged:
        In symmetry  1 :  36  40
        In symmetry  1 :  38 210
        In symmetry  1 :  39 211
        In symmetry  1 :  40 212
 
 
      ************************************************************************************************************************
      *                                                                                                                      *
      *                                            Wave function control section                                             *
      *                                                                                                                      *
      ************************************************************************************************************************
 
 
                                         RASSCF iterations: Energy and convergence statistics
                                         ----------------------------------------------------
 
      Iter CI   SX   CI       RASSCF       Energy    max ROT     max BLB   max BLB  Level Ln srch  Step   QN   Walltime
          iter iter root      energy       change     param      element    value   shift minimum  type update hh:mm:ss
 Nr of preliminary CI iterations:   4
        1   1   25    0  -453.68868513    0.00E+00   0.37E-01   37  70 1 -0.14E-01*  0.14   0.00    SX    NO    0:00:13
        2   5   16    0  -453.70352123   -0.15E-01*  0.14E-01   13 209 1 -0.68E-02*  0.14   0.00    SX    NO    0:00:06
        3   3    9    0  -453.70525412   -0.17E-02*  0.96E-02   23  66 1  0.46E-02*  0.14   0.00    SX    NO    0:00:06
        4   6   10    0  -453.70611726   -0.86E-03*  0.63E-02   21  98 1 -0.18E-02*  0.14   0.00    SX    NO    0:00:06
        5   5    9    0  -453.70629287   -0.18E-03* -0.68E-02   21  82 1 -0.11E-02*  0.15   1.15    QN   YES    0:00:06
        6   6    9    0  -453.70636891   -0.76E-04* -0.28E-02   13 209 1  0.30E-03*  0.15   1.15    QN   YES    0:00:06
        7   3    8    0  -453.70637580   -0.69E-05* -0.16E-02   21  98 1 -0.30E-03*  0.15   1.10    QN   YES    0:00:06
        8   6    8    0  -453.70637754   -0.17E-05* -0.37E-03    2  40 1  0.81E-04   0.15   0.92    QN   YES    0:00:06
        9   4    7    0  -453.70637788   -0.34E-06*  0.33E-03   21  98 1 -0.10E-03*  0.15   1.33    QN   YES    0:00:06
       10   3    7    0  -453.70637800   -0.12E-06*  0.57E-04   23  66 1  0.25E-04   0.15   0.79    QN   YES    0:00:06
       11   3    6    0  -453.70637803   -0.28E-07*  0.83E-04   21  82 1 -0.11E-04   0.15   1.28    QN   YES    0:00:06
       12   3    6    0  -453.70637803   -0.74E-08   0.57E-04   21  98 1 -0.37E-05   0.15   1.24    QN   YES    0:00:06
      Convergence after 12 iterations
       13   3    6    0  -453.70637804   -0.21E-08   0.57E-04    2  40 1  0.18E-05   0.15   1.24    QN   YES    0:00:06
 
      ************************************************************************************************************************
                                                      Wave function printout:
                       occupation of active orbitals, and spin coupling of open shells (u,d: Spin up or down)
      ************************************************************************************************************************
 
      Note: transformation to natural orbitals
      has been made, which may change the order of the CSFs.
 
      printout of CI-coefficients larger than  0.05 for root  1
      energy=    -453.959743
      conf/sym  11111111     Coeff  Weight
             1  22222200   0.96397 0.92924
             6  22220220  -0.08526 0.00727
             7  22222u0d   0.13178 0.01737
            15  22222002  -0.07768 0.00603
            64  2u22220d  -0.07802 0.00609
            73  2u222d02   0.06070 0.00368
            81  u22222d0  -0.09632 0.00928
           175  20222202  -0.09838 0.00968
           191  02222220  -0.07698 0.00593
 
      printout of CI-coefficients larger than  0.05 for root  2
      energy=    -453.744892
      conf/sym  11111111     Coeff  Weight
            21  222u22d0   0.07229 0.00523
            24  222u220d   0.95995 0.92150
            32  222u022d  -0.08312 0.00691
            33  222u2d02  -0.09160 0.00839
           125  2u2d2202   0.18298 0.03348
           213  u22u22dd   0.07970 0.00635
           269  022u222d   0.07732 0.00598
 
      printout of CI-coefficients larger than  0.05 for root  3
      energy=    -453.734800
      conf/sym  11111111     Coeff  Weight
             2  22222ud0  -0.21092 0.04449
             3  2222u2d0  -0.06551 0.00429
            21  222u22d0  -0.07008 0.00491
            41  22u222d0  -0.92315 0.85221
            43  22u2d220  -0.16940 0.02870
            45  22u22dud  -0.06193 0.00384
            47  22u22udd   0.11138 0.01241
            55  22u220d2  -0.07757 0.00602
           161  u2d22220  -0.12179 0.01483
           219  2uu222dd   0.06571 0.00432
           222  2uu22dd2  -0.05125 0.00263
           294  20u222d2   0.09457 0.00894
 
      printout of CI-coefficients larger than  0.05 for root  4
      energy=    -453.642829
      conf/sym  11111111     Coeff  Weight
             1  22222200   0.05013 0.00251
             2  22222ud0   0.19908 0.03963
             3  2222u2d0   0.89126 0.79434
             7  22222u0d  -0.20267 0.04107
            12  2222uudd  -0.08989 0.00808
            18  2222u0d2   0.07714 0.00595
            41  22u222d0  -0.10676 0.01140
            68  2u22u2dd  -0.06563 0.00431
            73  2u222d02  -0.05144 0.00265
            81  u22222d0  -0.08315 0.00691
            83  u222d220   0.22742 0.05172
           177  2022u2d2  -0.08873 0.00787
 
      printout of CI-coefficients larger than  0.05 for root  5
      energy=    -453.636684
      conf/sym  11111111     Coeff  Weight
             1  22222200  -0.06967 0.00485
             2  22222ud0   0.78248 0.61228
             3  2222u2d0  -0.06843 0.00468
             7  22222u0d   0.48920 0.23932
            15  22222002   0.10386 0.01079
            41  22u222d0  -0.16881 0.02850
            65  2u222dud   0.12144 0.01475
            67  2u222udd  -0.16370 0.02680
            73  2u222d02   0.12693 0.01611
            87  u2222udd   0.05052 0.00255
           175  20222202  -0.05761 0.00332
           176  20222ud2  -0.10755 0.01157
 
      printout of CI-coefficients larger than  0.05 for root  6
      energy=    -453.620284
      conf/sym  11111111     Coeff  Weight
             1  22222200  -0.09464 0.00896
             2  22222ud0  -0.45882 0.21052
             3  2222u2d0   0.29587 0.08754
             7  22222u0d   0.74276 0.55170
            14  22220u2d   0.07055 0.00498
            15  22222002   0.14735 0.02171
            21  222u22d0  -0.09683 0.00938
            41  22u222d0   0.08156 0.00665
            65  2u222dud  -0.07941 0.00631
            67  2u222udd   0.11523 0.01328
            73  2u222d02   0.19114 0.03653
            83  u222d220   0.07263 0.00528
            87  u2222udd   0.06976 0.00487
           175  20222202  -0.08179 0.00669
           176  20222ud2   0.07264 0.00528
           193  02222u2d   0.05527 0.00306
 
      printout of CI-coefficients larger than  0.05 for root  7
      energy=    -453.605415
      conf/sym  11111111     Coeff  Weight
             7  22222u0d   0.09376 0.00879
            21  222u22d0   0.89286 0.79720
            24  222u220d  -0.06932 0.00481
            25  222u2dud  -0.22545 0.05083
            27  222u2udd   0.31235 0.09756
            41  22u222d0  -0.06171 0.00381
           210  2u2u2dd2  -0.07958 0.00633
           262  202u22d2  -0.08242 0.00679
 
      Natural orbitals and occupation numbers for root  1
      sym 1:   1.971225   1.995540   1.999870   1.999846   1.994287   1.957160   0.034621   0.047451
 
      Natural orbitals and occupation numbers for root  2
      sym 1:   1.970827   1.999751   1.998749   1.002412   1.994817   1.999805   0.035581   0.998058
 
      Natural orbitals and occupation numbers for root  3
      sym 1:   1.999846   1.994417   1.009168   1.998164   1.998770   1.955825   0.993818   0.049992
 
      Natural orbitals and occupation numbers for root  4
      sym 1:   1.980034   1.972680   1.999567   1.999818   1.067937   1.925961   0.956754   0.097250
 
      Natural orbitals and occupation numbers for root  5
      sym 1:   1.995607   1.923854   1.990059   1.999487   1.986144   1.032012   0.978688   0.094150
 
      Natural orbitals and occupation numbers for root  6
      sym 1:   1.984478   1.945960   1.998634   1.995947   1.910706   1.079978   0.142151   0.942146
 
      Natural orbitals and occupation numbers for root  7
      sym 1:   1.999690   1.993497   1.998292   1.075317   1.996960   1.925673   0.928437   0.082134
 
      ************************************************************************************************************************
      *                                                                                                                      *
      *                                                    Final results                                                     *
      *                                                                                                                      *
      ************************************************************************************************************************
 
 
++    Wave function specifications:
      -----------------------------
 
      Number of closed shell electrons          58
      Number of electrons in active shells      12
      Max number of holes in RAS1 space          0
      Max nr of electrons in RAS3 space          0
      Number of inactive orbitals               29
      Number of active orbitals                  8
      Number of secondary orbitals             172
      Spin quantum number                      0.0
      State symmetry                             1
--
 
++    Orbital specifications:
      -----------------------
 
      Symmetry species                           1
                                                 a
      Frozen orbitals                            0
      Inactive orbitals                         29
      Active orbitals                            8
      RAS1 orbitals                              0
      RAS2 orbitals                              8
      RAS3 orbitals                              0
      Secondary orbitals                       172
      Deleted orbitals                           3
      Number of basis functions                212
--
 
++    CI expansion specifications:
      ----------------------------
 
      Number of CSFs                           336
      Number of determinants                   406
      Number of root(s) required                 7
      CI roots used                              1     2     3     4     5     6     7
      weights                                0.143 0.143 0.143 0.143 0.143 0.143 0.143
      highest root included in the CI            7
      Root passed to geometry opt.               7
--
 
++    Final optimization conditions:
      ------------------------------
 
      Average CI energy                            -453.70637804
      RASSCF energy for state  7                   -453.60541459
      Super-CI energy                                -0.00000000
      RASSCF energy change                            0.00000000
      Max change in MO coefficients              -0.487E-04
      Max non-diagonal density matrix element     0.565E-04
      Maximum BLB matrix element                  0.177E-05
      (orbital pair   2,  40 in symmetry   1)
      Norm of electronic gradient            0.379E+00
--
 
 
      Final state energy(ies):
      ------------------------
 
::    RASSCF root number  1 Total energy:   -453.95974324
::    RASSCF root number  2 Total energy:   -453.74489161
::    RASSCF root number  3 Total energy:   -453.73480005
::    RASSCF root number  4 Total energy:   -453.64282939
::    RASSCF root number  5 Total energy:   -453.63668384
::    RASSCF root number  6 Total energy:   -453.62028354
::    RASSCF root number  7 Total energy:   -453.60541459
 
++    Molecular orbitals:
      -------------------
 
      Pseudonatural active orbitals and approximate occupation numbers
 
 
 
 
      Molecular orbitals for symmetry species 1: a  
 
 
      Orbital                 1         2         3         4         5         6         7         8         9        10
      Energy           -20.6082  -20.5133  -15.6354  -15.5795  -11.3430  -11.2878  -11.2813  -11.2605  -11.2575   -1.4271
      Occ. No.           2.0000    2.0000    2.0000    2.0000    2.0000    2.0000    2.0000    2.0000    2.0000    2.0000
 
     1 C1     1s         0.0003    0.0001    0.0003   -0.0000    1.0000    0.0001   -0.0001   -0.0000   -0.0036   -0.0395
     2 C1     2s         0.0009    0.0006    0.0013   -0.0001    0.0023   -0.0006   -0.0006   -0.0002   -0.0004    0.3483
     3 C1     3s        -0.0005    0.0004    0.0005   -0.0001   -0.0001   -0.0006   -0.0004   -0.0002   -0.0007   -0.0077
     4 C1     4s        -0.0004    0.0000    0.0001   -0.0000    0.0013   -0.0003   -0.0001   -0.0001   -0.0002    0.0029
     5 C1     2px       -0.0015    0.0001    0.0017   -0.0004    0.0012    0.0001   -0.0005   -0.0002   -0.0003   -0.0479
     6 C1     3px       -0.0010   -0.0002    0.0013   -0.0005    0.0013   -0.0003   -0.0006   -0.0003    0.0001    0.0304
     7 C1     4px        0.0002   -0.0002   -0.0001   -0.0001    0.0004   -0.0003   -0.0001   -0.0001    0.0002   -0.0145
     8 C1     2py        0.0030   -0.0001    0.0001   -0.0001    0.0010    0.0002   -0.0005   -0.0002   -0.0006    0.0951
     9 C1     3py        0.0019   -0.0001    0.0001   -0.0002    0.0009   -0.0004   -0.0006   -0.0003    0.0001   -0.0664
    10 C1     4py       -0.0004   -0.0000    0.0000   -0.0001    0.0007   -0.0004   -0.0001   -0.0001    0.0003    0.0230
    11 C1     2pz        0.0001   -0.0002    0.0000   -0.0000    0.0002    0.0000    0.0002    0.0000   -0.0000    0.0015
    12 C1     3pz        0.0001   -0.0003    0.0001   -0.0000    0.0001    0.0000    0.0002    0.0000    0.0000   -0.0048
    13 C1     4pz       -0.0000   -0.0000    0.0000   -0.0000    0.0001   -0.0000    0.0000    0.0000   -0.0000    0.0002
    14 C1     3d2-       0.0001    0.0000    0.0001    0.0000   -0.0004    0.0000   -0.0000   -0.0000    0.0000   -0.0338
    15 C1     3d1-       0.0000   -0.0000    0.0000   -0.0000    0.0000   -0.0000    0.0000    0.0000   -0.0000    0.0012
    16 C1     3d0       -0.0000   -0.0000    0.0001    0.0000   -0.0004   -0.0001    0.0000    0.0000    0.0001   -0.0281
    17 C1     3d1+       0.0000   -0.0000   -0.0000    0.0000   -0.0000    0.0000    0.0000   -0.0000    0.0000   -0.0007
    18 C1     3d2+       0.0001    0.0000   -0.0002    0.0000    0.0000    0.0000   -0.0000    0.0000   -0.0000   -0.0078
    19 C3     1s         0.0001    0.0000    0.0003    0.0001   -0.0001    0.9985   -0.0444    0.0000    0.0001   -0.0097
    20 C3     2s         0.0005    0.0002    0.0016    0.0005    0.0006   -0.0014   -0.0002    0.0005    0.0008    0.0142
    21 C3     3s         0.0003   -0.0000    0.0008    0.0004    0.0004   -0.0027   -0.0003    0.0003    0.0005   -0.0198
    22 C3     4s         0.0000   -0.0001    0.0001    0.0000    0.0000    0.0007   -0.0001    0.0000    0.0001   -0.0022
    23 C3     2px        0.0001   -0.0008   -0.0004    0.0004    0.0006   -0.0007   -0.0001   -0.0000    0.0003   -0.0221
    24 C3     3px        0.0002   -0.0007   -0.0000    0.0003    0.0010   -0.0007   -0.0007   -0.0003    0.0004   -0.0092
    25 C3     4px        0.0001   -0.0000    0.0001   -0.0001    0.0003   -0.0005   -0.0002   -0.0002    0.0001   -0.0044
    26 C3     2py       -0.0002    0.0011   -0.0003   -0.0006    0.0005   -0.0002    0.0000    0.0002   -0.0002   -0.0177
    27 C3     3py       -0.0001    0.0010    0.0002   -0.0006    0.0006    0.0001   -0.0001    0.0002   -0.0001   -0.0023
    28 C3     4py        0.0000   -0.0000    0.0001    0.0000    0.0001   -0.0008   -0.0001    0.0000    0.0001   -0.0040
    29 C3     2pz        0.0004   -0.0007   -0.0003    0.0005   -0.0006    0.0003   -0.0001   -0.0004    0.0001   -0.0014
    30 C3     3pz        0.0004   -0.0005   -0.0005    0.0006   -0.0007    0.0000    0.0003   -0.0003    0.0001    0.0009
    31 C3     4pz       -0.0000    0.0002   -0.0001    0.0001   -0.0001   -0.0001    0.0001    0.0001    0.0000    0.0015
    32 C3     3d2-       0.0000    0.0000    0.0000   -0.0000    0.0000   -0.0001   -0.0000    0.0000    0.0000    0.0033
    33 C3     3d1-      -0.0000   -0.0001   -0.0000   -0.0000   -0.0000    0.0000    0.0001    0.0000   -0.0000   -0.0001
    34 C3     3d0       -0.0000   -0.0000    0.0001   -0.0000   -0.0001   -0.0000    0.0000    0.0001   -0.0000   -0.0023
    35 C3     3d1+       0.0000   -0.0000    0.0000   -0.0000   -0.0000    0.0001    0.0000   -0.0001    0.0000   -0.0012
    36 C3     3d2+      -0.0000   -0.0001    0.0001   -0.0000    0.0000    0.0001    0.0001    0.0000   -0.0000   -0.0009
    37 C4     1s         0.0000    0.0003   -0.0001    0.0003   -0.0002    0.0444    0.9991    0.0004   -0.0001    0.0003
    38 C4     2s         0.0002    0.0012   -0.0008    0.0011   -0.0016    0.0009    0.0029   -0.0006   -0.0006    0.0321
    39 C4     3s         0.0001   -0.0002   -0.0006    0.0005   -0.0013    0.0002    0.0003   -0.0005   -0.0005    0.0116
    40 C4     4s        -0.0000   -0.0003   -0.0002    0.0001   -0.0004    0.0001    0.0015   -0.0002   -0.0001    0.0041
    41 C4     2px        0.0000    0.0019    0.0003    0.0000    0.0003   -0.0005    0.0001    0.0001    0.0002   -0.0053
    42 C4     3px        0.0001    0.0012    0.0003   -0.0000    0.0003   -0.0001   -0.0000   -0.0002    0.0003   -0.0082
    43 C4     4px        0.0001   -0.0003    0.0000   -0.0000    0.0000    0.0002    0.0002   -0.0003    0.0001   -0.0025
    44 C4     2py       -0.0001   -0.0028   -0.0003    0.0013   -0.0001    0.0001    0.0008   -0.0004    0.0002   -0.0077
    45 C4     3py       -0.0002   -0.0020   -0.0001    0.0009   -0.0001    0.0003    0.0005   -0.0006    0.0002   -0.0034
    46 C4     4py       -0.0000    0.0003    0.0002   -0.0001   -0.0000    0.0002    0.0001   -0.0002   -0.0000   -0.0006
    47 C4     2pz       -0.0003   -0.0005    0.0002   -0.0011   -0.0001    0.0011   -0.0004    0.0002   -0.0003    0.0079
    48 C4     3pz       -0.0005   -0.0003    0.0003   -0.0008   -0.0001    0.0007   -0.0002    0.0008   -0.0004    0.0091
    49 C4     4pz       -0.0002    0.0001    0.0000    0.0001   -0.0000   -0.0001   -0.0003    0.0005   -0.0000    0.0026
    50 C4     3d2-       0.0000    0.0001    0.0001    0.0001    0.0000    0.0000   -0.0003   -0.0000    0.0000   -0.0014
    51 C4     3d1-      -0.0000   -0.0001    0.0001    0.0002    0.0000    0.0000   -0.0001   -0.0001   -0.0000   -0.0004
    52 C4     3d0        0.0000    0.0001   -0.0000    0.0001    0.0000    0.0000   -0.0002   -0.0000    0.0000   -0.0006
    53 C4     3d1+      -0.0000   -0.0001   -0.0000   -0.0000    0.0000   -0.0000   -0.0001   -0.0000    0.0000   -0.0008
    54 C4     3d2+       0.0000   -0.0000   -0.0001    0.0002    0.0000    0.0001   -0.0003   -0.0001    0.0000   -0.0007
    55 C6     1s         0.0000    0.0001   -0.0001    0.0003   -0.0001    0.0000   -0.0005    0.9997    0.0000    0.0003
    56 C6     2s         0.0002    0.0005   -0.0005    0.0014   -0.0005    0.0001   -0.0004    0.0001    0.0001    0.0061
    57 C6     3s         0.0001    0.0004   -0.0004    0.0003   -0.0005    0.0001   -0.0005   -0.0016    0.0000    0.0058
    58 C6     4s        -0.0000    0.0001   -0.0001   -0.0001   -0.0002   -0.0000   -0.0003    0.0009   -0.0000    0.0024
    59 C6     2px        0.0001   -0.0000   -0.0000   -0.0003    0.0001   -0.0003    0.0001   -0.0001    0.0000   -0.0033
    60 C6     3px        0.0000   -0.0000   -0.0000    0.0001    0.0001   -0.0002    0.0001    0.0002    0.0000   -0.0025
    61 C6     4px       -0.0000   -0.0000   -0.0000    0.0001    0.0000    0.0000    0.0000   -0.0004   -0.0000    0.0002
    62 C6     2py        0.0000   -0.0002   -0.0001    0.0001   -0.0001   -0.0001    0.0003    0.0002    0.0000    0.0002
    63 C6     3py        0.0001   -0.0001   -0.0002    0.0002   -0.0001   -0.0001    0.0004   -0.0000    0.0000   -0.0002
    64 C6     4py        0.0000    0.0001   -0.0000    0.0001    0.0000   -0.0000    0.0001   -0.0001    0.0000   -0.0005
    65 C6     2pz       -0.0000    0.0003   -0.0002    0.0004   -0.0003   -0.0000   -0.0004   -0.0000   -0.0000    0.0049
    66 C6     3pz       -0.0000    0.0002   -0.0002   -0.0002   -0.0003   -0.0001   -0.0005   -0.0002   -0.0000    0.0052
    67 C6     4pz       -0.0000   -0.0000   -0.0000   -0.0002   -0.0000   -0.0000   -0.0001    0.0006   -0.0000    0.0011
    68 C6     3d2-      -0.0000   -0.0000   -0.0000    0.0001   -0.0000   -0.0000    0.0000    0.0000   -0.0000    0.0002
    69 C6     3d1-       0.0000   -0.0000    0.0000   -0.0000   -0.0000   -0.0000   -0.0001   -0.0000    0.0000   -0.0001
    70 C6     3d0       -0.0000    0.0000   -0.0000   -0.0000   -0.0000    0.0000    0.0000   -0.0000   -0.0000    0.0002
    71 C6     3d1+       0.0000   -0.0000    0.0000    0.0001    0.0000   -0.0000   -0.0000    0.0001   -0.0000   -0.0002
    72 C6     3d2+      -0.0000    0.0000   -0.0000   -0.0000   -0.0000    0.0000   -0.0000   -0.0000   -0.0000    0.0002
    73 C19    1s         0.0002    0.0000   -0.0000   -0.0000    0.0035    0.0002   -0.0000   -0.0000    0.9999   -0.0144
    74 C19    2s         0.0012    0.0001   -0.0002   -0.0002    0.0005    0.0008   -0.0001   -0.0002    0.0019   -0.0125
    75 C19    3s         0.0007    0.0001   -0.0000   -0.0002    0.0002    0.0004   -0.0001   -0.0002   -0.0005   -0.0388
    76 C19    4s         0.0001   -0.0000   -0.0000   -0.0001    0.0001   -0.0000   -0.0001   -0.0001    0.0012   -0.0036
    77 C19    2px        0.0008    0.0001   -0.0004    0.0000   -0.0002    0.0002    0.0000   -0.0000   -0.0002   -0.0111
    78 C19    3px        0.0005    0.0001   -0.0003    0.0000   -0.0003    0.0002    0.0001    0.0000   -0.0001   -0.0075
    79 C19    4px       -0.0002    0.0000    0.0000    0.0000   -0.0000   -0.0000    0.0000    0.0000    0.0002    0.0075
    80 C19    2py       -0.0001   -0.0001    0.0003   -0.0001    0.0004    0.0003   -0.0001   -0.0001   -0.0002    0.0206
    81 C19    3py       -0.0002   -0.0001    0.0003   -0.0002   -0.0001    0.0001   -0.0001   -0.0001   -0.0000   -0.0064
    82 C19    4py       -0.0002   -0.0000   -0.0001   -0.0000   -0.0001   -0.0001   -0.0000   -0.0000    0.0004    0.0058
    83 C19    2pz       -0.0001   -0.0001    0.0001   -0.0000    0.0001    0.0002   -0.0000   -0.0000    0.0000    0.0002
    84 C19    3pz       -0.0001   -0.0001    0.0001   -0.0000    0.0001    0.0001   -0.0000   -0.0000    0.0000   -0.0002
    85 C19    4pz       -0.0000    0.0000   -0.0000   -0.0000   -0.0000   -0.0000   -0.0000    0.0000    0.0000    0.0003
    86 C19    3d2-       0.0001   -0.0000   -0.0000   -0.0000    0.0000    0.0001    0.0000   -0.0000   -0.0001    0.0000
    87 C19    3d1-       0.0000    0.0000   -0.0000   -0.0000    0.0000   -0.0000    0.0000    0.0000   -0.0000    0.0003
    88 C19    3d0       -0.0001   -0.0000   -0.0001    0.0000    0.0001   -0.0000    0.0000    0.0000    0.0001    0.0015
    89 C19    3d1+       0.0000    0.0000   -0.0000    0.0000   -0.0000   -0.0000   -0.0000    0.0000   -0.0000    0.0001
    90 C19    3d2+       0.0001   -0.0000   -0.0000    0.0000   -0.0001   -0.0000    0.0000    0.0000    0.0001   -0.0070
    91 N2     1s         0.0001   -0.0000    0.9999   -0.0000   -0.0002    0.0001    0.0001    0.0000    0.0001   -0.0176
    92 N2     2s         0.0006   -0.0002    0.0002    0.0000   -0.0002    0.0014    0.0006    0.0001    0.0006    0.1113
    93 N2     3s         0.0005   -0.0001   -0.0013    0.0000   -0.0003    0.0007    0.0005    0.0001    0.0004   -0.0477
    94 N2     4s         0.0001   -0.0000    0.0005    0.0000    0.0000    0.0002    0.0001    0.0000    0.0001   -0.0113
    95 N2     2px        0.0001    0.0004    0.0006   -0.0002   -0.0001    0.0008    0.0000   -0.0001   -0.0004   -0.0327
    96 N2     3px        0.0001    0.0004    0.0007   -0.0003    0.0002    0.0007    0.0001   -0.0001   -0.0002    0.0121
    97 N2     4px        0.0000   -0.0000   -0.0002   -0.0000   -0.0002    0.0000    0.0000   -0.0000    0.0001   -0.0063
    98 N2     2py       -0.0015    0.0001   -0.0006   -0.0001    0.0003    0.0009    0.0003   -0.0000   -0.0003    0.0360
    99 N2     3py       -0.0018    0.0001   -0.0001   -0.0003    0.0003    0.0009    0.0003   -0.0000   -0.0003    0.0154
   100 N2     4py       -0.0000    0.0000    0.0004   -0.0000   -0.0000    0.0002   -0.0001   -0.0000    0.0001   -0.0057
   101 N2     2pz       -0.0001    0.0004   -0.0002   -0.0001    0.0000   -0.0002    0.0001    0.0001   -0.0001    0.0033
   102 N2     3pz       -0.0001    0.0006   -0.0000   -0.0002   -0.0001   -0.0002   -0.0001    0.0001   -0.0002    0.0084
   103 N2     4pz        0.0000    0.0001   -0.0002   -0.0000   -0.0001   -0.0001    0.0000    0.0000   -0.0000   -0.0000
   104 N2     3d2-       0.0001    0.0000   -0.0002   -0.0000   -0.0001   -0.0000    0.0000   -0.0000   -0.0000   -0.0027
   105 N2     3d1-       0.0000    0.0000    0.0001   -0.0000   -0.0000    0.0000   -0.0000    0.0000    0.0000   -0.0007
   106 N2     3d0       -0.0000    0.0000   -0.0000    0.0000    0.0002    0.0001   -0.0000   -0.0000   -0.0001   -0.0026
   107 N2     3d1+      -0.0000    0.0000   -0.0000   -0.0000   -0.0000    0.0000   -0.0000    0.0000   -0.0000    0.0001
   108 N2     3d2+      -0.0000   -0.0000   -0.0000   -0.0000    0.0001   -0.0000    0.0000   -0.0000    0.0000    0.0048
   109 N5     1s         0.0000    0.0002    0.0001    0.9999    0.0001    0.0000   -0.0003    0.0001    0.0000   -0.0013
   110 N5     2s         0.0001    0.0010    0.0005    0.0005    0.0006    0.0001   -0.0003    0.0017    0.0000    0.0006
   111 N5     3s         0.0001    0.0007    0.0004   -0.0011    0.0004    0.0001   -0.0004    0.0010    0.0000   -0.0045
   112 N5     4s         0.0000    0.0001    0.0001    0.0006    0.0001   -0.0000    0.0000    0.0004    0.0000   -0.0010
   113 N5     2px       -0.0002   -0.0010    0.0002   -0.0007    0.0003    0.0001    0.0004    0.0005   -0.0001   -0.0003
   114 N5     3px       -0.0002   -0.0012    0.0004   -0.0004    0.0004    0.0002    0.0003    0.0006   -0.0002   -0.0011
   115 N5     4px       -0.0000    0.0000    0.0000    0.0002    0.0001    0.0001   -0.0000    0.0002   -0.0000   -0.0006
   116 N5     2py        0.0001    0.0007   -0.0002    0.0006    0.0001   -0.0002   -0.0002    0.0002    0.0000   -0.0027
   117 N5     3py        0.0001    0.0008   -0.0000    0.0003    0.0002   -0.0001   -0.0001   -0.0001    0.0000   -0.0020
   118 N5     4py        0.0000    0.0000    0.0001   -0.0003    0.0001    0.0001   -0.0002   -0.0001   -0.0000   -0.0008
   119 N5     2pz        0.0002    0.0009   -0.0002    0.0004   -0.0003    0.0002   -0.0003   -0.0008    0.0000    0.0048
   120 N5     3pz        0.0003    0.0010   -0.0004    0.0002   -0.0007    0.0001   -0.0004   -0.0006    0.0000    0.0076
   121 N5     4pz        0.0000   -0.0000   -0.0001   -0.0001   -0.0002   -0.0001    0.0002   -0.0001   -0.0000    0.0022
   122 N5     3d2-      -0.0000    0.0000    0.0000   -0.0001    0.0000   -0.0000    0.0001    0.0000   -0.0000    0.0001
   123 N5     3d1-      -0.0000   -0.0000   -0.0000    0.0001   -0.0000   -0.0000    0.0001    0.0001    0.0000   -0.0001
   124 N5     3d0       -0.0000    0.0001    0.0000   -0.0001   -0.0000    0.0000   -0.0000   -0.0000   -0.0000    0.0001
   125 N5     3d1+      -0.0000   -0.0001   -0.0000    0.0001    0.0000   -0.0000    0.0002    0.0001   -0.0000   -0.0000
   126 N5     3d2+      -0.0000    0.0000   -0.0000   -0.0000    0.0000   -0.0000    0.0000    0.0000    0.0000    0.0000
   127 O7     1s         0.9997    0.0000    0.0000    0.0000   -0.0002   -0.0000    0.0000    0.0000    0.0001   -0.0238
   128 O7     2s        -0.0016    0.0000    0.0002    0.0000    0.0004   -0.0002    0.0002    0.0000    0.0004    0.6948
   129 O7     3s        -0.0014    0.0000    0.0001    0.0000    0.0000   -0.0001    0.0001    0.0000    0.0003   -0.0343
   130 O7     4s        -0.0000   -0.0000    0.0000    0.0000    0.0000    0.0000    0.0000    0.0000    0.0001   -0.0139
   131 O7     2px        0.0001    0.0001   -0.0003    0.0001    0.0004   -0.0001    0.0001    0.0000    0.0001    0.0914
   132 O7     3px       -0.0003    0.0001   -0.0004    0.0001   -0.0001   -0.0001    0.0001    0.0000    0.0001   -0.0273
   133 O7     4px        0.0009    0.0000   -0.0001    0.0000    0.0001    0.0000    0.0000   -0.0000   -0.0000   -0.0016
   134 O7     2py       -0.0001   -0.0000   -0.0002    0.0001   -0.0006   -0.0000    0.0000   -0.0000   -0.0001   -0.1171
   135 O7     3py        0.0006   -0.0000   -0.0002    0.0001   -0.0004   -0.0001    0.0001   -0.0000   -0.0001    0.0359
   136 O7     4py       -0.0011    0.0000    0.0001    0.0000   -0.0003   -0.0000    0.0000   -0.0000    0.0001   -0.0000
   137 O7     2pz       -0.0000    0.0000   -0.0000   -0.0000    0.0001    0.0000   -0.0000   -0.0000   -0.0000    0.0016
   138 O7     3pz       -0.0000    0.0000   -0.0000   -0.0000   -0.0000    0.0000   -0.0001   -0.0000   -0.0000    0.0015
   139 O7     4pz       -0.0000   -0.0000   -0.0000   -0.0000   -0.0000    0.0000   -0.0000   -0.0000   -0.0000    0.0003
   140 O7     3d2-       0.0001   -0.0000    0.0000   -0.0000   -0.0002    0.0000   -0.0000   -0.0000   -0.0000   -0.0186
   141 O7     3d1-      -0.0000   -0.0000    0.0000   -0.0000    0.0000    0.0000   -0.0000   -0.0000    0.0000    0.0002
   142 O7     3d0       -0.0000   -0.0000   -0.0001   -0.0000   -0.0001    0.0000    0.0000    0.0000   -0.0000   -0.0107
   143 O7     3d1+      -0.0000   -0.0000    0.0000   -0.0000    0.0000    0.0000    0.0000   -0.0000   -0.0000   -0.0002
   144 O7     3d2+       0.0000   -0.0000   -0.0001    0.0000   -0.0001   -0.0000    0.0000    0.0000   -0.0000   -0.0053
   145 O8     1s        -0.0000    0.9997   -0.0000    0.0000    0.0000    0.0000   -0.0002   -0.0000    0.0000   -0.0015
   146 O8     2s        -0.0001   -0.0016   -0.0003    0.0002    0.0002    0.0002    0.0007   -0.0003    0.0002    0.0157
   147 O8     3s        -0.0001   -0.0015   -0.0002    0.0002    0.0002    0.0002    0.0001   -0.0002    0.0001   -0.0039
   148 O8     4s        -0.0000    0.0000   -0.0001    0.0000    0.0001    0.0000    0.0000   -0.0000    0.0000   -0.0011
   149 O8     2px       -0.0000   -0.0001    0.0001   -0.0001   -0.0000   -0.0000   -0.0003    0.0000   -0.0001   -0.0022
   150 O8     3px       -0.0000    0.0003    0.0001   -0.0000   -0.0001    0.0000   -0.0001   -0.0000   -0.0001    0.0019
   151 O8     4px       -0.0000   -0.0008   -0.0000    0.0001   -0.0000    0.0000   -0.0001   -0.0000    0.0000   -0.0001
   152 O8     2py        0.0000    0.0002   -0.0000   -0.0002    0.0000    0.0001    0.0007   -0.0001   -0.0000    0.0021
   153 O8     3py        0.0001   -0.0004   -0.0000   -0.0002    0.0001    0.0001    0.0001   -0.0000   -0.0000   -0.0020
   154 O8     4py        0.0000    0.0011   -0.0000   -0.0001    0.0000   -0.0000    0.0001    0.0000   -0.0000    0.0003
   155 O8     2pz        0.0000   -0.0000   -0.0002    0.0003    0.0000   -0.0001    0.0001    0.0000    0.0001    0.0010
   156 O8     3pz        0.0000   -0.0002   -0.0002    0.0003   -0.0000   -0.0001    0.0001   -0.0000    0.0001   -0.0003
   157 O8     4pz        0.0000    0.0003   -0.0001   -0.0000   -0.0000   -0.0001    0.0001   -0.0000    0.0000    0.0003
   158 O8     3d2-      -0.0000    0.0001    0.0000   -0.0000    0.0000   -0.0000   -0.0002    0.0000   -0.0000   -0.0004
   159 O8     3d1-      -0.0000   -0.0001   -0.0000    0.0000    0.0000   -0.0000    0.0001    0.0000    0.0000    0.0002
   160 O8     3d0       -0.0000    0.0001    0.0000    0.0000    0.0000    0.0000   -0.0001    0.0000   -0.0000   -0.0003
   161 O8     3d1+      -0.0000   -0.0000    0.0000   -0.0001    0.0000   -0.0000    0.0000   -0.0000   -0.0000   -0.0002
   162 O8     3d2+      -0.0000    0.0000   -0.0000    0.0000    0.0000   -0.0000   -0.0001    0.0000    0.0000   -0.0000
   163 H9     1s         0.0002    0.0001    0.0000   -0.0001   -0.0001   -0.0003   -0.0002   -0.0000    0.0003    0.0150
   164 H9     2s         0.0001    0.0001   -0.0000   -0.0000   -0.0000   -0.0002   -0.0002   -0.0000   -0.0003    0.0040
   165 H9     2px       -0.0000    0.0000    0.0000   -0.0000    0.0000   -0.0000   -0.0000   -0.0000   -0.0000    0.0009
   166 H9     2py       -0.0001    0.0000   -0.0000   -0.0000    0.0001   -0.0000   -0.0000   -0.0000    0.0000    0.0013
   167 H9     2pz       -0.0000   -0.0000    0.0000    0.0000   -0.0000    0.0000    0.0000    0.0000    0.0001   -0.0007
   168 H10    1s         0.0001   -0.0002    0.0002   -0.0001    0.0001   -0.0000   -0.0001   -0.0001    0.0003    0.0138
   169 H10    2s         0.0000   -0.0002    0.0001   -0.0001    0.0001   -0.0000   -0.0001   -0.0001   -0.0003    0.0031
   170 H10    2px       -0.0000   -0.0000    0.0001   -0.0000    0.0000   -0.0000   -0.0000   -0.0000   -0.0000    0.0008
   171 H10    2py       -0.0001   -0.0000   -0.0000   -0.0000    0.0001   -0.0000    0.0000   -0.0000    0.0000    0.0011
   172 H10    2pz        0.0000   -0.0000   -0.0000   -0.0000    0.0000   -0.0000   -0.0000   -0.0000   -0.0001    0.0006
   173 H11    1s        -0.0005   -0.0001    0.0004   -0.0001    0.0003   -0.0001   -0.0001   -0.0001    0.0004    0.0207
   174 H11    2s        -0.0003   -0.0001    0.0004   -0.0001    0.0002   -0.0001   -0.0001   -0.0001   -0.0002    0.0062
   175 H11    2px       -0.0000    0.0000   -0.0001    0.0000   -0.0000    0.0000    0.0000    0.0000    0.0001   -0.0002
   176 H11    2py       -0.0000   -0.0000    0.0000   -0.0000    0.0001    0.0000   -0.0000   -0.0000   -0.0000    0.0019
   177 H11    2pz        0.0000    0.0000   -0.0000    0.0000   -0.0000   -0.0000    0.0000    0.0000   -0.0000    0.0000
   178 H12    1s        -0.0011    0.0001   -0.0009    0.0001    0.0001   -0.0001    0.0001   -0.0001   -0.0005    0.0376
   179 H12    2s        -0.0006    0.0001   -0.0006    0.0000   -0.0000   -0.0000    0.0001   -0.0001   -0.0003   -0.0012
   180 H12    2px        0.0000   -0.0001    0.0002    0.0000   -0.0001    0.0000   -0.0000    0.0000    0.0000   -0.0042
   181 H12    2py       -0.0000    0.0000   -0.0004    0.0000    0.0000    0.0000    0.0000   -0.0000   -0.0000    0.0040
   182 H12    2pz       -0.0000   -0.0000   -0.0001   -0.0000    0.0000    0.0000    0.0000   -0.0000   -0.0000    0.0010
   183 H13    1s         0.0004   -0.0009   -0.0005    0.0005   -0.0003    0.0008   -0.0002   -0.0001    0.0002    0.0117
   184 H13    2s         0.0003   -0.0006   -0.0002    0.0004   -0.0001    0.0000   -0.0002   -0.0001    0.0001   -0.0041
   185 H13    2px        0.0000   -0.0001    0.0000    0.0000   -0.0001    0.0000    0.0000    0.0000    0.0000   -0.0003
   186 H13    2py       -0.0000    0.0000   -0.0000   -0.0001    0.0000   -0.0001   -0.0000   -0.0000   -0.0000   -0.0011
   187 H13    2pz       -0.0000    0.0000    0.0000    0.0000    0.0000   -0.0000   -0.0000   -0.0000   -0.0000    0.0004
   188 H14    1s         0.0001    0.0007   -0.0004   -0.0003   -0.0003    0.0009   -0.0001   -0.0000   -0.0003    0.0141
   189 H14    2s         0.0000    0.0004   -0.0002   -0.0003   -0.0002    0.0002    0.0000   -0.0000   -0.0002    0.0044
   190 H14    2px       -0.0000   -0.0001    0.0000   -0.0000    0.0000    0.0000    0.0000    0.0000    0.0000   -0.0008
   191 H14    2py       -0.0000   -0.0000    0.0000    0.0000   -0.0000   -0.0000   -0.0000   -0.0000    0.0000   -0.0005
   192 H14    2pz       -0.0000   -0.0000    0.0000    0.0000    0.0000    0.0000   -0.0001    0.0000    0.0000   -0.0010
   193 H15    1s        -0.0002   -0.0013    0.0003   -0.0008    0.0001    0.0001    0.0004   -0.0001   -0.0001    0.0018
   194 H15    2s        -0.0001   -0.0007    0.0002   -0.0006    0.0001    0.0001    0.0001   -0.0000   -0.0001   -0.0000
   195 H15    2px       -0.0000   -0.0001    0.0000   -0.0003   -0.0000    0.0000    0.0000    0.0000   -0.0000    0.0005
   196 H15    2py        0.0000    0.0001   -0.0000    0.0004   -0.0000   -0.0000   -0.0001    0.0000    0.0000   -0.0002
   197 H15    2pz        0.0000    0.0000    0.0000    0.0001    0.0000   -0.0000    0.0001   -0.0000    0.0000   -0.0005
   198 H16    1s         0.0000    0.0004   -0.0001   -0.0005   -0.0002   -0.0002   -0.0004    0.0005   -0.0001    0.0037
   199 H16    2s         0.0000    0.0003   -0.0001   -0.0002   -0.0001   -0.0001   -0.0003   -0.0001   -0.0001    0.0030
   200 H16    2px       -0.0000    0.0000   -0.0000    0.0000   -0.0000   -0.0000   -0.0000   -0.0000    0.0000    0.0002
   201 H16    2py       -0.0000   -0.0000    0.0000    0.0000    0.0000    0.0000    0.0000   -0.0000    0.0000   -0.0001
   202 H16    2pz        0.0000    0.0000   -0.0000   -0.0000   -0.0000   -0.0000   -0.0001    0.0000   -0.0000    0.0002
   203 H17    1s        -0.0001    0.0003    0.0002   -0.0005    0.0000    0.0002   -0.0003    0.0005   -0.0000    0.0019
   204 H17    2s        -0.0001    0.0002    0.0001   -0.0002   -0.0000    0.0001   -0.0002   -0.0001   -0.0000    0.0013
   205 H17    2px        0.0000   -0.0000   -0.0000    0.0000   -0.0000    0.0000    0.0000   -0.0000    0.0000   -0.0001
   206 H17    2py        0.0000   -0.0000   -0.0000    0.0000    0.0000   -0.0000    0.0000    0.0000    0.0000   -0.0003
   207 H17    2pz        0.0000    0.0000    0.0000   -0.0000   -0.0000   -0.0000    0.0000    0.0000    0.0000   -0.0001
   208 H18    1s        -0.0001   -0.0000   -0.0002   -0.0001   -0.0003    0.0001    0.0000    0.0010   -0.0001    0.0057
   209 H18    2s        -0.0001    0.0001   -0.0001   -0.0000   -0.0002    0.0001    0.0001    0.0001   -0.0000    0.0036
   210 H18    2px        0.0000    0.0000    0.0000   -0.0000    0.0000   -0.0000   -0.0000   -0.0001    0.0000   -0.0004
   211 H18    2py       -0.0000    0.0000   -0.0000    0.0000   -0.0000    0.0000   -0.0000    0.0001   -0.0000    0.0006
   212 H18    2pz       -0.0000   -0.0000    0.0000    0.0000   -0.0000    0.0000    0.0000    0.0000   -0.0000    0.0001
 
 
      Orbital                11        12        13        14        15        16        17        18        19        20
      Energy            -1.3568   -1.2544   -1.2104   -1.0290   -0.9702   -0.9138   -0.8171   -0.7749   -0.7182   -0.6955
      Occ. No.           2.0000    2.0000    2.0000    2.0000    2.0000    2.0000    2.0000    2.0000    2.0000    2.0000
 
     1 C1     1s         0.0029    0.0082    0.0026   -0.0170   -0.0016    0.0069    0.0143    0.0014    0.0066    0.0029
     2 C1     2s         0.0090   -0.1387    0.0047    0.2736   -0.0375   -0.0857   -0.3813   -0.0370   -0.2544   -0.0578
     3 C1     3s         0.0144   -0.0033    0.0136   -0.0207   -0.0075    0.0131    0.0056   -0.0000    0.0073    0.0168
     4 C1     4s         0.0047   -0.0013    0.0043   -0.0056   -0.0028    0.0052    0.0028    0.0003    0.0038    0.0028
     5 C1     2px        0.0341   -0.1500    0.0138   -0.0032    0.1039   -0.0963   -0.1256   -0.0097    0.1691    0.2548
     6 C1     3px        0.0210    0.0465    0.0307   -0.0416   -0.0239    0.0331    0.0258   -0.0124   -0.0710   -0.0603
     7 C1     4px        0.0098   -0.0255    0.0045   -0.0072    0.0123   -0.0072   -0.0089   -0.0028    0.0069    0.0168
     8 C1     2py        0.0119    0.0293    0.0248   -0.1582    0.0591    0.0027   -0.0587    0.0331    0.0528   -0.1439
     9 C1     3py        0.0291   -0.0455    0.0276    0.0157   -0.0528    0.0446    0.0132   -0.0044   -0.0077    0.0577
    10 C1     4py        0.0014    0.0047    0.0056   -0.0250    0.0061    0.0035   -0.0071    0.0021   -0.0030   -0.0083
    11 C1     2pz        0.0015    0.0090   -0.0025    0.0013    0.0066   -0.0075   -0.0144    0.0040    0.0089   -0.0056
    12 C1     3pz        0.0016    0.0109   -0.0043    0.0040    0.0036   -0.0065   -0.0040    0.0025    0.0018   -0.0000
    13 C1     4pz       -0.0004    0.0014   -0.0014    0.0018    0.0016   -0.0022   -0.0010    0.0012    0.0020   -0.0011
    14 C1     3d2-       0.0031   -0.0161   -0.0006    0.0083   -0.0086    0.0059   -0.0130    0.0069    0.0188    0.0074
    15 C1     3d1-      -0.0002    0.0006   -0.0000    0.0004   -0.0002    0.0000   -0.0009    0.0002   -0.0005   -0.0009
    16 C1     3d0        0.0003    0.0067    0.0003   -0.0116   -0.0004    0.0048    0.0136    0.0013    0.0060    0.0022
    17 C1     3d1+       0.0002   -0.0000    0.0000    0.0010    0.0010   -0.0006   -0.0027    0.0011    0.0032    0.0001
    18 C1     3d2+       0.0026   -0.0267   -0.0015    0.0012    0.0154   -0.0130   -0.0088   -0.0010    0.0149    0.0160
    19 C3     1s        -0.0161    0.0293   -0.0051    0.0322    0.0266   -0.0194    0.0073   -0.0054    0.0007    0.0006
    20 C3     2s         0.0276   -0.1745    0.0108   -0.2920   -0.2612    0.3225   -0.1053    0.0669   -0.0357    0.0380
    21 C3     3s        -0.0413    0.0494   -0.0158    0.0534    0.0432   -0.0091    0.0136   -0.0099    0.0041    0.0009
    22 C3     4s        -0.0058    0.0110   -0.0018    0.0154    0.0107   -0.0039    0.0041   -0.0037    0.0025   -0.0018
    23 C3     2px        0.0267    0.0551    0.0178   -0.0164   -0.0524    0.0267    0.0559   -0.1145   -0.2386    0.0823
    24 C3     3px        0.0140   -0.0084    0.0191   -0.0248    0.0100    0.0356   -0.0104    0.0157    0.0305   -0.0124
    25 C3     4px        0.0062    0.0029    0.0063   -0.0055   -0.0016    0.0054    0.0026   -0.0071   -0.0048    0.0022
    26 C3     2py       -0.0322    0.0924    0.0204    0.0064   -0.0437   -0.0349   -0.1409   -0.0106   -0.0285    0.2175
    27 C3     3py       -0.0051   -0.0128    0.0008   -0.0291    0.0128   -0.0227    0.0074    0.0095    0.0090   -0.0308
    28 C3     4py        0.0053    0.0038    0.0027   -0.0097   -0.0072    0.0027   -0.0076    0.0065   -0.0017    0.0086
    29 C3     2pz       -0.0028   -0.0134   -0.0206    0.0072    0.0341    0.0524   -0.0096    0.1120    0.0970   -0.1072
    30 C3     3pz        0.0204   -0.0196   -0.0015   -0.0215   -0.0309    0.0292   -0.0095   -0.0171   -0.0159    0.0137
    31 C3     4pz       -0.0061   -0.0103   -0.0017   -0.0103   -0.0075    0.0168   -0.0020    0.0052   -0.0016   -0.0003
    32 C3     3d2-       0.0024   -0.0181    0.0030   -0.0034    0.0052   -0.0017    0.0049    0.0020    0.0125   -0.0196
    33 C3     3d1-       0.0051    0.0026   -0.0041    0.0014    0.0004    0.0017    0.0004   -0.0011   -0.0069    0.0043
    34 C3     3d0       -0.0001    0.0099    0.0033    0.0018   -0.0087   -0.0030   -0.0009   -0.0121   -0.0183    0.0121
    35 C3     3d1+      -0.0029    0.0033   -0.0005    0.0052    0.0080    0.0014   -0.0005    0.0095    0.0081   -0.0062
    36 C3     3d2+       0.0016    0.0107   -0.0001    0.0017   -0.0062   -0.0017   -0.0179   -0.0046   -0.0047    0.0174
    37 C4     1s        -0.0398   -0.0076   -0.0056    0.0085    0.0143    0.0084    0.0026    0.0162    0.0024   -0.0024
    38 C4     2s         0.3633   -0.0179    0.1194   -0.0927   -0.2264   -0.0609   -0.0327   -0.4069   -0.0665    0.0637
    39 C4     3s        -0.0068   -0.0229    0.0078    0.0209    0.0103    0.0180    0.0044    0.0076    0.0033   -0.0010
    40 C4     4s         0.0019   -0.0060    0.0022    0.0068    0.0036    0.0055    0.0012    0.0049    0.0030   -0.0022
    41 C4     2px        0.0661    0.0399   -0.0238    0.0424    0.0937    0.0048   -0.0012   -0.0013    0.0782   -0.0631
    42 C4     3px       -0.0315   -0.0073    0.0463   -0.0350    0.0120    0.0450   -0.0072   -0.0114   -0.0304    0.0263
    43 C4     4px        0.0184    0.0071   -0.0003    0.0016    0.0140    0.0068   -0.0022   -0.0031    0.0006    0.0002
    44 C4     2py       -0.0596    0.0021    0.1592   -0.0226   -0.0592   -0.0722   -0.0182   -0.1009    0.0604   -0.0033
    45 C4     3py        0.0584    0.0343   -0.0332    0.0057    0.0382    0.0423   -0.0130    0.0176   -0.0284    0.0084
    46 C4     4py       -0.0172    0.0028    0.0307   -0.0021   -0.0038   -0.0045   -0.0079   -0.0050    0.0033    0.0004
    47 C4     2pz       -0.0467   -0.0253   -0.0844   -0.0489   -0.0802    0.0318    0.0072    0.0559   -0.1739    0.1048
    48 C4     3pz       -0.0033    0.0153   -0.0426    0.0322   -0.0186   -0.1164    0.0148   -0.0023    0.0651   -0.0474
    49 C4     4pz       -0.0124   -0.0038   -0.0216   -0.0055   -0.0127   -0.0088    0.0036    0.0063   -0.0058    0.0008
    50 C4     3d2-      -0.0334   -0.0068    0.0123   -0.0010    0.0024    0.0041    0.0043   -0.0047    0.0039   -0.0089
    51 C4     3d1-       0.0027    0.0039   -0.0245    0.0015    0.0061    0.0124   -0.0044    0.0158   -0.0097    0.0119
    52 C4     3d0       -0.0172   -0.0051    0.0077   -0.0050   -0.0032    0.0076    0.0004   -0.0096   -0.0022   -0.0023
    53 C4     3d1+      -0.0114    0.0019    0.0026    0.0072    0.0084   -0.0092    0.0039    0.0112    0.0039   -0.0032
    54 C4     3d2+      -0.0158   -0.0043   -0.0100   -0.0032    0.0036    0.0144   -0.0031    0.0047   -0.0028    0.0024
    55 C6     1s        -0.0089   -0.0056   -0.0344   -0.0144   -0.0370   -0.0427    0.0054    0.0081    0.0045   -0.0061
    56 C6     2s         0.0315   -0.0227    0.1597    0.0671    0.2410    0.3811   -0.0383   -0.1088   -0.0408    0.0476
    57 C6     3s        -0.0123   -0.0265   -0.0597   -0.0273   -0.0713   -0.0680    0.0149    0.0153    0.0114   -0.0175
    58 C6     4s        -0.0002   -0.0074   -0.0099   -0.0048   -0.0153   -0.0139    0.0041    0.0041    0.0030   -0.0047
    59 C6     2px       -0.0111    0.0025   -0.0601   -0.0136   -0.0123    0.0178   -0.0232   -0.1039   -0.0058    0.0495
    60 C6     3px        0.0024    0.0045    0.0108    0.0018    0.0085    0.0010    0.0001    0.0068    0.0029   -0.0088
    61 C6     4px       -0.0021    0.0002   -0.0016    0.0026    0.0066    0.0112   -0.0027   -0.0080   -0.0001    0.0023
    62 C6     2py       -0.0089   -0.0044   -0.0127   -0.0017    0.0037    0.0194    0.0019    0.0965   -0.0984    0.0820
    63 C6     3py       -0.0001   -0.0031    0.0048    0.0012    0.0082    0.0142   -0.0036   -0.0026    0.0095   -0.0076
    64 C6     4py       -0.0008   -0.0003    0.0023    0.0004    0.0038    0.0039    0.0012    0.0046   -0.0056    0.0041
    65 C6     2pz        0.0208   -0.0099    0.0861    0.0149    0.0091   -0.0283    0.0244    0.0622    0.0716   -0.1176
    66 C6     3pz       -0.0026   -0.0154   -0.0172   -0.0062   -0.0216   -0.0021   -0.0002   -0.0050   -0.0114    0.0172
    67 C6     4pz        0.0030   -0.0015    0.0003   -0.0024   -0.0123   -0.0167    0.0027    0.0071    0.0036   -0.0053
    68 C6     3d2-       0.0005   -0.0003    0.0024   -0.0000   -0.0012   -0.0018    0.0000   -0.0006   -0.0002   -0.0001
    69 C6     3d1-      -0.0014   -0.0004   -0.0027   -0.0009   -0.0005    0.0012    0.0004    0.0090   -0.0074    0.0060
    70 C6     3d0        0.0026    0.0002    0.0117    0.0020    0.0022   -0.0021    0.0021    0.0052    0.0042   -0.0077
    71 C6     3d1+      -0.0042   -0.0004   -0.0192   -0.0041   -0.0061    0.0015   -0.0033   -0.0115   -0.0078    0.0137
    72 C6     3d2+       0.0010   -0.0001    0.0071    0.0013    0.0014   -0.0010    0.0018    0.0104   -0.0020   -0.0014
    73 C19    1s         0.0008    0.0097    0.0021   -0.0570    0.0420   -0.0205   -0.0129   -0.0033   -0.0092    0.0021
    74 C19    2s         0.0054   -0.0036    0.0096    0.3060   -0.2724    0.1549    0.0773    0.0414    0.0954   -0.0008
    75 C19    3s         0.0067    0.0268    0.0131   -0.1123    0.0779   -0.0346   -0.0338   -0.0051   -0.0172    0.0116
    76 C19    4s         0.0029    0.0032    0.0044   -0.0239    0.0174   -0.0077   -0.0094   -0.0019   -0.0052    0.0032
    77 C19    2px        0.0007   -0.0254   -0.0014    0.0528    0.0021   -0.0260   -0.0405   -0.0240   -0.0456    0.1317
    78 C19    3px       -0.0028   -0.0000   -0.0010    0.0044    0.0036   -0.0016    0.0032    0.0055    0.0110   -0.0119
    79 C19    4px       -0.0012   -0.0005   -0.0009   -0.0078    0.0115   -0.0080   -0.0013   -0.0032   -0.0056    0.0031
    80 C19    2py        0.0058   -0.0086    0.0071    0.0501   -0.0098   -0.0165   -0.0660   -0.0386   -0.2126   -0.0454
    81 C19    3py        0.0068    0.0041    0.0082   -0.0301    0.0182   -0.0026    0.0114   -0.0012    0.0233    0.0103
    82 C19    4py        0.0002   -0.0008    0.0001   -0.0131    0.0146   -0.0096   -0.0132   -0.0023   -0.0087   -0.0012
    83 C19    2pz        0.0035    0.0030    0.0013    0.0005    0.0005    0.0009   -0.0049   -0.0024   -0.0008   -0.0031
    84 C19    3pz        0.0035    0.0026    0.0019   -0.0024   -0.0001    0.0021   -0.0004   -0.0025   -0.0002    0.0001
    85 C19    4pz        0.0000   -0.0004    0.0004   -0.0005   -0.0002    0.0001    0.0000   -0.0000   -0.0003    0.0002
    86 C19    3d2-       0.0006   -0.0061   -0.0003    0.0105   -0.0017   -0.0026   -0.0072   -0.0029   -0.0129    0.0002
    87 C19    3d1-      -0.0001   -0.0002    0.0000    0.0007   -0.0003   -0.0000   -0.0004   -0.0001   -0.0006    0.0000
    88 C19    3d0       -0.0001    0.0008    0.0001   -0.0089    0.0036    0.0006    0.0034    0.0026    0.0079   -0.0083
    89 C19    3d1+      -0.0002   -0.0005    0.0000    0.0002   -0.0003   -0.0000    0.0001   -0.0001   -0.0005    0.0004
    90 C19    3d2+       0.0004   -0.0019   -0.0002   -0.0081    0.0049   -0.0008    0.0039    0.0023    0.0152    0.0044
    91 N2     1s        -0.0058    0.0411    0.0015   -0.0042   -0.0047    0.0018   -0.0046    0.0007    0.0028   -0.0006
    92 N2     2s         0.0644   -0.5858   -0.0320   -0.0244    0.2067   -0.1098    0.1502    0.0017    0.1237   -0.0578
    93 N2     3s        -0.0109    0.0789    0.0020   -0.0119    0.0010   -0.0011   -0.0100    0.0021    0.0129   -0.0004
    94 N2     4s        -0.0029    0.0254    0.0011   -0.0012   -0.0021    0.0011   -0.0037    0.0001    0.0004    0.0005
    95 N2     2px        0.0122    0.0357    0.0076   -0.1446   -0.0432    0.1154    0.3720    0.0013   -0.1209   -0.2688
    96 N2     3px        0.0036    0.0153    0.0096    0.0171    0.0443   -0.0615   -0.1045   -0.0028    0.0049    0.0608
    97 N2     4px        0.0029   -0.0007    0.0017   -0.0068    0.0081   -0.0053    0.0026   -0.0000   -0.0017    0.0063
    98 N2     2py       -0.0006    0.0064    0.0048   -0.1212   -0.0527    0.1125   -0.2066    0.1440    0.2386   -0.2094
    99 N2     3py       -0.0125    0.0486   -0.0017    0.0449    0.0551   -0.0579    0.0291   -0.0385   -0.0528    0.0302
   100 N2     4py       -0.0007    0.0131   -0.0000   -0.0002    0.0051   -0.0053   -0.0087   -0.0023   -0.0010    0.0048
   101 N2     2pz       -0.0125    0.0072    0.0014    0.0131    0.0018   -0.0021   -0.0193    0.0294    0.0501   -0.0317
   102 N2     3pz       -0.0101   -0.0194   -0.0004    0.0095   -0.0023   -0.0066    0.0215   -0.0027   -0.0087    0.0046
   103 N2     4pz       -0.0021   -0.0006    0.0001    0.0015   -0.0000   -0.0000    0.0009    0.0007   -0.0012    0.0017
   104 N2     3d2-       0.0014   -0.0074    0.0000   -0.0016   -0.0077    0.0084   -0.0070    0.0044    0.0065   -0.0027
   105 N2     3d1-      -0.0005   -0.0004   -0.0005    0.0019    0.0022   -0.0015    0.0044   -0.0001   -0.0021    0.0006
   106 N2     3d0       -0.0019    0.0164    0.0009    0.0016   -0.0038    0.0014    0.0003   -0.0009   -0.0028    0.0002
   107 N2     3d1+      -0.0008    0.0004    0.0003    0.0015   -0.0002   -0.0009   -0.0050    0.0011    0.0029    0.0019
   108 N2     3d2+       0.0009   -0.0052    0.0002    0.0102    0.0066   -0.0113   -0.0186   -0.0044   -0.0018    0.0141
   109 N5     1s        -0.0202   -0.0001   -0.0423   -0.0016    0.0015    0.0027   -0.0012   -0.0024    0.0022   -0.0019
   110 N5     2s         0.1351    0.0223    0.5764    0.0413   -0.0130   -0.2210    0.0638    0.1758    0.0701   -0.1080
   111 N5     3s        -0.0503    0.0000   -0.0788   -0.0047   -0.0019   -0.0148    0.0016    0.0033    0.0113   -0.0116
   112 N5     4s        -0.0119   -0.0010   -0.0262   -0.0025   -0.0017   -0.0017    0.0002   -0.0014    0.0012   -0.0010
   113 N5     2px        0.0205    0.0192   -0.0043    0.0351    0.0697    0.0726   -0.0146   -0.1394    0.1196   -0.1226
   114 N5     3px        0.0020    0.0220   -0.0277    0.0084   -0.0272   -0.0631    0.0044    0.0367   -0.0199    0.0254
   115 N5     4px       -0.0046    0.0033   -0.0077    0.0028    0.0008   -0.0039    0.0000   -0.0050    0.0014   -0.0001
   116 N5     2py       -0.0342   -0.0035   -0.0082    0.0179    0.0673    0.0577    0.0436    0.3617   -0.1939    0.1074
   117 N5     3py        0.0130    0.0069    0.0243   -0.0004   -0.0017   -0.0082   -0.0041   -0.0927    0.0320   -0.0175
   118 N5     4py       -0.0027    0.0025    0.0087    0.0032    0.0042   -0.0008    0.0002    0.0055   -0.0011    0.0018
   119 N5     2pz       -0.0008   -0.0271    0.0154   -0.0530   -0.1500   -0.1340   -0.0033   -0.0926   -0.0188    0.0787
   120 N5     3pz       -0.0148   -0.0362    0.0181    0.0113    0.0336    0.0816    0.0059    0.0228    0.0052   -0.0198
   121 N5     4pz        0.0072   -0.0059    0.0026   -0.0002   -0.0041    0.0040    0.0020    0.0021   -0.0007   -0.0010
   122 N5     3d2-      -0.0021   -0.0008   -0.0028   -0.0011   -0.0001    0.0052   -0.0014   -0.0091    0.0016   -0.0013
   123 N5     3d1-      -0.0042   -0.0003   -0.0130    0.0014    0.0052    0.0048    0.0020    0.0151   -0.0049    0.0016
   124 N5     3d0       -0.0018   -0.0010    0.0049    0.0000    0.0021    0.0064   -0.0008   -0.0032    0.0001   -0.0012
   125 N5     3d1+       0.0007    0.0004   -0.0118   -0.0019   -0.0054   -0.0056   -0.0007   -0.0068    0.0012    0.0013
   126 N5     3d2+      -0.0043   -0.0011   -0.0057    0.0008    0.0052    0.0086    0.0007    0.0077   -0.0036    0.0004
   127 O7     1s         0.0007   -0.0023   -0.0007   -0.0044    0.0023    0.0003    0.0138   -0.0002    0.0152    0.0208
   128 O7     2s        -0.0647    0.3010    0.0069   -0.2076    0.0562    0.0283    0.3537   -0.0144    0.2518    0.3361
   129 O7     3s        -0.0018    0.0097   -0.0028   -0.0202    0.0103   -0.0004    0.0436   -0.0012    0.0427    0.0591
   130 O7     4s         0.0000    0.0003   -0.0010   -0.0035    0.0026   -0.0007    0.0085   -0.0005    0.0085    0.0126
   131 O7     2px       -0.0077    0.0018   -0.0036   -0.0027    0.0261   -0.0314   -0.1837    0.0144   -0.1184   -0.2310
   132 O7     3px       -0.0025   -0.0011   -0.0039   -0.0097    0.0018    0.0032    0.0239   -0.0007    0.0097    0.0212
   133 O7     4px       -0.0004   -0.0007   -0.0006   -0.0013   -0.0007    0.0013    0.0021    0.0002    0.0002    0.0014
   134 O7     2py        0.0092   -0.0389   -0.0025   -0.0356    0.0243    0.0032    0.1560    0.0026    0.2875    0.3899
   135 O7     3py       -0.0038   -0.0001   -0.0025    0.0117   -0.0010   -0.0018   -0.0250   -0.0024   -0.0340   -0.0409
   136 O7     4py       -0.0010    0.0013   -0.0005   -0.0011    0.0000    0.0009   -0.0030   -0.0001   -0.0043   -0.0062
   137 O7     2pz       -0.0007   -0.0013    0.0004    0.0016    0.0012   -0.0001    0.0005   -0.0011    0.0003    0.0032
   138 O7     3pz       -0.0007   -0.0016    0.0013    0.0012    0.0005    0.0003    0.0013   -0.0018   -0.0009   -0.0003
   139 O7     4pz       -0.0001   -0.0003    0.0004    0.0004    0.0003    0.0001    0.0004   -0.0007    0.0000    0.0000
   140 O7     3d2-       0.0014   -0.0037   -0.0001    0.0007   -0.0018    0.0023    0.0121   -0.0003    0.0115    0.0183
   141 O7     3d1-       0.0000    0.0003    0.0000   -0.0001   -0.0001    0.0001    0.0001   -0.0000   -0.0004   -0.0004
   142 O7     3d0        0.0009   -0.0042   -0.0003    0.0014    0.0002   -0.0002    0.0052   -0.0005    0.0069    0.0115
   143 O7     3d1+      -0.0001    0.0000    0.0000    0.0002    0.0001   -0.0001    0.0001   -0.0000    0.0002    0.0001
   144 O7     3d2+       0.0006   -0.0047   -0.0003   -0.0026    0.0046   -0.0030   -0.0019    0.0009    0.0112    0.0105
   145 O8     1s        -0.0233   -0.0022    0.0042    0.0005    0.0028    0.0004    0.0007    0.0123    0.0018    0.0002
   146 O8     2s         0.6654    0.1491   -0.3293    0.1026    0.1553    0.0096   -0.0036    0.3516    0.0383    0.0216
   147 O8     3s        -0.0275    0.0043   -0.0094    0.0048    0.0134    0.0009   -0.0001    0.0462    0.0062    0.0011
   148 O8     4s        -0.0123    0.0005    0.0000   -0.0000    0.0015   -0.0002   -0.0009    0.0095    0.0014    0.0003
   149 O8     2px       -0.0752   -0.0079    0.0318    0.0094    0.0095   -0.0105   -0.0048    0.0866    0.0471   -0.0066
   150 O8     3px        0.0243    0.0031   -0.0037    0.0005   -0.0085   -0.0063    0.0007   -0.0155   -0.0035   -0.0016
   151 O8     4px        0.0007    0.0005   -0.0019    0.0007    0.0003   -0.0006    0.0006   -0.0015   -0.0008   -0.0004
   152 O8     2py        0.1171    0.0253   -0.0245    0.0053   -0.0138   -0.0237   -0.0163   -0.1660    0.0353   -0.0373
   153 O8     3py       -0.0357   -0.0021    0.0007    0.0049    0.0051   -0.0004   -0.0005    0.0242    0.0027    0.0017
   154 O8     4py       -0.0012    0.0005    0.0005    0.0006   -0.0008    0.0006   -0.0018    0.0031    0.0005    0.0007
   155 O8     2pz        0.0238   -0.0056   -0.0228   -0.0198   -0.0179    0.0362    0.0074   -0.0078   -0.0916    0.0439
   156 O8     3pz       -0.0047   -0.0070    0.0064   -0.0030    0.0038    0.0129   -0.0018    0.0059    0.0048   -0.0011
   157 O8     4pz        0.0011   -0.0022    0.0025   -0.0012   -0.0005    0.0015   -0.0003    0.0011    0.0017   -0.0008
   158 O8     3d2-      -0.0159   -0.0027    0.0061   -0.0008   -0.0006   -0.0000    0.0003    0.0069    0.0004    0.0009
   159 O8     3d1-       0.0049    0.0003   -0.0029   -0.0014   -0.0016    0.0024   -0.0001   -0.0016   -0.0056    0.0029
   160 O8     3d0       -0.0095   -0.0017    0.0021   -0.0010   -0.0003    0.0016    0.0003    0.0052   -0.0021    0.0017
[...]
AIVX     1  Mu1.0001  In1.024 Se1.046               0.18984574     -0.00004809      0.00010608     -0.00000001
AIVX     1  Mu1.0001  In1.026 Se1.046               0.25879892      0.00082378     -0.00124915     -0.00000103
AIVX     1  Mu1.0001  In1.028 Se1.046               0.08632962     -0.00004965     -0.00001711      0.00000000
AIVX     1  Mu1.0001  In1.029 Se1.046               0.13516462      0.00044885     -0.00063752     -0.00000029
AIVX     1  Mu1.0001  In1.018 Se1.047               0.27165512      0.00027299     -0.00038050     -0.00000010
AIVX     1  Mu1.0001  In1.021 Se1.047               0.21817033     -0.00009093      0.00010688     -0.00000001
AIVX     1  Mu1.0001  In1.022 Se1.047               0.11542842      0.00015362     -0.00026359     -0.00000004
AIVX     1  Mu1.0001  In1.024 Se1.047               0.13485153     -0.00003522      0.00008841     -0.00000000
AIVX     1  Mu1.0001  In1.025 Se1.047               0.28076219     -0.00025196      0.00042693     -0.00000011
AIVX     1  Mu1.0001  In1.026 Se1.047               0.20380472      0.00016071     -0.00031339     -0.00000005
AIVX     1  Mu1.0001  In1.027 Se1.047               0.25492425     -0.00007700      0.00020345     -0.00000002
AIVX     1  Mu1.0001  In1.028 Se1.047               0.03133541     -0.00000945     -0.00000343      0.00000000
AIVX     1  Mu1.0001  In1.029 Se1.047               0.08017041      0.00010741     -0.00020808     -0.00000002
AIVX     1  Mu1.0001  In1.018 Se1.048               0.29577853      0.00005008     -0.00006489     -0.00000000
AIVX     1  Mu1.0001  In1.021 Se1.048               0.24229374      0.00026552     -0.00047470     -0.00000013
AIVX     1  Mu1.0001  In1.022 Se1.048               0.13955184     -0.00003191     -0.00004790      0.00000000
AIVX     1  Mu1.0001  In1.024 Se1.048               0.15897494     -0.00011827      0.00017277     -0.00000002
AIVX     1  Mu1.0001  In1.026 Se1.048               0.22792813     -0.00011803      0.00002178     -0.00000000
AIVX     1  Mu1.0001  In1.027 Se1.048               0.27904766      0.00010981      0.00007296      0.00000001
AIVX     1  Mu1.0001  In1.028 Se1.048               0.05545882      0.00024558     -0.00030669     -0.00000008
AIVX     1  Mu1.0001  In1.029 Se1.048               0.10429383     -0.00006843      0.00005971     -0.00000000
AIVX     1  Mu1.0001  In1.021 Se1.049               0.25557876      0.00021019     -0.00066774     -0.00000014
AIVX     1  Mu1.0001  In1.022 Se1.049               0.15283686      0.00015408      0.00035295      0.00000005
AIVX     1  Mu1.0001  In1.024 Se1.049               0.17225996      0.00001664     -0.00000639     -0.00000000
AIVX     1  Mu1.0001  In1.026 Se1.049               0.24121315      0.00059843     -0.00074687     -0.00000045
AIVX     1  Mu1.0001  In1.027 Se1.049               0.29233268     -0.00116299      0.00137897     -0.00000160
AIVX     1  Mu1.0001  In1.028 Se1.049               0.06874384     -0.00023140      0.00044235     -0.00000010
AIVX     1  Mu1.0001  In1.029 Se1.049               0.11757885      0.00011584     -0.00040236     -0.00000005
AIVX     1  Mu1.0001  In1.021 Se1.050               0.29664630      0.00010304     -0.00038429     -0.00000004
AIVX     1  Mu1.0001  In1.022 Se1.050               0.19390439      0.00005698      0.00028173      0.00000002
AIVX     1  Mu1.0001  In1.024 Se1.050               0.21332750      0.00005798     -0.00006861     -0.00000000
AIVX     1  Mu1.0001  In1.026 Se1.050               0.28228069     -0.00003952      0.00029757     -0.00000001
AIVX     1  Mu1.0001  In1.028 Se1.050               0.10981138     -0.00003708     -0.00014302      0.00000001
AIVX     1  Mu1.0001  In1.029 Se1.050               0.15864638     -0.00002274      0.00003099     -0.00000000
AIVX     1  Mu1.0001  In1.022 Se1.051               0.22666373      0.00037505     -0.00043711     -0.00000016
AIVX     1  Mu1.0001  In1.024 Se1.051               0.24608684      0.00008905     -0.00005681     -0.00000001
AIVX     1  Mu1.0001  In1.028 Se1.051               0.14257072      0.00010844     -0.00013951     -0.00000002
AIVX     1  Mu1.0001  In1.029 Se1.051               0.19140572     -0.00018308      0.00027457     -0.00000005
AIVX     1  Mu1.0001  In1.022 Se1.052               0.24100411     -0.00003286     -0.00005268      0.00000000
AIVX     1  Mu1.0001  In1.024 Se1.052               0.26042722      0.00005931     -0.00005616     -0.00000000
AIVX     1  Mu1.0001  In1.028 Se1.052               0.15691110      0.00001026      0.00000759      0.00000000
AIVX     1  Mu1.0001  In1.029 Se1.052               0.20574610      0.00023768     -0.00032609     -0.00000008
AIVX     1  Mu1.0001  In1.022 Se1.053               0.24747310     -0.00047979      0.00044474     -0.00000021
AIVX     1  Mu1.0001  In1.024 Se1.053               0.26689621      0.00002663      0.00005798      0.00000000
AIVX     1  Mu1.0001  In1.028 Se1.053               0.16338009      0.00010050     -0.00002964     -0.00000000
AIVX     1  Mu1.0001  In1.029 Se1.053               0.21221509      0.00008415     -0.00019588     -0.00000002
AIVX     1  Mu1.0001  In1.022 Se1.054               0.22389829     -0.00019783      0.00057134     -0.00000011
AIVX     1  Mu1.0001  In1.024 Se1.054               0.24332139     -0.00005017      0.00007964     -0.00000000
AIVX     1  Mu1.0001  In1.028 Se1.054               0.13980527      0.00008802     -0.00035555     -0.00000003
AIVX     1  Mu1.0001  In1.029 Se1.054               0.18864028     -0.00018674      0.00016709     -0.00000003
AIVX     1  Mu1.0001  In1.022 Se1.055               0.28330129      0.00001705      0.00015397      0.00000000
AIVX     1  Mu1.0001  In1.028 Se1.055               0.19920828     -0.00023335      0.00020506     -0.00000005
AIVX     1  Mu1.0001  In1.029 Se1.055               0.24804328      0.00002628     -0.00011703     -0.00000000
AIVX     1  Mu1.0001  In1.028 Se1.056               0.22622867      0.00024932     -0.00011708     -0.00000003
AIVX     1  Mu1.0001  In1.029 Se1.056               0.27506367      0.00014275     -0.00021641     -0.00000003
AIVX     1  Mu1.0001  In1.022 Se1.057               0.28690506      0.00075199     -0.00078772     -0.00000059
AIVX     1  Mu1.0001  In1.028 Se1.057               0.20281204      0.00013816     -0.00024708     -0.00000003
AIVX     1  Mu1.0001  In1.029 Se1.057               0.25164705     -0.00040099      0.00059588     -0.00000024
AIVX     1  Mu1.0001  In1.022 Se1.058               0.25793677      0.00011516      0.00001770      0.00000000
AIVX     1  Mu1.0001  In1.024 Se1.058               0.27735988      0.00007633     -0.00005129     -0.00000000
AIVX     1  Mu1.0001  In1.028 Se1.058               0.17384376     -0.00009760      0.00009892     -0.00000001
AIVX     1  Mu1.0001  In1.029 Se1.058               0.22267876     -0.00002540     -0.00004943      0.00000000
AIVX     1  Mu1.0001  In1.028 Se1.059               0.22829293     -0.00006391      0.00036058     -0.00000002
AIVX     1  Mu1.0001  In1.029 Se1.059               0.27712793      0.00030563     -0.00044833     -0.00000014
AIVX     1  Mu1.0001  In1.028 Se1.064               0.28162580     -0.00014765      0.00007902     -0.00000001
AIVX     1  Mu1.0001  In1.028 Se1.065               0.26270411     -0.00006955      0.00008952     -0.00000001
AIVX     1  Mu1.0001  In1.028 Se1.067               0.29000090     -0.00004385      0.00014458     -0.00000001
AIVX     1  Mu1.0001  In1.018 Se1.209               0.24357879     -0.00042159      0.00058721     -0.00000025
AIVX     1  Mu1.0001  In1.020 Se1.209               0.28618741      0.00034462     -0.00133338     -0.00000046
AIVX     1  Mu1.0001  In1.021 Se1.209               0.19009401      0.00026558     -0.00037633     -0.00000010
AIVX     1  Mu1.0001  In1.022 Se1.209               0.08735210     -0.00020044     -0.00001950      0.00000000
AIVX     1  Mu1.0001  In1.024 Se1.209               0.10677520     -0.00008702      0.00011622     -0.00000001
AIVX     1  Mu1.0001  In1.025 Se1.209               0.25268587     -0.00018977      0.00032621     -0.00000006
AIVX     1  Mu1.0001  In1.026 Se1.209               0.17572839     -0.00046611      0.00082937     -0.00000039
AIVX     1  Mu1.0001  In1.027 Se1.209               0.22684792     -0.00051581      0.00115493     -0.00000060
AIVX     1  Mu1.0001  In1.028 Se1.209               0.00325908      0.00003558      0.00005742      0.00000000
AIVX     1  Mu1.0001  In1.029 Se1.209               0.05209409     -0.00002227      0.00015973     -0.00000000
--
 
   (Skipping property calculation,
    use PROP keyword to activate)
--
 
  Total CASPT2 energies:
::    CASPT2 Root  1     Total energy:   -455.23197636
::    CASPT2 Root  2     Total energy:   -455.03558001
::    CASPT2 Root  3     Total energy:   -455.03747824
::    CASPT2 Root  4     Total energy:   -454.96683600
::    CASPT2 Root  5     Total energy:   -454.95716932
::    CASPT2 Root  6     Total energy:   -454.95913904
::    CASPT2 Root  7     Total energy:   -454.93063043
 
++ Multi-State CASPT2 section:
********************************************************************************
  MULTI-STATE CASPT2 SECTION
--------------------------------------------------------------------------------
 
  Output diagonal energies have been shifted. Add   -455.000000000000     
 
  Effective Hamiltonian matrix (Symmetric):
 
                1               2               3               4               5
   1        -0.23197636
   2         0.00029019     -0.03558001
   3        -0.00031760      0.00041997     -0.03747824
   4        -0.01166234      0.00009561      0.00064728      0.03316400
   5         0.00926644     -0.00031281      0.00146055      0.00014201      0.04283068
   6         0.00868357     -0.00121062     -0.00106024     -0.00099715     -0.01272717
   7         0.00318628     -0.00038531      0.00100203     -0.00000271     -0.00098422
 
                6               7
   6         0.04086096
   7        -0.00177978      0.06936957
 
       Total MS-CASPT2 energies:
::    MS-CASPT2 Root  1     Total energy:   -455.23313609
::    MS-CASPT2 Root  2     Total energy:   -455.03761368
::    MS-CASPT2 Root  3     Total energy:   -455.03551775
::    MS-CASPT2 Root  4     Total energy:   -454.97070240
::    MS-CASPT2 Root  5     Total energy:   -454.96601793
::    MS-CASPT2 Root  6     Total energy:   -454.94533737
::    MS-CASPT2 Root  7     Total energy:   -454.93048417
 
       Eigenvectors:
            0.99781987     -0.00203308      0.00226573      0.03525390     -0.05499818
           -0.00177017     -0.20174577      0.97926285     -0.01609777      0.00507050
            0.00161710      0.97916656      0.20168140      0.00578233      0.00720076
            0.04358964     -0.00888150     -0.00261567      0.26598181      0.96226980
           -0.03510611     -0.01729405      0.00292662      0.64593721     -0.20466457
           -0.03316705      0.00720012      0.01856236      0.71309703     -0.17017350
           -0.01082656     -0.00987669      0.00194419      0.04445235     -0.00937397
 
           -0.00137981      0.00875806
           -0.00680986     -0.00292488
           -0.01933460      0.00978429
           -0.03610177     -0.00118248
           -0.73437057     -0.00610777
            0.67661439     -0.05683415
            0.03416707      0.99827360
 
--
 
  THE ORIGINAL CI ARRAYS ARE NOW MIXED AS LINEAR
  COMBINATIONS, GIVEN BY THE EIGENVECTORS.
  A NEW JOBIPH FILE NAMED 'JOBMIX' IS PREPARED.
********************************************************************************
 
++ Mixed CI coefficients:
  The CI coefficients for the MIXED state nr.   1
--------------------------------------------------------------------------------
 CI COEFFICIENTS LARGER THAN  0.50D-01
  Occupation of active orbitals, and spin coupling
  of open shells. (u,d: Spin up or down).
  SGUGA info is (Midvert:IsyUp:UpperWalk/LowerWalk)
        Conf  SGUGA info        Occupation    Coefficient         Weight
           1  ( 1:1:   1/   1)   22222200        0.969816       0.940544
           6  ( 1:1:   6/   1)   22220220       -0.088284       0.007794
           7  ( 1:1:   7/   1)   22222u0d        0.079760       0.006362
          15  ( 1:1:  15/   1)   22222002       -0.088073       0.007757
          64  ( 2:1:   4/   3)   2u22220d       -0.077896       0.006068
          81  ( 2:1:   1/   4)   u22222d0       -0.102448       0.010496
         175  ( 3:1:   5/   8)   20222202       -0.092435       0.008544
         191  ( 3:1:   1/  10)   02222220       -0.075655       0.005724
 
  The CI coefficients for the MIXED state nr.   2
--------------------------------------------------------------------------------
 CI COEFFICIENTS LARGER THAN  0.50D-01
  Occupation of active orbitals, and spin coupling
  of open shells. (u,d: Spin up or down).
  SGUGA info is (Midvert:IsyUp:UpperWalk/LowerWalk)
        Conf  SGUGA info        Occupation    Coefficient         Weight
           2  ( 1:1:   2/   1)   22222ud0       -0.226379       0.051247
           3  ( 1:1:   3/   1)   2222u2d0       -0.069188       0.004787
          21  ( 2:1:   1/   1)   222u22d0       -0.092213       0.008503
          24  ( 2:1:   4/   1)   222u220d       -0.157482       0.024801
          41  ( 2:1:   1/   2)   22u222d0       -0.904760       0.818591
          43  ( 2:1:   3/   2)   22u2d220       -0.166375       0.027681
          45  ( 2:1:   5/   2)   22u22dud       -0.060987       0.003719
          47  ( 2:1:   7/   2)   22u22udd        0.109486       0.011987
          55  ( 2:1:  15/   2)   22u220d2       -0.076202       0.005807
         161  ( 3:1:   1/   7)   u2d22220       -0.119446       0.014267
         219  ( 4:1:   1/   4)   2uu222dd        0.064357       0.004142
         222  ( 4:1:   4/   4)   2uu22dd2       -0.050231       0.002523
         294  ( 5:1:   2/  15)   20u222d2        0.092610       0.008577
 
  The CI coefficients for the MIXED state nr.   3
--------------------------------------------------------------------------------
 CI COEFFICIENTS LARGER THAN  0.50D-01
  Occupation of active orbitals, and spin coupling
  of open shells. (u,d: Spin up or down).
  SGUGA info is (Midvert:IsyUp:UpperWalk/LowerWalk)
        Conf  SGUGA info        Occupation    Coefficient         Weight
           7  ( 1:1:   7/   1)   22222u0d        0.051050       0.002606
          21  ( 2:1:   1/   1)   222u22d0        0.056505       0.003193
          24  ( 2:1:   4/   1)   222u220d        0.946729       0.896297
          32  ( 2:1:  12/   1)   222u022d       -0.081935       0.006713
          33  ( 2:1:  13/   1)   222u2d02       -0.090502       0.008191
          41  ( 2:1:   1/   2)   22u222d0       -0.156391       0.024458
         125  ( 3:1:   5/   3)   2u2d2202        0.180323       0.032517
         213  ( 4:1:   1/   3)   u22u22dd        0.078473       0.006158
         269  ( 5:1:   1/   9)   022u222d        0.076209       0.005808
 
  The CI coefficients for the MIXED state nr.   4
--------------------------------------------------------------------------------
 CI COEFFICIENTS LARGER THAN  0.50D-01
  Occupation of active orbitals, and spin coupling
  of open shells. (u,d: Spin up or down).
  SGUGA info is (Midvert:IsyUp:UpperWalk/LowerWalk)
        Conf  SGUGA info        Occupation    Coefficient         Weight
           1  ( 1:1:   1/   1)   22222200       -0.065780       0.004327
           2  ( 1:1:   2/   1)   22222ud0        0.228120       0.052039
           3  ( 1:1:   3/   1)   2222u2d0        0.403858       0.163101
           7  ( 1:1:   7/   1)   22222u0d        0.799953       0.639925
          14  ( 1:1:  14/   1)   22220u2d        0.074926       0.005614
          15  ( 1:1:  15/   1)   22222002        0.159785       0.025531
          21  ( 2:1:   1/   1)   222u22d0       -0.050012       0.002501
          41  ( 2:1:   1/   2)   22u222d0       -0.087637       0.007680
          73  ( 2:1:  13/   3)   2u222d02        0.207637       0.043113
          83  ( 2:1:   3/   4)   u222d220        0.115811       0.013412
          87  ( 2:1:   7/   4)   u2222udd        0.077102       0.005945
         175  ( 3:1:   5/   8)   20222202       -0.094158       0.008866
         193  ( 3:1:   3/  10)   02222u2d        0.060209       0.003625
 
  The CI coefficients for the MIXED state nr.   5
--------------------------------------------------------------------------------
 CI COEFFICIENTS LARGER THAN  0.50D-01
  Occupation of active orbitals, and spin coupling
  of open shells. (u,d: Spin up or down).
  SGUGA info is (Midvert:IsyUp:UpperWalk/LowerWalk)
        Conf  SGUGA info        Occupation    Coefficient         Weight
           2  ( 1:1:   2/   1)   22222ud0        0.108267       0.011722
           3  ( 1:1:   3/   1)   2222u2d0        0.821520       0.674896
           7  ( 1:1:   7/   1)   22222u0d       -0.429511       0.184480
          12  ( 1:1:  12/   1)   2222uudd       -0.084325       0.007111
          15  ( 1:1:  15/   1)   22222002       -0.081172       0.006589
          18  ( 1:1:  18/   1)   2222u0d2        0.069517       0.004833
          41  ( 2:1:   1/   2)   22u222d0       -0.088285       0.007794
          68  ( 2:1:   8/   3)   2u22u2dd       -0.061758       0.003814
          73  ( 2:1:  13/   3)   2u222d02       -0.111531       0.012439
          81  ( 2:1:   1/   4)   u22222d0       -0.089663       0.008039
          83  ( 2:1:   3/   4)   u222d220        0.207226       0.042942
         175  ( 3:1:   5/   8)   20222202        0.050467       0.002547
         177  ( 3:1:   7/   8)   2022u2d2       -0.082970       0.006884
 
  The CI coefficients for the MIXED state nr.   6
--------------------------------------------------------------------------------
 CI COEFFICIENTS LARGER THAN  0.50D-01
  Occupation of active orbitals, and spin coupling
  of open shells. (u,d: Spin up or down).
  SGUGA info is (Midvert:IsyUp:UpperWalk/LowerWalk)
        Conf  SGUGA info        Occupation    Coefficient         Weight
           2  ( 1:1:   2/   1)   22222ud0       -0.889644       0.791467
           3  ( 1:1:   3/   1)   2222u2d0        0.220320       0.048541
           7  ( 1:1:   7/   1)   22222u0d        0.153480       0.023556
          41  ( 2:1:   1/   2)   22u222d0        0.198539       0.039418
          65  ( 2:1:   5/   3)   2u222dud       -0.143952       0.020722
          67  ( 2:1:   7/   3)   2u222udd        0.199640       0.039856
         176  ( 3:1:   6/   8)   20222ud2        0.128943       0.016626
 
  The CI coefficients for the MIXED state nr.   7
--------------------------------------------------------------------------------
 CI COEFFICIENTS LARGER THAN  0.50D-01
  Occupation of active orbitals, and spin coupling
  of open shells. (u,d: Spin up or down).
  SGUGA info is (Midvert:IsyUp:UpperWalk/LowerWalk)
        Conf  SGUGA info        Occupation    Coefficient         Weight
          21  ( 2:1:   1/   1)   222u22d0        0.896134       0.803056
          24  ( 2:1:   4/   1)   222u220d       -0.070407       0.004957
          25  ( 2:1:   5/   1)   222u2dud       -0.226562       0.051330
          27  ( 2:1:   7/   1)   222u2udd        0.313915       0.098542
          41  ( 2:1:   1/   2)   22u222d0       -0.074149       0.005498
         210  ( 4:1:   4/   2)   2u2u2dd2       -0.080027       0.006404
         262  ( 5:1:   2/   7)   202u22d2       -0.082721       0.006843
 
--
 
--- Stop Module: caspt2 at Wed Nov 13 20:26:56 2024 /rc=_RC_ALL_IS_WELL_ ---
*** files: xmldump
    saved to directory /home/pcaah4
--- Module caspt2 spent 7 minutes 0 seconds ---

.##################.
.# Happy landing! #.
.##################.

    Timing: Wall=675.21 User=582.68 System=77.48
******************************************************
*** WorkDir at /srv/COMMUNAL_SCRATCH/10393 cleaned ***
******************************************************
