   This run of MOLCAS is using the pymolcas driver

                             OPE
                             OPE          NMOL  CASOP  ENMOLC A   SO
                 OPE        NMOLC        AS  OP EN  MO LC     AS  OP
                OPENM       OL CA        SO  PE NM  OL CA     SOP EN
                OP EN      MO   LC       AS  OP ENMOL  CASO   PENMOL
                OP  EN     MO   LC       AS  OP EN     MO     LC ASO
               OP   E  NMOL  C  AS       OP  EN MO     LC     AS  OP
               OP  E   NMO   LC AS        OPEN  MO     LCASOP EN   M
               O  PEN   MO  LCA  SO
            OPE   NMO   L   CAS    OP
        OPENMOL  CASOP     ENMOL   CASOPE
     OPENMOLCA   SOPENMOLCASOPEN   MOLCASOPE
    OPENMOLCAS   OP           EN   MOL    CAS
    OPENMOLCAS       OP  ENM        O     LCA
    OPENMOLCAS    OPEN  MOLCASO     P  E  NMO
    OPENMOLCAS     OP               E  N  MOL
    OPENMOLCA   SO           PENM   O  L  CAS    OPEN    MO    LCAS
    OPENMOLCA   SOP           ENM   O  L  CAS   OP  EN  MOLC  AS   O
    OPENMOLCA   SOPE           NM      O  LCA   S      OP  EN MO
    OPENMOLC                AS         O  PEN   M      OL  CA  SOPE
    OPENMO        LCASOPE  NMOL        C  ASO   P      ENMOLC     AS
    OPE     NMO      LCA  SO     P     E   NM   OL  CA SO  PE N   MO
          OPENMOLCA            SOPE   NMO        LCAS  O    P  ENMO
     OPENMOLCASOPENMOLCASOPENMOLCASOPENMOLCA
        OPENMOLCASOPENMOLCASOPENMOLCASOPE
            OPENMOLCASOPENMOLCASOPENM
               OPENMOLCASOPENMOLCA        version: v23.06
                   OPENMOLCASO
                       OPE                tag:

 OpenMolcas is free software; you can redistribute it and/or modify it
 under the terms of the GNU Lesser General Public License version 2.1.
 OpenMolcas is distributed in the hope that it will be useful, but it
 is provided "as is" and without any express or implied warranties.
 For more details see the full text of the license in the file
 LICENSE or in <http://www.gnu.org/licenses/>.

                 Copyright (C) The OpenMolcas Authors
           For the author list and the recommended citation,
                   consult the file CONTRIBUTORS.md

           *************************************************
           * pymolcas version py2.24                       *
           *   build 4567b286dd94b1984b333a4ddf893180      *
           *   (after the EMIL interpreter by V. Veryazov) *
           *************************************************

configuration info
------------------
Host name: loginchem01.nottingham.ac.uk (Linux)
C Compiler ID: Intel
C flags: -std=gnu99 -gcc-sys -qopenmp
Fortran Compiler ID: Intel
Fortran flags: -fpp -i8 -heap-arrays -qopenmp
Definitions: _MOLCAS_;_I8_;_LINUX_
Parallel: OFF (GA=OFF)


   ------------------------------------------------------------------------------------------------------------
  |
  |              Project: orca_geometry_optimisation_240_165_BP86_def2-SVP_def2J_scf_cas1_ras12i11_cas2_ras12i8
  |       Submitted from: /home/pcaah4
  |         Scratch area: /srv/COMMUNAL_SCRATCH/10402
  |      Save outputs to: /home/pcaah4
  |               Molcas: /software/chemistry/openmolcas/openmolcas-23.06-openmp
  |
  | Scratch area is empty
  |
  |       MOLCAS_DRIVER = /software/chemistry/openmolcas/openmolcas-23.06-openmp/sbin/pymolcas
  | MOLCAS_KEEP_WORKDIR = NO
  |       MOLCAS_NPROCS = 1
  |       MOLCAS_SOURCE = /software/chemistry/openmolcas/openmolcas-23.06-openmp
  |    MOLCAS_STRUCTURE = 0
  |
   ------------------------------------------------------------------------------------------------------------

++ ---------   Input file   ---------

&SEWARD
TITLE
orca_geometry_optimisation_240_165_BP86_def2-SVP_def2J_scf_cas1_ras12i11
MULTIPOLES
2
SDIPOLE
ANGMOM
0 0 0
BASIS SET
C.ANO-S...4S3P1D.
C1            0.019949   -0.019130    0.104143 /Angstrom
C3            2.078391    1.313804   -0.005162 /Angstrom
C4            3.024241    1.252190   -1.217936 /Angstrom
C6            4.419919    2.605546   -2.751903 /Angstrom
C19          -0.552345   -1.430023    0.038607 /Angstrom
END OF BASIS
BASIS SET
N.ANO-S...4S3P1D.
N2            1.398263    0.050757    0.159829 /Angstrom
N5            3.471749    2.466616   -1.661175 /Angstrom
END OF BASIS
BASIS SET
O.ANO-S...4S3P1D.
O7           -0.697281    0.980013    0.145608 /Angstrom
O8            3.376023    0.173384   -1.699582 /Angstrom
END OF BASIS
BASIS SET
H.ANO-S...2S1P.
H9           -1.190184   -1.597308    0.929464 /Angstrom
H10          -1.212083   -1.504356   -0.848515 /Angstrom
H11           0.216163   -2.225993   -0.008845 /Angstrom
H12           1.946955   -0.759668   -0.147684 /Angstrom
H13           1.296396    2.096094   -0.114813 /Angstrom
H14           2.685240    1.575734    0.893769 /Angstrom
H15           3.087776    3.309179   -1.230148 /Angstrom
H16           3.977592    3.147976   -3.614567 /Angstrom
H17           5.337860    3.142249   -2.430483 /Angstrom
H18           4.695975    1.585274   -3.078377 /Angstrom
END OF BASIS
END OF INPUT

&RASSCF
TITLE
orca_geometry_optimisation_240_165_BP86_def2-SVP_def2J_scf_cas1_ras12i11
LUMORB
SPIN
1
SYMMETRY
1
NACTEL
12  0  0
INACTIVE
29
DELETED  ! delete Rydberg orbitals from an initial CAS(12,11) if done
3
FROZEN
0
RAS2
8
ITERATIONS
64 25
CIROOT
7 7
1 2 3 4 5 6 7
1 1 1 1 1 1 1
LEVSHFT
0.3
CIMX
20
FILEorb = /home/pcaah4/outputs/cas1_ras12i11_rasorb_files/orca_geometry_optimisation_240_165_BP86_def2-SVP_def2J_scf_cas1_ras12i11.RasOrb
ALTEr
3
 1 38 210
 1 39 211
 1 40 212
END OF INPUT

&RASSI
NROF JOBIPH
    1 7
    1 2 3 5 4 6 7
TOFILE
TRDI
TDMN
1.0D-6
END OF INPUT

&CASPT2
TITLE
orca_geometry_optimisation_240_165_BP86_def2-SVP_def2J_scf_cas1_ras12i11
MULTISTATE
7 1 2 3 4 5 6 7
SHIFT
0.35
MAXITER
50
END OF INPUT

-- ----------------------------------

--- Start Module: seward at Wed Nov 13 20:45:34 2024 ---
 
()()()()()()()()()()()()()()()()()()()()()()()()()()()()()()()()()()()()()()()()()()()()()()()()()()

                                              &SEWARD

                                   only a single process is used
                       available to each process: 2.0 GB of memory, 1 thread
                                            pid: 1799494
()()()()()()()()()()()()()()()()()()()()()()()()()()()()()()()()()()()()()()()()()()()()()()()()()()
 
               SEWARD will generate:
                  Multipole Moment integrals up to order  2
                  Kinetic Energy integrals
                  Nuclear Attraction integrals (point charge)
                  One-Electron Hamiltonian integrals
                  Velocity integrals
                  Orbital angular momentum around ( 0.0000  0.0000  0.0000 )
                  Velocity quadrupole around ( 3.4857  1.5575 -1.4759 )
                  Two-Electron Repulsion integrals
 
 Title:
            orca_geometry_optimisation_240_165_BP86_def2-SVP_def2J_scf_cas1_ras12i11    
 
 
                   Integrals are discarded if absolute value <: 0.10E-13
                   Integral cutoff threshold is set to       <: 0.10E-15
 
++    Symmetry information:
      ---------------------
 
                    Character Table for C1 
 
                             E  
                    a        1  x, y, xy, Rz, z, xz, Ry, yz, Rx, I
--
 
 
++    Basis set information:
      ----------------------
 
 
      Basis set label: C.ANO-S...4S3P1D......
 
      Electronic valence basis set:
      ------------------
      Associated Effective Charge   6.000000 au
      Associated Actual Charge      6.000000 au
      Nuclear Model: Point charge
 
      Shell  nPrim  nBasis  Cartesian Spherical Contaminant
         s      10       4        X                  
         p       6       3        X                  
         d       3       1                 X         
 
 
      Basis set label: N.ANO-S...4S3P1D......
 
      Electronic valence basis set:
      ------------------
      Associated Effective Charge   7.000000 au
      Associated Actual Charge      7.000000 au
      Nuclear Model: Point charge
 
      Shell  nPrim  nBasis  Cartesian Spherical Contaminant
         s      10       4        X                  
         p       6       3        X                  
         d       3       1                 X         
 
 
      Basis set label: O.ANO-S...4S3P1D......
 
      Electronic valence basis set:
      ------------------
      Associated Effective Charge   8.000000 au
      Associated Actual Charge      8.000000 au
      Nuclear Model: Point charge
 
      Shell  nPrim  nBasis  Cartesian Spherical Contaminant
         s      10       4        X                  
         p       6       3        X                  
         d       3       1                 X         
 
 
      Basis set label: H.ANO-S...2S1P......
 
      Electronic valence basis set:
      ------------------
      Associated Effective Charge   1.000000 au
      Associated Actual Charge      1.000000 au
      Nuclear Model: Point charge
 
      Shell  nPrim  nBasis  Cartesian Spherical Contaminant
         s       7       2        X                  
         p       3       1        X                  
--
 
 
++    Molecular structure info:
      -------------------------
 
                    ************************************************ 
                    **** Cartesian Coordinates / Bohr, Angstrom **** 
                    ************************************************ 
 
     Center  Label                x              y              z                     x              y              z
        1      C1               0.037698      -0.036150       0.196802              0.019949      -0.019130       0.104143
        2      C3               3.927590       2.482730      -0.009755              2.078391       1.313804      -0.005162
        3      C4               5.714987       2.366296      -2.301565              3.024241       1.252190      -1.217936
        4      C6               8.352436       4.923768      -5.200343              4.419919       2.605546      -2.751903
        5      C19             -1.043781      -2.702352       0.072957             -0.552345      -1.430023       0.038607
        6      N2               2.642334       0.095917       0.302033              1.398263       0.050757       0.159829
        7      N5               6.560655       4.661229      -3.139166              3.471749       2.466616      -1.661175
        8      O7              -1.317670       1.851956       0.275159             -0.697281       0.980013       0.145608
        9      O8               6.379759       0.327648      -3.211745              3.376023       0.173384      -1.699582
       10      H9              -2.249122      -3.018475       1.756432             -1.190184      -1.597308       0.929464
       11      H10             -2.290505      -2.842821      -1.603461             -1.212083      -1.504356      -0.848515
       12      H11              0.408489      -4.206517      -0.016715              0.216163      -2.225993      -0.008845
       13      H12              3.679212      -1.435564      -0.279082              1.946955      -0.759668      -0.147684
       14      H13              2.449833       3.961044      -0.216965              1.296396       2.096094      -0.114813
       15      H14              5.074368       2.977706       1.688979              2.685240       1.575734       0.893769
       16      H15              5.835051       6.253442      -2.324643              3.087776       3.309179      -1.230148
       17      H16              7.516560       5.948812      -6.830542              3.977592       3.147976      -3.614567
       18      H17             10.087093       5.937990      -4.592947              5.337860       3.142249      -2.430483
       19      H18              8.874107       2.995734      -5.817289              4.695975       1.585274      -3.078377
 
                    ************************************************* 
                    **** InterNuclear Distances / Bohr, Angstrom **** 
                    ************************************************* 
 
     Atom centers         Bohr        Angstrom
   16 H15       7 N5      1.930050        1.021338
   13 H12       6 N2      1.938619        1.025873
   19 H18       4 C6      2.090474        1.106231
   12 H11       5 C19     2.092759        1.107441
   11 H10       5 C19     2.093903        1.108046
   10 H9        5 C19     2.094486        1.108354
   18 H17       4 C6      2.099193        1.110845
   17 H16       4 C6      2.099275        1.110888
   14 H13       2 C3      2.100503        1.111538
   15 H14       2 C3      2.108506        1.115773
    8 O7        1 C1      2.325534        1.230620
    9 O8        3 C4      2.329470        1.232703
    7 N5        3 C4      2.585236        1.368048
    6 N2        1 C1      2.610104        1.381208
    6 N2        2 C3      2.728730        1.443982
    7 N5        4 C6      2.743695        1.451901
    5 C19       1 C1      2.879855        1.523954
    3 C4        2 C3      2.908736        1.539237
   11 H10      10 H9      3.364736        1.780542
   15 H14      14 H13     3.389360        1.793572
   19 H18      17 H16     3.404451        1.801558
   18 H17      17 H16     3.408019        1.803446
   12 H11      10 H9      3.408576        1.803741
   19 H18      18 H17     3.409871        1.804426
   12 H11      11 H10     3.414967        1.807123
   16 H15       3 C4      3.889068        2.058006
   14 H13       6 N2      3.904564        2.066206
   19 H18       7 N5      3.911301        2.069772
   13 H12       1 C1      3.930070        2.079703
   13 H12       2 C3      3.935385        2.082516
   15 H14       6 N2      4.017850        2.126154
   18 H17       7 N5      4.022359        2.128541
   17 H16       7 N5      4.024659        2.129758
   16 H15       4 C6      4.046593        2.141365
   11 H10       1 C1      4.066801        2.152059
   10 H9        1 C1      4.068937        2.153189
   15 H14       3 C4      4.087622        2.163077
   14 H13       3 C4      4.189273        2.216868
   12 H11       1 C1      4.192259        2.218448
   13 H12      12 H11     4.294723        2.272669
    8 O7        6 N2      4.331978        2.292384
    9 O8        7 N5      4.337962        2.295550
   14 H13       8 O7      4.345632        2.299610
   13 H12       9 O8      4.359172        2.306775
   19 H18       9 O8      4.486571        2.374191
    8 O7        5 C19     4.567015        2.416760
    9 O8        2 C3      4.572772        2.419807
   16 H15      14 H13     4.599684        2.434048
    6 N2        3 C4      4.623261        2.446524
    6 N2        5 C19     4.633598        2.451994
    7 N5        2 C3      4.633800        2.452101
    2 C3        1 C1      4.638823        2.454759
    4 C6        3 C4      4.679713        2.476397
   14 H13       1 C1      4.686914        2.480208
   13 H12       3 C4      4.763293        2.520626
   19 H18       3 C4      4.768285        2.523268
   16 H15       2 C3      4.818235        2.549700
   17 H16      16 H15     4.819066        2.550140
   18 H17      16 H15     4.829553        2.555689
   12 H11       6 N2      4.858251        2.570876
   13 H12       5 C19     4.902585        2.594336
   15 H14      13 H12     5.029580        2.661539
   14 H13       7 N5      5.091991        2.694565
    9 O8        6 N2      5.135044        2.717348
   11 H10       8 O7      5.149423        2.724957
   10 H9        8 O7      5.175217        2.738607
   16 H15      15 H14     5.236243        2.770901
    8 O7        2 C3      5.290728        2.799733
   15 H14       7 N5      5.324873        2.817802
    9 O8        4 C6      5.382407        2.848247
   14 H13      13 H12     5.535215        2.929110
   19 H18      16 H15     5.661016        2.995681
--
 
 
            Nuclear Potential Energy            449.52991024 au
 
 
      Basis set specifications :
      Symmetry species         a  
      Basis functions          212
 
 
      Input file to MOLDEN was generated!
 
--- Stop Module: seward at Wed Nov 13 20:47:22 2024 /rc=_RC_ALL_IS_WELL_ ---
*** files: orca_geometry_optimisation_240_165_BP86_def2-SVP_def2J_scf_cas1_ras12i11_cas2_ras12i8.GssOrb
           orca_geometry_optimisation_240_165_BP86_def2-SVP_def2J_scf_cas1_ras12i11_cas2_ras12i8.guessorb.molden xmldump
    saved to directory /home/pcaah4
--- Module seward spent 1 minute 47 seconds ---

*** symbolic link created: INPORB -> orca_geometry_optimisation_240_165_BP86_def2-SVP_def2J_scf_cas1_ras12i11_cas2_ras12i8.GssOrb
--- Start Module: rasscf at Wed Nov 13 20:47:23 2024 ---
 
()()()()()()()()()()()()()()()()()()()()()()()()()()()()()()()()()()()()()()()()()()()()()()()()()()

                                              &RASSCF

                                   only a single process is used
                       available to each process: 2.0 GB of memory, 1 thread
                                            pid: 1799850
()()()()()()()()()()()()()()()()()()()()()()()()()()()()()()()()()()()()()()()()()()()()()()()()()()
 
 
      Header of the ONEINT file:
      --------------------------
      orca_geometry_optimisation_240_165_BP86_def2-SVP_def2J_scf_cas1_ras12i11
      Integrals generated by Gateway/Seward, Wed Nov 13 20:45:34 2024
 
 
      OrdInt status: non-squared
 
 
      Cartesian coordinates in Angstrom:
      -----------------------------------------------------
      No.  Label        X            Y            Z        
      -----------------------------------------------------
       1   C1         0.01994900  -0.01913000   0.10414300
       2   C3         2.07839100   1.31380400  -0.00516200
       3   C4         3.02424100   1.25219000  -1.21793600
       4   C6         4.41991900   2.60554600  -2.75190300
       5   C19       -0.55234500  -1.43002300   0.03860700
       6   N2         1.39826300   0.05075700   0.15982900
       7   N5         3.47174900   2.46661600  -1.66117500
       8   O7        -0.69728100   0.98001300   0.14560800
       9   O8         3.37602300   0.17338400  -1.69958200
      10   H9        -1.19018400  -1.59730800   0.92946400
      11   H10       -1.21208300  -1.50435600  -0.84851500
      12   H11        0.21616300  -2.22599300  -0.00884500
      13   H12        1.94695500  -0.75966800  -0.14768400
      14   H13        1.29639600   2.09609400  -0.11481300
      15   H14        2.68524000   1.57573400   0.89376900
      16   H15        3.08777600   3.30917900  -1.23014800
      17   H16        3.97759200   3.14797600  -3.61456700
      18   H17        5.33786000   3.14224900  -2.43048300
      19   H18        4.69597500   1.58527400  -3.07837700
      -----------------------------------------------------
      Nuclear repulsion energy =  449.52991024
 
++    Wave function specifications:
      -----------------------------
 
      Number of closed shell electrons          58
      Number of electrons in active shells      12
      Max number of holes in RAS1 space          0
      Max nr of electrons in RAS3 space          0
      Number of inactive orbitals               29
      Number of active orbitals                  8
      Number of secondary orbitals             172
      Spin quantum number                      0.0
      State symmetry                             1
--
 
++    Orbital specifications:
      -----------------------
 
      Symmetry species                           1
                                                 a
      Frozen orbitals                            0
      Inactive orbitals                         29
      Active orbitals                            8
      RAS1 orbitals                              0
      RAS2 orbitals                              8
      RAS3 orbitals                              0
      Secondary orbitals                       172
      Deleted orbitals                           3
      Number of basis functions                212
--
 
++    CI expansion specifications:
      ----------------------------
 
      Number of CSFs                           336
      Number of determinants                   406
      Number of root(s) required                 7
      Root chosen for geometry opt.              7
      CI roots used                              1     2     3     4     5     6     7
      weights                                0.143 0.143 0.143 0.143 0.143 0.143 0.143
      highest root included in the CI            7
      max. size of the explicit Hamiltonian    200
--
 
++    Optimization specifications:
      ----------------------------
 
      RASSCF algorithm: Conventional
      Maximum number of macro iterations        64
      Maximum number of SX iterations           25
      Threshold for RASSCF energy            0.100E-07
      Threshold for max MO rotation          0.100E+00
      Threshold for max BLB element          0.100E-03
      Level shift parameter                  0.300E+00
      Make Quasi-Newton update
--
 
      The MO-coefficients are taken from the file:
      /home/pcaah4/outputs/cas1_ras12i11_rasorb_files/orca_geometry_optimisation_240_165_BP86_def2-SVP_def2J_scf_cas1_ras12i11.RasOrb                                                                                                                                 
      Title: RASSCF average (pseudo-natural) orbitals                                      
 
      Total molecular charge    0.00
 
      Molecular orbitals exchanged:
        In symmetry  1 :  38 210
        In symmetry  1 :  39 211
        In symmetry  1 :  40 212
 
 
      ************************************************************************************************************************
      *                                                                                                                      *
      *                                            Wave function control section                                             *
      *                                                                                                                      *
      ************************************************************************************************************************
 
 
                                         RASSCF iterations: Energy and convergence statistics
                                         ----------------------------------------------------
 
      Iter CI   SX   CI       RASSCF       Energy    max ROT     max BLB   max BLB  Level Ln srch  Step   QN   Walltime
          iter iter root      energy       change     param      element    value   shift minimum  type update hh:mm:ss
 Nr of preliminary CI iterations:   5
        1   1   17    0  -453.70431920    0.00E+00  -0.67E-01   34 142 1 -0.20E-01*  0.20   0.00    SX    NO    0:00:13
        2   3    9    0  -453.70692038   -0.26E-02*  0.36E-01   11  40 1 -0.26E-02*  0.20   0.00    SX    NO    0:00:06
        3   3    9    0  -453.70731708   -0.40E-03* -0.22E-01   23  36 1 -0.86E-03*  0.20   0.00    SX    NO    0:00:07
        4   6    9    0  -453.70744799   -0.13E-03*  0.13E-01   23  36 1 -0.56E-03*  0.20   0.00    SX    NO    0:00:07
        5   4    8    0  -453.70748956   -0.42E-04* -0.22E-01   23  36 1 -0.34E-03*  0.20   1.92    QN   YES    0:00:07
        6   7    7    0  -453.70751581   -0.26E-04* -0.88E-03   20  67 1 -0.18E-03*  0.20   0.91    QN   YES    0:00:07
        7   3    7    0  -453.70751695   -0.11E-05*  0.75E-03   10  39 1 -0.98E-04   0.20   0.90    QN   YES    0:00:06
        8   5    7    0  -453.70751749   -0.54E-06*  0.42E-03   12  69 1 -0.33E-04   0.20   1.56    LS   YES    0:00:06
        9   3    6    0  -453.70751757   -0.83E-07*  0.28E-03   12  69 1 -0.48E-04   0.20   0.98    QN   YES    0:00:06
       10   3    6    0  -453.70751766   -0.84E-07*  0.27E-03   36  41 1  0.14E-04   0.20   1.25    QN   YES    0:00:06
       11   3    5    0  -453.70751767   -0.18E-07* -0.16E-03   36  41 1  0.67E-05   0.20   1.33    QN   YES    0:00:06
       12   1    4    0  -453.70751768   -0.49E-08  -0.21E-04   11  40 1  0.46E-05   0.20   1.06    QN   YES    0:00:06
      Convergence after 12 iterations
       13   1    4    0  -453.70751768   -0.76E-09  -0.21E-04   36  41 1  0.14E-05   0.20   1.06    QN   YES    0:00:06
 
      ************************************************************************************************************************
                                                      Wave function printout:
                       occupation of active orbitals, and spin coupling of open shells (u,d: Spin up or down)
      ************************************************************************************************************************
 
      Note: transformation to natural orbitals
      has been made, which may change the order of the CSFs.
 
      printout of CI-coefficients larger than  0.05 for root  1
      energy=    -453.959752
      conf/sym  11111111     Coeff  Weight
             1  22222200   0.96457 0.93040
             6  22220220  -0.08013 0.00642
             7  22222u0d   0.12592 0.01586
            15  22222002  -0.07884 0.00622
            61  2u2222d0   0.09772 0.00955
            84  u222220d   0.07912 0.00626
            93  u2222d02  -0.06600 0.00436
           171  20222220  -0.07970 0.00635
           195  02222202  -0.10110 0.01022
 
      printout of CI-coefficients larger than  0.05 for root  2
      energy=    -453.748370
      conf/sym  11111111     Coeff  Weight
             7  22222u0d  -0.05077 0.00258
            24  222u220d   0.96147 0.92443
            32  222u022d  -0.07923 0.00628
            33  222u2d02  -0.09976 0.00995
           135  u22d2202  -0.18793 0.03532
           207  2u2u22dd  -0.08315 0.00691
           261  202u222d   0.08029 0.00645
 
      printout of CI-coefficients larger than  0.05 for root  3
      energy=    -453.731790
      conf/sym  11111111     Coeff  Weight
             2  22222ud0  -0.08995 0.00809
            21  222u22d0   0.08171 0.00668
            41  22u222d0   0.94405 0.89122
            43  22u2d220  -0.16481 0.02716
            45  22u22dud   0.06416 0.00412
            47  22u22udd  -0.11545 0.01333
            55  22u220d2   0.07745 0.00600
           151  2ud22220  -0.13269 0.01761
           225  u2u222dd   0.07047 0.00497
           228  u2u22dd2  -0.05810 0.00338
           302  02u222d2  -0.10033 0.01007
 
      printout of CI-coefficients larger than  0.05 for root  4
      energy=    -453.645289
      conf/sym  11111111     Coeff  Weight
             2  22222ud0   0.53093 0.28188
             3  2222u2d0   0.76430 0.58416
             7  22222u0d   0.15076 0.02273
            12  2222uudd  -0.08112 0.00658
            18  2222u0d2   0.06764 0.00457
            21  222u22d0  -0.05390 0.00291
            41  22u222d0   0.06817 0.00465
            61  2u2222d0  -0.07134 0.00509
            63  2u22d220  -0.18631 0.03471
            85  u2222dud  -0.07112 0.00506
            87  u2222udd   0.10556 0.01114
            88  u222u2dd   0.05616 0.00315
           196  02222ud2  -0.07482 0.00560
           197  0222u2d2  -0.07801 0.00609
 
      printout of CI-coefficients larger than  0.05 for root  5
      energy=    -453.634243
      conf/sym  11111111     Coeff  Weight
             2  22222ud0  -0.77265 0.59699
             3  2222u2d0   0.47522 0.22583
             7  22222u0d   0.26843 0.07206
            15  22222002   0.05084 0.00258
            41  22u222d0  -0.05600 0.00314
            63  2u22d220  -0.10314 0.01064
            85  u2222dud   0.12416 0.01542
            87  u2222udd  -0.17169 0.02948
            93  u2222d02  -0.06900 0.00476
           196  02222ud2   0.11398 0.01299
           197  0222u2d2  -0.05126 0.00263
 
      printout of CI-coefficients larger than  0.05 for root  6
      energy=    -453.624936
      conf/sym  11111111     Coeff  Weight
             1  22222200  -0.10664 0.01137
             2  22222ud0   0.12684 0.01609
             3  2222u2d0  -0.28891 0.08347
             7  22222u0d   0.81704 0.66755
            14  22220u2d   0.07168 0.00514
            15  22222002   0.15649 0.02449
            21  222u22d0  -0.29388 0.08637
            25  222u2dud   0.07352 0.00541
            27  222u2udd  -0.10525 0.01108
            63  2u22d220   0.07550 0.00570
            67  2u222udd  -0.07979 0.00637
            93  u2222d02  -0.20975 0.04400
           173  20222u2d   0.06378 0.00407
           195  02222202  -0.09385 0.00881
 
      printout of CI-coefficients larger than  0.05 for root  7
      energy=    -453.608244
      conf/sym  11111111     Coeff  Weight
             2  22222ud0   0.07232 0.00523
             7  22222u0d   0.29368 0.08625
            15  22222002   0.06790 0.00461
            21  222u22d0   0.85826 0.73661
            25  222u2dud  -0.20523 0.04212
            27  222u2udd   0.29019 0.08421
            41  22u222d0  -0.06357 0.00404
            93  u2222d02  -0.07224 0.00522
           216  u22u2dd2   0.07086 0.00502
           270  022u22d2  -0.07990 0.00638
 
      Natural orbitals and occupation numbers for root  1
      sym 1:   1.996056   1.971141   1.999853   1.999783   1.995144   1.954984   0.033901   0.049139
 
      Natural orbitals and occupation numbers for root  2
      sym 1:   1.999979   1.970183   1.999753   1.004022   1.995529   1.999895   0.034449   0.996190
 
      Natural orbitals and occupation numbers for root  3
      sym 1:   1.995606   1.999926   1.005788   1.999277   1.999493   1.952951   0.995808   0.051151
 
      Natural orbitals and occupation numbers for root  4
      sym 1:   1.969652   1.979995   1.999683   1.999042   1.074529   1.932104   0.962465   0.082530
 
      Natural orbitals and occupation numbers for root  5
      sym 1:   1.915988   1.986043   1.999854   1.999500   1.961476   1.041010   0.986861   0.109268
 
      Natural orbitals and occupation numbers for root  6
      sym 1:   1.955898   1.977326   1.999692   1.824395   1.987719   1.175799   0.212440   0.866731
 
      Natural orbitals and occupation numbers for root  7
      sym 1:   1.979882   1.999508   1.997254   1.242695   1.993808   1.845014   0.768242   0.173597
 
      ************************************************************************************************************************
      *                                                                                                                      *
      *                                                    Final results                                                     *
      *                                                                                                                      *
      ************************************************************************************************************************
 
 
++    Wave function specifications:
      -----------------------------
 
      Number of closed shell electrons          58
      Number of electrons in active shells      12
      Max number of holes in RAS1 space          0
      Max nr of electrons in RAS3 space          0
      Number of inactive orbitals               29
      Number of active orbitals                  8
      Number of secondary orbitals             172
      Spin quantum number                      0.0
      State symmetry                             1
--
 
++    Orbital specifications:
      -----------------------
 
      Symmetry species                           1
                                                 a
      Frozen orbitals                            0
      Inactive orbitals                         29
      Active orbitals                            8
      RAS1 orbitals                              0
      RAS2 orbitals                              8
      RAS3 orbitals                              0
      Secondary orbitals                       172
      Deleted orbitals                           3
      Number of basis functions                212
--
 
++    CI expansion specifications:
      ----------------------------
 
      Number of CSFs                           336
      Number of determinants                   406
      Number of root(s) required                 7
      CI roots used                              1     2     3     4     5     6     7
      weights                                0.143 0.143 0.143 0.143 0.143 0.143 0.143
      highest root included in the CI            7
      Root passed to geometry opt.               7
--
 
++    Final optimization conditions:
      ------------------------------
 
      Average CI energy                            -453.70751768
      RASSCF energy for state  7                   -453.60824404
      Super-CI energy                                -0.00000000
      RASSCF energy change                            0.00000000
      Max change in MO coefficients               0.199E-04
      Max non-diagonal density matrix element    -0.213E-04
      Maximum BLB matrix element                  0.136E-05
      (orbital pair  36,  41 in symmetry   1)
      Norm of electronic gradient            0.329E+00
--
 
 
      Final state energy(ies):
      ------------------------
 
::    RASSCF root number  1 Total energy:   -453.95975176
::    RASSCF root number  2 Total energy:   -453.74836969
::    RASSCF root number  3 Total energy:   -453.73178983
::    RASSCF root number  4 Total energy:   -453.64528880
::    RASSCF root number  5 Total energy:   -453.63424325
::    RASSCF root number  6 Total energy:   -453.62493638
::    RASSCF root number  7 Total energy:   -453.60824404
 
++    Molecular orbitals:
      -------------------
 
      Pseudonatural active orbitals and approximate occupation numbers
 
 
 
 
      Molecular orbitals for symmetry species 1: a  
 
 
      Orbital                 1         2         3         4         5         6         7         8         9        10
      Energy           -20.6044  -20.5216  -15.6347  -15.5841  -11.3407  -11.2873  -11.2865  -11.2627  -11.2560   -1.4250
      Occ. No.           2.0000    2.0000    2.0000    2.0000    2.0000    2.0000    2.0000    2.0000    2.0000    2.0000
 
     1 C1     1s         0.0003   -0.0000    0.0003    0.0000    1.0000    0.0001   -0.0001   -0.0000   -0.0036   -0.0398
     2 C1     2s         0.0008   -0.0002    0.0014    0.0003    0.0025   -0.0006   -0.0001   -0.0001   -0.0002    0.3461
     3 C1     3s        -0.0005   -0.0002    0.0006    0.0002    0.0001   -0.0006   -0.0000   -0.0001   -0.0006   -0.0101
     4 C1     4s        -0.0004   -0.0001    0.0001    0.0001    0.0013   -0.0003    0.0000   -0.0000   -0.0002    0.0021
     5 C1     2px       -0.0015   -0.0003    0.0017   -0.0001    0.0012   -0.0003   -0.0005   -0.0001   -0.0002   -0.0507
     6 C1     3px       -0.0010   -0.0005    0.0013   -0.0001    0.0013   -0.0006   -0.0004   -0.0002    0.0003    0.0266
     7 C1     4px        0.0002   -0.0002   -0.0001   -0.0000    0.0004   -0.0003    0.0001   -0.0001    0.0002   -0.0156
     8 C1     2py        0.0028   -0.0001    0.0002   -0.0001    0.0011   -0.0001   -0.0005   -0.0002   -0.0006    0.0941
     9 C1     3py        0.0018   -0.0002    0.0001   -0.0001    0.0009   -0.0007   -0.0004   -0.0003    0.0002   -0.0673
    10 C1     4py       -0.0004   -0.0000   -0.0000   -0.0000    0.0007   -0.0004    0.0001   -0.0001    0.0003    0.0226
    11 C1     2pz        0.0002   -0.0001   -0.0000   -0.0000    0.0003    0.0002    0.0001   -0.0000    0.0000    0.0027
    12 C1     3pz        0.0001   -0.0001    0.0001   -0.0001    0.0001    0.0002    0.0001    0.0000    0.0000   -0.0080
    13 C1     4pz       -0.0000    0.0000    0.0000   -0.0001    0.0001   -0.0000    0.0000    0.0000    0.0000    0.0008
    14 C1     3d2-       0.0001   -0.0000    0.0001   -0.0000   -0.0004    0.0000   -0.0000   -0.0000    0.0000   -0.0337
    15 C1     3d1-       0.0000   -0.0000    0.0000   -0.0000    0.0000   -0.0000    0.0000    0.0000   -0.0000    0.0025
    16 C1     3d0       -0.0000    0.0000    0.0001   -0.0000   -0.0004   -0.0000    0.0000   -0.0000    0.0001   -0.0278
    17 C1     3d1+       0.0000   -0.0000   -0.0001    0.0000   -0.0000    0.0000    0.0000   -0.0000    0.0000   -0.0017
    18 C1     3d2+       0.0001    0.0000   -0.0002    0.0000   -0.0000    0.0000   -0.0000    0.0000   -0.0000   -0.0074
    19 C3     1s         0.0001   -0.0000    0.0004   -0.0000   -0.0001    0.9196   -0.3916    0.0001    0.0000   -0.0094
    20 C3     2s         0.0004   -0.0004    0.0023   -0.0002    0.0007   -0.0010    0.0008    0.0007    0.0006    0.0200
    21 C3     3s         0.0002   -0.0004    0.0011   -0.0001    0.0004   -0.0023    0.0010    0.0004    0.0003   -0.0173
    22 C3     4s         0.0000   -0.0002    0.0001   -0.0001    0.0000    0.0007   -0.0003    0.0000    0.0000   -0.0017
    23 C3     2px        0.0000   -0.0004   -0.0003    0.0001    0.0007   -0.0009   -0.0000    0.0002    0.0004   -0.0248
    24 C3     3px        0.0001   -0.0004    0.0000   -0.0001    0.0012   -0.0011   -0.0005    0.0000    0.0006   -0.0120
    25 C3     4px        0.0001   -0.0001    0.0001   -0.0001    0.0004   -0.0005   -0.0000   -0.0001    0.0001   -0.0046
    26 C3     2py       -0.0003    0.0008   -0.0006   -0.0004    0.0004   -0.0004    0.0000    0.0004   -0.0001   -0.0186
    27 C3     3py       -0.0002    0.0007   -0.0001   -0.0004    0.0006   -0.0004   -0.0001    0.0004    0.0000   -0.0016
    28 C3     4py        0.0000   -0.0001    0.0002   -0.0000    0.0001   -0.0008    0.0002    0.0001    0.0001   -0.0038
    29 C3     2pz        0.0004   -0.0005   -0.0002    0.0003   -0.0004    0.0005   -0.0003   -0.0004    0.0002   -0.0054
    30 C3     3pz        0.0004   -0.0004   -0.0003    0.0004   -0.0005    0.0005    0.0002   -0.0002    0.0002   -0.0038
    31 C3     4pz        0.0000    0.0001    0.0000    0.0002   -0.0001   -0.0000    0.0001    0.0001   -0.0000    0.0015
    32 C3     3d2-       0.0001    0.0000    0.0000    0.0000    0.0000   -0.0001   -0.0001   -0.0000    0.0000    0.0032
    33 C3     3d1-      -0.0000   -0.0001    0.0000    0.0000   -0.0000    0.0000    0.0000    0.0000   -0.0000   -0.0003
    34 C3     3d0       -0.0000   -0.0000    0.0001   -0.0000   -0.0001   -0.0000    0.0000    0.0000   -0.0000   -0.0026
    35 C3     3d1+       0.0000   -0.0001    0.0000   -0.0000    0.0000    0.0001    0.0000   -0.0001    0.0000   -0.0014
    36 C3     3d2+      -0.0000   -0.0000    0.0001   -0.0000    0.0000    0.0001    0.0001    0.0000   -0.0000   -0.0010
    37 C4     1s         0.0000    0.0004   -0.0003    0.0003   -0.0002    0.3919    0.9201    0.0003   -0.0000   -0.0006
    38 C4     2s         0.0002    0.0013   -0.0017    0.0012   -0.0014    0.0019    0.0022   -0.0007   -0.0002    0.0318
    39 C4     3s         0.0001   -0.0002   -0.0012    0.0005   -0.0012    0.0003    0.0002   -0.0006   -0.0002    0.0093
    40 C4     4s        -0.0000   -0.0003   -0.0004    0.0001   -0.0004    0.0006    0.0013   -0.0002   -0.0001    0.0036
    41 C4     2px        0.0001    0.0010    0.0006    0.0006    0.0004   -0.0003    0.0009   -0.0000    0.0001   -0.0075
    42 C4     3px        0.0003    0.0007    0.0007    0.0004    0.0005    0.0001    0.0003   -0.0005    0.0002   -0.0116
    43 C4     4px        0.0001   -0.0002    0.0001   -0.0000    0.0001    0.0003    0.0002   -0.0004    0.0001   -0.0035
    44 C4     2py       -0.0000   -0.0027   -0.0004    0.0013    0.0000    0.0002    0.0008   -0.0004    0.0003   -0.0116
    45 C4     3py       -0.0001   -0.0018   -0.0001    0.0010    0.0001    0.0004    0.0005   -0.0006    0.0003   -0.0068
    46 C4     4py       -0.0000    0.0004    0.0002   -0.0001    0.0000    0.0003    0.0000   -0.0002   -0.0000   -0.0019
    47 C4     2pz       -0.0003   -0.0012   -0.0004   -0.0006   -0.0002    0.0008   -0.0005    0.0000   -0.0003    0.0090
    48 C4     3pz       -0.0005   -0.0008   -0.0004   -0.0005   -0.0003    0.0003   -0.0003    0.0006   -0.0004    0.0120
    49 C4     4pz       -0.0002    0.0002   -0.0000    0.0001   -0.0000   -0.0002   -0.0002    0.0005   -0.0001    0.0030
    50 C4     3d2-       0.0000    0.0001    0.0000   -0.0001   -0.0000   -0.0001   -0.0001    0.0000    0.0000   -0.0006
    51 C4     3d1-      -0.0000   -0.0001    0.0001    0.0001    0.0000    0.0000    0.0001   -0.0000   -0.0000    0.0008
    52 C4     3d0       -0.0000    0.0001   -0.0000    0.0001    0.0000   -0.0001   -0.0002   -0.0000   -0.0000   -0.0006
    53 C4     3d1+      -0.0000   -0.0001   -0.0000    0.0000    0.0000   -0.0000   -0.0001   -0.0000   -0.0000   -0.0009
    54 C4     3d2+       0.0000    0.0000   -0.0001    0.0002    0.0000   -0.0001   -0.0004   -0.0001    0.0000   -0.0015
    55 C6     1s         0.0001    0.0001    0.0000    0.0003   -0.0001   -0.0000   -0.0005    0.9997   -0.0000    0.0000
    56 C6     2s         0.0004    0.0007    0.0001    0.0014   -0.0004    0.0004   -0.0006    0.0001   -0.0002    0.0049
    57 C6     3s         0.0002    0.0004    0.0000    0.0003   -0.0004    0.0002   -0.0006   -0.0016   -0.0002    0.0053
    58 C6     4s         0.0000    0.0001   -0.0000   -0.0001   -0.0002   -0.0000   -0.0003    0.0009   -0.0001    0.0025
    59 C6     2px        0.0001   -0.0001   -0.0001   -0.0003    0.0002   -0.0002    0.0002   -0.0000    0.0001   -0.0048
    60 C6     3px        0.0001   -0.0001   -0.0001    0.0001    0.0002   -0.0002    0.0003    0.0002    0.0001   -0.0042
    61 C6     4px        0.0000    0.0000   -0.0000    0.0002    0.0000    0.0000    0.0000   -0.0004   -0.0000   -0.0002
    62 C6     2py        0.0000   -0.0002    0.0001    0.0001   -0.0000    0.0002    0.0003    0.0002    0.0000   -0.0017
    63 C6     3py        0.0001   -0.0001    0.0001    0.0002    0.0000    0.0002    0.0004   -0.0000    0.0000   -0.0024
    64 C6     4py        0.0000    0.0001   -0.0000    0.0001    0.0000    0.0000    0.0001   -0.0001    0.0000   -0.0008
    65 C6     2pz        0.0001    0.0002   -0.0001    0.0003   -0.0002   -0.0001   -0.0004    0.0000   -0.0001    0.0037
    66 C6     3pz        0.0001    0.0002   -0.0001   -0.0002   -0.0003   -0.0002   -0.0004   -0.0002   -0.0001    0.0038
    67 C6     4pz       -0.0000   -0.0000   -0.0000   -0.0002   -0.0000   -0.0001   -0.0001    0.0005   -0.0000    0.0008
    68 C6     3d2-       0.0000    0.0000   -0.0000    0.0000   -0.0000    0.0000    0.0000    0.0000    0.0000    0.0000
    69 C6     3d1-       0.0000   -0.0000    0.0000   -0.0000    0.0000   -0.0000   -0.0001   -0.0000    0.0000   -0.0002
    70 C6     3d0       -0.0000    0.0000    0.0000   -0.0000   -0.0000    0.0000   -0.0000   -0.0000   -0.0000    0.0002
    71 C6     3d1+      -0.0000   -0.0000   -0.0000    0.0001    0.0000   -0.0000   -0.0000    0.0001    0.0000   -0.0004
    72 C6     3d2+      -0.0000    0.0000   -0.0000    0.0000   -0.0000   -0.0000   -0.0000   -0.0000   -0.0000    0.0002
    73 C19    1s         0.0002    0.0000   -0.0000   -0.0000    0.0036    0.0001   -0.0001   -0.0000    0.9999   -0.0142
    74 C19    2s         0.0011    0.0002   -0.0002   -0.0002    0.0004    0.0005   -0.0006   -0.0001    0.0019   -0.0111
    75 C19    3s         0.0007    0.0001   -0.0001   -0.0002    0.0001    0.0002   -0.0004   -0.0002   -0.0005   -0.0385
    76 C19    4s         0.0001   -0.0000   -0.0000   -0.0000    0.0001   -0.0001   -0.0001   -0.0001    0.0013   -0.0038
    77 C19    2px        0.0008    0.0001   -0.0004   -0.0000   -0.0002    0.0002   -0.0001   -0.0000   -0.0002   -0.0107
    78 C19    3px        0.0005    0.0001   -0.0003    0.0000   -0.0003    0.0002   -0.0000    0.0000   -0.0001   -0.0070
    79 C19    4px       -0.0002    0.0000    0.0000    0.0000   -0.0000    0.0000    0.0000    0.0000    0.0002    0.0075
    80 C19    2py       -0.0001   -0.0001    0.0003   -0.0001    0.0004    0.0001   -0.0002   -0.0001   -0.0002    0.0199
    81 C19    3py       -0.0003   -0.0001    0.0003   -0.0000   -0.0001   -0.0000   -0.0001   -0.0001    0.0000   -0.0074
    82 C19    4py       -0.0002   -0.0000   -0.0001    0.0000   -0.0001   -0.0001    0.0001    0.0000    0.0004    0.0056
    83 C19    2pz       -0.0001   -0.0001    0.0001    0.0001    0.0001    0.0002   -0.0001   -0.0000    0.0000    0.0001
    84 C19    3pz       -0.0001   -0.0001    0.0001    0.0001    0.0001    0.0002   -0.0001   -0.0000    0.0000   -0.0008
    85 C19    4pz       -0.0000    0.0000   -0.0000   -0.0000   -0.0000   -0.0000   -0.0000    0.0000    0.0000    0.0005
    86 C19    3d2-       0.0001    0.0000   -0.0000   -0.0000    0.0000    0.0001   -0.0000   -0.0000   -0.0001   -0.0000
    87 C19    3d1-       0.0000    0.0000    0.0000   -0.0000   -0.0000   -0.0000   -0.0000    0.0000   -0.0000    0.0004
    88 C19    3d0       -0.0001   -0.0000   -0.0001    0.0000    0.0001   -0.0000    0.0000    0.0000    0.0001    0.0015
    89 C19    3d1+       0.0000    0.0000   -0.0000   -0.0000   -0.0000   -0.0000    0.0000    0.0000   -0.0000    0.0002
    90 C19    3d2+       0.0001   -0.0000   -0.0000   -0.0000   -0.0001   -0.0000    0.0000    0.0000    0.0001   -0.0069
    91 N2     1s         0.0001    0.0000    0.9998   -0.0000   -0.0002    0.0001    0.0000    0.0000    0.0001   -0.0177
    92 N2     2s         0.0006    0.0003   -0.0002    0.0001   -0.0001    0.0013   -0.0002    0.0001    0.0006    0.1125
    93 N2     3s         0.0005    0.0003   -0.0015    0.0001   -0.0003    0.0007   -0.0000    0.0001    0.0004   -0.0487
    94 N2     4s         0.0001    0.0001    0.0004    0.0000    0.0001    0.0003   -0.0000    0.0000    0.0001   -0.0118
    95 N2     2px        0.0001    0.0001    0.0005    0.0001   -0.0001    0.0007   -0.0003   -0.0000   -0.0003   -0.0330
    96 N2     3px        0.0001    0.0001    0.0006    0.0002    0.0001    0.0005   -0.0002   -0.0001   -0.0002    0.0115
    97 N2     4px        0.0000   -0.0001   -0.0002    0.0000   -0.0002    0.0000    0.0000   -0.0000    0.0001   -0.0062
    98 N2     2py       -0.0013    0.0002   -0.0007    0.0000    0.0002    0.0007   -0.0001    0.0000   -0.0002    0.0350
    99 N2     3py       -0.0016    0.0002   -0.0002    0.0000    0.0001    0.0006   -0.0001    0.0000   -0.0002    0.0138
   100 N2     4py       -0.0000   -0.0001    0.0005   -0.0000   -0.0001    0.0002   -0.0001   -0.0000    0.0001   -0.0055
   101 N2     2pz       -0.0002    0.0003   -0.0003   -0.0002   -0.0000   -0.0003    0.0001    0.0001   -0.0002    0.0054
   102 N2     3pz       -0.0002    0.0004   -0.0000   -0.0003   -0.0002   -0.0005    0.0000    0.0001   -0.0002    0.0154
   103 N2     4pz        0.0000    0.0000   -0.0004   -0.0000   -0.0001   -0.0001    0.0000    0.0000   -0.0000    0.0004
   104 N2     3d2-       0.0001    0.0000   -0.0002   -0.0000   -0.0001    0.0000    0.0000   -0.0000   -0.0000   -0.0027
   105 N2     3d1-       0.0000   -0.0000    0.0001   -0.0000   -0.0000    0.0000   -0.0000    0.0000    0.0000   -0.0011
   106 N2     3d0       -0.0000   -0.0000    0.0000    0.0000    0.0001    0.0001   -0.0000   -0.0000   -0.0001   -0.0027
   107 N2     3d1+      -0.0000    0.0000   -0.0000   -0.0000   -0.0000   -0.0000   -0.0000    0.0000   -0.0000    0.0000
   108 N2     3d2+      -0.0000   -0.0000   -0.0000   -0.0000    0.0001   -0.0000    0.0000   -0.0000    0.0000    0.0047
   109 N5     1s         0.0000    0.0001    0.0001    0.9999    0.0001   -0.0001   -0.0002    0.0001   -0.0000   -0.0012
   110 N5     2s         0.0000    0.0008    0.0006    0.0006    0.0005   -0.0001   -0.0003    0.0017   -0.0000    0.0025
   111 N5     3s         0.0000    0.0006    0.0004   -0.0011    0.0003   -0.0001   -0.0004    0.0010   -0.0000   -0.0034
   112 N5     4s         0.0000    0.0001    0.0001    0.0006    0.0001   -0.0000    0.0000    0.0004   -0.0000   -0.0006
   113 N5     2px       -0.0003   -0.0009   -0.0003   -0.0005    0.0001   -0.0000    0.0005    0.0006    0.0000    0.0012
   114 N5     3px       -0.0004   -0.0011   -0.0003   -0.0002    0.0002   -0.0002    0.0003    0.0006    0.0000    0.0013
   115 N5     4px       -0.0000    0.0000    0.0000    0.0001    0.0001   -0.0000   -0.0001    0.0001   -0.0000   -0.0003
   116 N5     2py        0.0001    0.0008   -0.0003    0.0007    0.0001   -0.0004   -0.0001    0.0002    0.0001   -0.0044
   117 N5     3py        0.0001    0.0010   -0.0002    0.0003    0.0002   -0.0003    0.0000   -0.0001    0.0001   -0.0030
   118 N5     4py       -0.0000    0.0000    0.0001   -0.0003    0.0001    0.0000   -0.0002   -0.0002   -0.0000   -0.0003
   119 N5     2pz        0.0003    0.0010    0.0002    0.0005   -0.0003    0.0003   -0.0002   -0.0007   -0.0001    0.0025
   120 N5     3pz        0.0004    0.0012    0.0002    0.0003   -0.0005    0.0004   -0.0004   -0.0007   -0.0001    0.0043
   121 N5     4pz        0.0000   -0.0000   -0.0000   -0.0002   -0.0001    0.0001    0.0001   -0.0002   -0.0000    0.0017
   122 N5     3d2-      -0.0000    0.0000    0.0000   -0.0001    0.0000    0.0000   -0.0000   -0.0000   -0.0000    0.0002
   123 N5     3d1-       0.0000   -0.0000   -0.0000    0.0001   -0.0000   -0.0000    0.0000    0.0000    0.0000   -0.0003
   124 N5     3d0       -0.0000    0.0000   -0.0000   -0.0001   -0.0000   -0.0000   -0.0000    0.0000   -0.0000    0.0001
   125 N5     3d1+      -0.0000   -0.0001   -0.0000    0.0001    0.0000    0.0000    0.0002    0.0001   -0.0000    0.0001
   126 N5     3d2+      -0.0000    0.0000   -0.0000   -0.0001   -0.0000   -0.0000    0.0000    0.0000   -0.0000    0.0001
   127 O7     1s         0.9997    0.0000    0.0000   -0.0000   -0.0003   -0.0000    0.0000    0.0000    0.0001   -0.0238
   128 O7     2s        -0.0015    0.0001    0.0001   -0.0000    0.0004   -0.0001    0.0002    0.0000    0.0003    0.6934
   129 O7     3s        -0.0014    0.0001    0.0001   -0.0000   -0.0000   -0.0000    0.0001    0.0000    0.0003   -0.0342
   130 O7     4s         0.0000    0.0000   -0.0000   -0.0000    0.0000    0.0000    0.0000    0.0000    0.0001   -0.0138
   131 O7     2px        0.0001    0.0001   -0.0003    0.0000    0.0004   -0.0001    0.0001    0.0000    0.0001    0.0922
   132 O7     3px       -0.0003    0.0002   -0.0004    0.0000   -0.0001   -0.0000    0.0001    0.0000    0.0001   -0.0265
   133 O7     4px        0.0009    0.0001   -0.0001    0.0000    0.0001    0.0000   -0.0000   -0.0000   -0.0000   -0.0013
   134 O7     2py       -0.0001   -0.0000   -0.0002    0.0000   -0.0006    0.0000    0.0001   -0.0000   -0.0001   -0.1170
   135 O7     3py        0.0006    0.0000   -0.0002    0.0000   -0.0003   -0.0000    0.0001   -0.0000   -0.0001    0.0357
   136 O7     4py       -0.0011    0.0000    0.0001    0.0000   -0.0003   -0.0000    0.0000   -0.0000    0.0000    0.0000
   137 O7     2pz       -0.0000   -0.0000   -0.0001   -0.0000    0.0001   -0.0000    0.0000   -0.0000   -0.0000   -0.0009
   138 O7     3pz       -0.0000   -0.0000   -0.0000   -0.0000   -0.0000   -0.0000   -0.0001   -0.0000   -0.0000    0.0029
   139 O7     4pz       -0.0001   -0.0000   -0.0000    0.0000   -0.0000   -0.0000   -0.0000   -0.0000   -0.0000    0.0004
   140 O7     3d2-       0.0001   -0.0000    0.0000   -0.0000   -0.0002    0.0000   -0.0000    0.0000   -0.0000   -0.0186
   141 O7     3d1-       0.0000   -0.0000    0.0000   -0.0000    0.0000    0.0000   -0.0000   -0.0000    0.0000    0.0007
   142 O7     3d0       -0.0000   -0.0000   -0.0001    0.0000   -0.0001    0.0000    0.0000    0.0000   -0.0000   -0.0107
   143 O7     3d1+      -0.0000   -0.0000    0.0000   -0.0000   -0.0000    0.0000    0.0000    0.0000   -0.0000   -0.0006
   144 O7     3d2+       0.0000    0.0000   -0.0001    0.0000   -0.0001   -0.0000    0.0000    0.0000   -0.0000   -0.0051
   145 O8     1s         0.0000    0.9997   -0.0000    0.0000    0.0000   -0.0001   -0.0002   -0.0000    0.0000   -0.0017
   146 O8     2s        -0.0000   -0.0015   -0.0003    0.0002    0.0002    0.0002    0.0006   -0.0003    0.0001    0.0230
   147 O8     3s        -0.0000   -0.0014   -0.0002    0.0001    0.0001    0.0001    0.0001   -0.0001    0.0001   -0.0038
   148 O8     4s        -0.0000    0.0001   -0.0000    0.0000    0.0000    0.0000    0.0000   -0.0000    0.0000   -0.0011
   149 O8     2px       -0.0001   -0.0001    0.0001   -0.0002   -0.0000    0.0001    0.0001   -0.0000   -0.0000   -0.0017
   150 O8     3px       -0.0001    0.0001    0.0000   -0.0001   -0.0000    0.0001   -0.0001   -0.0000    0.0000    0.0003
   151 O8     4px       -0.0000   -0.0004   -0.0000    0.0000    0.0000   -0.0000   -0.0001   -0.0000    0.0000   -0.0004
   152 O8     2py        0.0000    0.0002   -0.0000   -0.0002    0.0000    0.0003    0.0007   -0.0001    0.0000    0.0037
   153 O8     3py        0.0000   -0.0005    0.0000   -0.0003    0.0001    0.0001    0.0001   -0.0000   -0.0000   -0.0024
   154 O8     4py       -0.0000    0.0012    0.0000   -0.0001    0.0000    0.0000    0.0001    0.0000   -0.0000    0.0002
   155 O8     2pz        0.0000    0.0001   -0.0001    0.0002    0.0000    0.0001    0.0004    0.0000    0.0001    0.0031
   156 O8     3pz        0.0001   -0.0003   -0.0001    0.0001   -0.0000   -0.0001    0.0001   -0.0000    0.0001   -0.0011
   157 O8     4pz        0.0000    0.0005   -0.0000   -0.0000   -0.0000   -0.0000    0.0001   -0.0000    0.0000    0.0004
   158 O8     3d2-      -0.0000    0.0001    0.0000   -0.0000   -0.0000   -0.0000   -0.0001    0.0000   -0.0000   -0.0003
   159 O8     3d1-       0.0000   -0.0001   -0.0000    0.0000   -0.0000    0.0001    0.0002   -0.0000    0.0000    0.0005
   160 O8     3d0       -0.0000    0.0000   -0.0000    0.0000    0.0000   -0.0000   -0.0001    0.0000    0.0000   -0.0002
   161 O8     3d1+      -0.0000   -0.0000    0.0000   -0.0001    0.0000   -0.0000    0.0000   -0.0000   -0.0000   -0.0003
   162 O8     3d2+      -0.0000    0.0001    0.0000    0.0000   -0.0000   -0.0001   -0.0001    0.0000   -0.0000   -0.0003
   163 H9     1s         0.0002    0.0000   -0.0000   -0.0001   -0.0001   -0.0005    0.0000   -0.0000    0.0003    0.0148
   164 H9     2s         0.0001   -0.0000   -0.0000   -0.0000   -0.0000   -0.0003    0.0000   -0.0000   -0.0003    0.0039
   165 H9     2px       -0.0000   -0.0000    0.0000   -0.0000    0.0000   -0.0001   -0.0000   -0.0000   -0.0000    0.0009
   166 H9     2py       -0.0001   -0.0000   -0.0000    0.0000    0.0001   -0.0000   -0.0000   -0.0000    0.0000    0.0013
   167 H9     2pz       -0.0000    0.0000    0.0000    0.0000   -0.0000    0.0000    0.0000    0.0000    0.0001   -0.0006
   168 H10    1s         0.0000   -0.0003    0.0002    0.0001    0.0002    0.0000   -0.0000   -0.0001    0.0004    0.0120
   169 H10    2s        -0.0000   -0.0002    0.0001    0.0000    0.0001    0.0000   -0.0000   -0.0000   -0.0002    0.0017
   170 H10    2px       -0.0000   -0.0000    0.0001    0.0000    0.0001    0.0000   -0.0000   -0.0000   -0.0000    0.0006
   171 H10    2py       -0.0001   -0.0000   -0.0000   -0.0000    0.0001   -0.0000    0.0000   -0.0000    0.0000    0.0011
   172 H10    2pz        0.0000   -0.0000   -0.0000    0.0000    0.0000   -0.0000   -0.0000   -0.0000   -0.0001    0.0005
   173 H11    1s        -0.0005   -0.0002    0.0004   -0.0000    0.0003   -0.0001   -0.0000   -0.0001    0.0004    0.0198
   174 H11    2s        -0.0003   -0.0001    0.0003   -0.0000    0.0002   -0.0001   -0.0000   -0.0000   -0.0002    0.0055
   175 H11    2px       -0.0000    0.0000   -0.0001   -0.0000   -0.0000    0.0000    0.0000    0.0000    0.0001   -0.0001
   176 H11    2py       -0.0000   -0.0000    0.0000    0.0000    0.0001   -0.0000    0.0000   -0.0000   -0.0000    0.0019
   177 H11    2pz       -0.0000    0.0000   -0.0000   -0.0000   -0.0000   -0.0000    0.0000    0.0000   -0.0000    0.0001
   178 H12    1s        -0.0009    0.0003   -0.0007   -0.0001    0.0001   -0.0002    0.0001   -0.0000   -0.0005    0.0377
   179 H12    2s        -0.0005    0.0003   -0.0005   -0.0001   -0.0000   -0.0001    0.0001   -0.0000   -0.0002   -0.0019
   180 H12    2px        0.0000   -0.0001    0.0002    0.0000   -0.0001    0.0000   -0.0000   -0.0000    0.0000   -0.0042
   181 H12    2py       -0.0000    0.0000   -0.0003    0.0000    0.0000    0.0001    0.0000   -0.0000   -0.0000    0.0038
   182 H12    2pz       -0.0001   -0.0000   -0.0002    0.0000    0.0000    0.0000    0.0000   -0.0000   -0.0000    0.0018
   183 H13    1s         0.0005   -0.0003   -0.0003    0.0003   -0.0003    0.0007   -0.0006   -0.0002    0.0003    0.0102
   184 H13    2s         0.0004   -0.0002   -0.0001    0.0002   -0.0001    0.0000   -0.0002   -0.0001    0.0002   -0.0053
   185 H13    2px        0.0000   -0.0000    0.0000   -0.0000   -0.0001    0.0001    0.0000   -0.0000    0.0000   -0.0004
   186 H13    2py       -0.0000   -0.0000   -0.0000   -0.0001    0.0000   -0.0001    0.0000   -0.0000   -0.0000   -0.0009
   187 H13    2pz       -0.0000   -0.0000    0.0000    0.0000    0.0000   -0.0000   -0.0000    0.0000   -0.0000    0.0007
   188 H14    1s         0.0001    0.0009   -0.0003   -0.0002   -0.0005    0.0007   -0.0005   -0.0002   -0.0004    0.0170
   189 H14    2s         0.0001    0.0005   -0.0001   -0.0001   -0.0003    0.0001   -0.0001   -0.0001   -0.0003    0.0061
   190 H14    2px       -0.0000   -0.0000    0.0000   -0.0000    0.0000    0.0000    0.0000    0.0000    0.0000   -0.0009
   191 H14    2py       -0.0000   -0.0001    0.0000   -0.0000   -0.0000   -0.0000    0.0000   -0.0000    0.0000   -0.0006
   192 H14    2pz        0.0000   -0.0001   -0.0000    0.0000    0.0000    0.0000   -0.0001    0.0000    0.0000   -0.0011
   193 H15    1s        -0.0003   -0.0014   -0.0000   -0.0008   -0.0001    0.0003    0.0003   -0.0001   -0.0001    0.0075
   194 H15    2s        -0.0002   -0.0008   -0.0000   -0.0005   -0.0001    0.0002    0.0001   -0.0000   -0.0001    0.0037
   195 H15    2px       -0.0000   -0.0000    0.0000   -0.0002   -0.0000    0.0000   -0.0000    0.0000   -0.0000    0.0004
   196 H15    2py        0.0000    0.0001   -0.0000    0.0004    0.0000   -0.0001   -0.0001    0.0000    0.0000   -0.0008
   197 H15    2pz        0.0000    0.0000   -0.0000    0.0002    0.0000   -0.0000    0.0000   -0.0000    0.0000   -0.0005
   198 H16    1s         0.0000    0.0003   -0.0001   -0.0005   -0.0002   -0.0003   -0.0003    0.0005   -0.0001    0.0035
   199 H16    2s         0.0000    0.0002   -0.0001   -0.0002   -0.0001   -0.0002   -0.0003   -0.0001   -0.0000    0.0026
   200 H16    2px       -0.0000   -0.0000   -0.0000    0.0000   -0.0000   -0.0000   -0.0000   -0.0000   -0.0000    0.0002
   201 H16    2py       -0.0000   -0.0000    0.0000    0.0000    0.0000    0.0000    0.0000   -0.0000    0.0000   -0.0001
   202 H16    2pz        0.0000    0.0000   -0.0000   -0.0000   -0.0000   -0.0000   -0.0000    0.0000   -0.0000    0.0002
   203 H17    1s        -0.0001    0.0002    0.0001   -0.0004   -0.0000    0.0000   -0.0004    0.0005   -0.0000    0.0033
   204 H17    2s        -0.0001    0.0001    0.0001   -0.0002   -0.0000    0.0000   -0.0002   -0.0001   -0.0000    0.0022
   205 H17    2px        0.0000   -0.0000    0.0000    0.0000    0.0000    0.0000    0.0001   -0.0000    0.0000   -0.0003
   206 H17    2py        0.0000   -0.0000   -0.0000    0.0000    0.0000   -0.0000    0.0000   -0.0000    0.0000   -0.0002
   207 H17    2pz        0.0000    0.0000    0.0000   -0.0000    0.0000    0.0000    0.0000    0.0000    0.0000   -0.0003
   208 H18    1s        -0.0001   -0.0000   -0.0001   -0.0002   -0.0003    0.0000   -0.0000    0.0010   -0.0001    0.0045
   209 H18    2s        -0.0001    0.0000   -0.0001   -0.0000   -0.0002    0.0000    0.0000    0.0001   -0.0000    0.0028
   210 H18    2px        0.0000   -0.0000    0.0000   -0.0000    0.0000    0.0000   -0.0000   -0.0001   -0.0000   -0.0001
   211 H18    2py       -0.0000   -0.0000   -0.0000    0.0000   -0.0000    0.0000   -0.0000    0.0001   -0.0000    0.0005
   212 H18    2pz       -0.0000   -0.0000   -0.0000    0.0000   -0.0000    0.0000    0.0000    0.0001   -0.0000    0.0003
 
 
      Orbital                11        12        13        14        15        16        17        18        19        20
      Energy            -1.3625   -1.2535   -1.2141   -1.0276   -0.9711   -0.9134   -0.8136   -0.7770   -0.7186   -0.6941
      Occ. No.           2.0000    2.0000    2.0000    2.0000    2.0000    2.0000    2.0000    2.0000    2.0000    2.0000
 
     1 C1     1s         0.0035   -0.0082    0.0021   -0.0173   -0.0009    0.0067    0.0150    0.0016    0.0063    0.0032
     2 C1     2s         0.0061    0.1337    0.0093    0.2702   -0.0437   -0.0905   -0.3773   -0.0141   -0.2513   -0.0730
     3 C1     3s         0.0146    0.0005    0.0127   -0.0231   -0.0057    0.0108    0.0087    0.0043    0.0052    0.0173
     4 C1     4s         0.0045    0.0002    0.0039   -0.0064   -0.0020    0.0045    0.0034    0.0016    0.0032    0.0031
     5 C1     2px        0.0349    0.1503    0.0167   -0.0095    0.0993   -0.0997   -0.1264   -0.0057    0.1499    0.2687
     6 C1     3px        0.0190   -0.0488    0.0269   -0.0515   -0.0212    0.0347    0.0217   -0.0060   -0.0649   -0.0645
     7 C1     4px        0.0091    0.0239    0.0044   -0.0087    0.0127   -0.0076   -0.0098   -0.0012    0.0058    0.0172
     8 C1     2py        0.0089   -0.0315    0.0205   -0.1619    0.0633   -0.0007   -0.0574    0.0355    0.0569   -0.1340
     9 C1     3py        0.0281    0.0422    0.0243    0.0095   -0.0501    0.0459    0.0120   -0.0059   -0.0085    0.0567
    10 C1     4py        0.0015   -0.0046    0.0045   -0.0264    0.0067    0.0047   -0.0078    0.0018   -0.0019   -0.0082
    11 C1     2pz       -0.0016   -0.0126   -0.0033    0.0001    0.0106   -0.0108   -0.0220    0.0056    0.0103   -0.0053
    12 C1     3pz       -0.0015   -0.0120   -0.0051    0.0051    0.0061   -0.0076   -0.0016    0.0029    0.0017    0.0001
    13 C1     4pz       -0.0007   -0.0013   -0.0010    0.0016    0.0021   -0.0029   -0.0013    0.0010    0.0022   -0.0011
    14 C1     3d2-       0.0038    0.0167   -0.0001    0.0083   -0.0082    0.0062   -0.0125    0.0072    0.0180    0.0085
    15 C1     3d1-      -0.0003   -0.0010   -0.0000    0.0008   -0.0005    0.0002   -0.0015    0.0004   -0.0011   -0.0017
    16 C1     3d0        0.0006   -0.0067   -0.0000   -0.0113   -0.0001    0.0052    0.0133    0.0007    0.0061    0.0024
    17 C1     3d1+      -0.0000    0.0002   -0.0002    0.0015    0.0011   -0.0012   -0.0043    0.0013    0.0043    0.0017
    18 C1     3d2+       0.0029    0.0265   -0.0007    0.0014    0.0148   -0.0138   -0.0080   -0.0013    0.0130    0.0165
    19 C3     1s        -0.0156   -0.0304   -0.0067    0.0338    0.0255   -0.0227    0.0079   -0.0068   -0.0004    0.0008
    20 C3     2s         0.0286    0.1727    0.0148   -0.2831   -0.2440    0.3188   -0.0989    0.0720   -0.0352    0.0369
    21 C3     3s        -0.0382   -0.0514   -0.0192    0.0586    0.0425   -0.0189    0.0154   -0.0142    0.0011    0.0016
    22 C3     4s        -0.0050   -0.0110   -0.0025    0.0158    0.0106   -0.0054    0.0042   -0.0046    0.0020   -0.0018
    23 C3     2px        0.0171   -0.0539    0.0203   -0.0293   -0.0654    0.0094    0.0492   -0.1149   -0.2282    0.0618
    24 C3     3px        0.0089    0.0062    0.0138   -0.0340    0.0063    0.0172   -0.0146    0.0203    0.0336   -0.0081
    25 C3     4px        0.0081   -0.0042    0.0055   -0.0070   -0.0018    0.0012    0.0028   -0.0057   -0.0045    0.0017
    26 C3     2py       -0.0349   -0.0940    0.0129    0.0020   -0.0482   -0.0354   -0.1441    0.0041   -0.0419    0.2222
    27 C3     3py       -0.0033    0.0162   -0.0022   -0.0349    0.0077   -0.0289    0.0080    0.0159    0.0075   -0.0291
    28 C3     4py        0.0069   -0.0030    0.0037   -0.0116   -0.0084    0.0022   -0.0078    0.0085   -0.0028    0.0095
    29 C3     2pz       -0.0109    0.0080   -0.0196    0.0081    0.0347    0.0320   -0.0099    0.1066    0.1320   -0.1004
    30 C3     3pz        0.0121    0.0061   -0.0066   -0.0147   -0.0262    0.0152   -0.0055   -0.0130   -0.0175    0.0132
    31 C3     4pz       -0.0062    0.0081   -0.0025   -0.0071   -0.0058    0.0134   -0.0010    0.0066   -0.0012   -0.0001
    32 C3     3d2-       0.0002    0.0182    0.0035   -0.0035    0.0050   -0.0016    0.0043    0.0033    0.0132   -0.0177
    33 C3     3d1-       0.0043   -0.0035   -0.0048    0.0017   -0.0002    0.0015    0.0005   -0.0014   -0.0097    0.0054
    34 C3     3d0        0.0005   -0.0106    0.0012    0.0021   -0.0079   -0.0019   -0.0019   -0.0098   -0.0175    0.0104
    35 C3     3d1+      -0.0023   -0.0044   -0.0016    0.0058    0.0084    0.0003   -0.0010    0.0093    0.0097   -0.0037
    36 C3     3d2+       0.0005   -0.0112    0.0014    0.0015   -0.0074   -0.0026   -0.0180   -0.0057   -0.0056    0.0175
    37 C4     1s        -0.0397    0.0083   -0.0057    0.0077    0.0154    0.0079    0.0038    0.0161    0.0028   -0.0024
    38 C4     2s         0.3604    0.0145    0.1247   -0.1067   -0.2264   -0.0459   -0.0457   -0.3990   -0.0769    0.0465
    39 C4     3s        -0.0058    0.0243    0.0093    0.0143    0.0140    0.0194    0.0064    0.0088    0.0034   -0.0027
    40 C4     4s         0.0025    0.0065    0.0028    0.0049    0.0044    0.0060    0.0015    0.0050    0.0034   -0.0023
    41 C4     2px        0.0477   -0.0411    0.0391    0.0427    0.0738   -0.0317   -0.0062   -0.0488    0.1174   -0.0631
    42 C4     3px       -0.0186   -0.0059    0.0330   -0.0229    0.0355    0.0627   -0.0024    0.0015   -0.0500    0.0320
    43 C4     4px        0.0113   -0.0084    0.0116    0.0024    0.0150    0.0040   -0.0021   -0.0046    0.0020   -0.0001
    44 C4     2py       -0.0732   -0.0050    0.1688   -0.0291   -0.0599   -0.0788   -0.0222   -0.1008    0.0617    0.0069
    45 C4     3py        0.0562   -0.0391   -0.0409    0.0032    0.0490    0.0404   -0.0131    0.0237   -0.0286    0.0029
    46 C4     4py       -0.0206   -0.0048    0.0328   -0.0032   -0.0036   -0.0054   -0.0089   -0.0034    0.0033    0.0017
    47 C4     2pz       -0.0531    0.0382   -0.0350   -0.0592   -0.0975    0.0232    0.0125    0.0220   -0.1600    0.0783
    48 C4     3pz        0.0147   -0.0081   -0.0470    0.0289   -0.0176   -0.0895    0.0089    0.0007    0.0630   -0.0390
    49 C4     4pz       -0.0156    0.0072   -0.0121   -0.0064   -0.0148   -0.0073    0.0034    0.0043   -0.0043   -0.0002
    50 C4     3d2-      -0.0139    0.0036    0.0197   -0.0006   -0.0031   -0.0071    0.0043   -0.0120    0.0083   -0.0096
    51 C4     3d1-       0.0200   -0.0057   -0.0214    0.0012    0.0017    0.0063   -0.0047    0.0118   -0.0100    0.0115
    52 C4     3d0       -0.0135    0.0038   -0.0036   -0.0038    0.0004    0.0117    0.0002   -0.0009   -0.0067    0.0006
    53 C4     3d1+      -0.0139   -0.0017   -0.0027    0.0082    0.0102   -0.0064    0.0042    0.0145    0.0025   -0.0013
    54 C4     3d2+      -0.0291    0.0071   -0.0050   -0.0032    0.0051    0.0160   -0.0018    0.0027   -0.0011   -0.0004
    55 C6     1s        -0.0092    0.0047   -0.0345   -0.0123   -0.0383   -0.0420    0.0062    0.0072    0.0060   -0.0058
    56 C6     2s         0.0269    0.0082    0.1567    0.0911    0.2546    0.3681   -0.0343   -0.1149   -0.0484    0.0440
    57 C6     3s        -0.0135    0.0210   -0.0601   -0.0147   -0.0738   -0.0678    0.0183    0.0111    0.0157   -0.0163
    58 C6     4s        -0.0002    0.0063   -0.0098   -0.0017   -0.0161   -0.0137    0.0046    0.0032    0.0041   -0.0044
    59 C6     2px       -0.0157    0.0003   -0.0683   -0.0190   -0.0114    0.0292   -0.0259   -0.0726   -0.0589    0.0814
    60 C6     3px        0.0028   -0.0052    0.0143   -0.0007    0.0126    0.0061   -0.0017    0.0046    0.0098   -0.0130
    61 C6     4px       -0.0023   -0.0004   -0.0008    0.0031    0.0090    0.0132   -0.0028   -0.0069   -0.0031    0.0038
    62 C6     2py       -0.0096    0.0006   -0.0117   -0.0043    0.0080    0.0175    0.0096    0.1093   -0.1128    0.0753
    63 C6     3py       -0.0008   -0.0018    0.0047   -0.0008    0.0117    0.0122   -0.0035   -0.0018    0.0101   -0.0067
    64 C6     4py       -0.0007   -0.0000    0.0024    0.0009    0.0040    0.0033    0.0021    0.0056   -0.0063    0.0039
    65 C6     2pz        0.0174    0.0056    0.0806    0.0159    0.0097   -0.0226    0.0274    0.0844    0.0574   -0.0913
    66 C6     3pz       -0.0013    0.0129   -0.0133   -0.0049   -0.0195    0.0030   -0.0020   -0.0059   -0.0113    0.0157
    67 C6     4pz        0.0030    0.0013    0.0011   -0.0028   -0.0111   -0.0146    0.0029    0.0079    0.0027   -0.0042
    68 C6     3d2-       0.0008    0.0000    0.0020    0.0001   -0.0005   -0.0012   -0.0007   -0.0058    0.0042   -0.0029
    69 C6     3d1-      -0.0011    0.0002   -0.0024   -0.0004    0.0006    0.0018    0.0007    0.0068   -0.0052    0.0033
    70 C6     3d0        0.0017   -0.0003    0.0085    0.0013    0.0016   -0.0015    0.0020    0.0075    0.0012   -0.0038
    71 C6     3d1+      -0.0045    0.0010   -0.0201   -0.0048   -0.0064    0.0020   -0.0036   -0.0094   -0.0124    0.0150
    72 C6     3d2+       0.0013   -0.0001    0.0092    0.0013    0.0013   -0.0019    0.0024    0.0108   -0.0009   -0.0027
    73 C19    1s         0.0009   -0.0090    0.0015   -0.0569    0.0416   -0.0215   -0.0129   -0.0036   -0.0090    0.0016
    74 C19    2s         0.0054    0.0072    0.0086    0.3022   -0.2706    0.1651    0.0785    0.0348    0.0967    0.0052
    75 C19    3s         0.0069   -0.0236    0.0107   -0.1143    0.0768   -0.0351   -0.0339   -0.0068   -0.0169    0.0107
    76 C19    4s         0.0029   -0.0026    0.0038   -0.0249    0.0173   -0.0076   -0.0096   -0.0020   -0.0052    0.0030
    77 C19    2px        0.0012    0.0266   -0.0008    0.0517   -0.0002   -0.0259   -0.0413   -0.0233   -0.0491    0.1294
    78 C19    3px       -0.0024    0.0015   -0.0012    0.0041    0.0030   -0.0009    0.0038    0.0042    0.0110   -0.0105
    79 C19    4px       -0.0014    0.0003   -0.0008   -0.0073    0.0113   -0.0085   -0.0013   -0.0031   -0.0058    0.0029
    80 C19    2py        0.0040    0.0086    0.0063    0.0476   -0.0112   -0.0174   -0.0687   -0.0320   -0.2040   -0.0611
    81 C19    3py        0.0055   -0.0039    0.0070   -0.0328    0.0185   -0.0033    0.0105    0.0002    0.0218    0.0127
    82 C19    4py        0.0002    0.0007    0.0001   -0.0134    0.0144   -0.0101   -0.0134   -0.0013   -0.0086   -0.0018
    83 C19    2pz        0.0028   -0.0053   -0.0000    0.0016    0.0012   -0.0014   -0.0086   -0.0032   -0.0041   -0.0025
    84 C19    3pz        0.0033   -0.0050    0.0005   -0.0035    0.0010    0.0010   -0.0003   -0.0030    0.0004    0.0006
    85 C19    4pz        0.0003    0.0005    0.0003   -0.0008   -0.0004    0.0003   -0.0006   -0.0004   -0.0004    0.0002
    86 C19    3d2-       0.0004    0.0060   -0.0002    0.0105   -0.0018   -0.0029   -0.0072   -0.0024   -0.0125   -0.0007
    87 C19    3d1-       0.0000    0.0003    0.0001    0.0013   -0.0007    0.0000   -0.0009   -0.0002   -0.0012    0.0005
    88 C19    3d0       -0.0001   -0.0009   -0.0000   -0.0088    0.0038    0.0006    0.0034    0.0024    0.0081   -0.0076
    89 C19    3d1+      -0.0001    0.0008    0.0002    0.0004   -0.0005    0.0002   -0.0000   -0.0001   -0.0010   -0.0003
    90 C19    3d2+       0.0005    0.0020   -0.0001   -0.0081    0.0049   -0.0007    0.0040    0.0019    0.0147    0.0056
    91 N2     1s        -0.0070   -0.0416   -0.0003   -0.0034   -0.0042    0.0013   -0.0039    0.0008    0.0021   -0.0004
    92 N2     2s         0.0568    0.5796   -0.0210   -0.0130    0.2053   -0.1263    0.1539   -0.0109    0.1234   -0.0518
    93 N2     3s        -0.0175   -0.0822   -0.0047   -0.0080    0.0042   -0.0046   -0.0076    0.0042    0.0100    0.0005
    94 N2     4s        -0.0045   -0.0263   -0.0007   -0.0005   -0.0012    0.0002   -0.0031    0.0011   -0.0002    0.0006
    95 N2     2px        0.0117   -0.0340    0.0039   -0.1422   -0.0352    0.1205    0.3757   -0.0123   -0.1002   -0.2781
    96 N2     3px        0.0017   -0.0123    0.0066    0.0161    0.0432   -0.0563   -0.0962    0.0004   -0.0024    0.0599
    97 N2     4px        0.0031    0.0011    0.0016   -0.0072    0.0076   -0.0045    0.0020   -0.0004   -0.0018    0.0064
    98 N2     2py       -0.0023    0.0007    0.0034   -0.1252   -0.0464    0.1192   -0.1989    0.1559    0.2430   -0.1971
    99 N2     3py       -0.0125   -0.0425   -0.0027    0.0391    0.0465   -0.0572    0.0206   -0.0381   -0.0510    0.0288
   100 N2     4py        0.0003   -0.0113    0.0003   -0.0008    0.0045   -0.0045   -0.0079   -0.0025   -0.0015    0.0046
   101 N2     2pz       -0.0099   -0.0132    0.0058    0.0126   -0.0102    0.0018   -0.0484    0.0286    0.0679   -0.0200
   102 N2     3pz       -0.0022    0.0323    0.0036    0.0079   -0.0099   -0.0003    0.0250   -0.0078   -0.0124    0.0031
   103 N2     4pz       -0.0015    0.0007    0.0002    0.0012   -0.0015    0.0009   -0.0002    0.0002   -0.0012    0.0015
   104 N2     3d2-       0.0011    0.0075    0.0001   -0.0015   -0.0069    0.0083   -0.0056    0.0044    0.0060   -0.0030
   105 N2     3d1-      -0.0001    0.0006   -0.0005    0.0031    0.0029   -0.0032    0.0071   -0.0022   -0.0042    0.0021
   106 N2     3d0       -0.0015   -0.0156    0.0004    0.0013   -0.0034    0.0012    0.0023   -0.0012   -0.0042    0.0001
   107 N2     3d1+      -0.0007   -0.0008    0.0006    0.0023   -0.0005   -0.0015   -0.0083    0.0016    0.0040    0.0040
   108 N2     3d2+       0.0006    0.0048    0.0005    0.0103    0.0060   -0.0123   -0.0185   -0.0041   -0.0034    0.0147
   109 N5     1s        -0.0198    0.0020   -0.0423   -0.0015    0.0008    0.0031   -0.0017   -0.0033    0.0031   -0.0019
   110 N5     2s         0.1316   -0.0334    0.5766    0.0426   -0.0208   -0.2199    0.0675    0.1655    0.0963   -0.1033
   111 N5     3s        -0.0494    0.0047   -0.0790   -0.0022   -0.0060   -0.0129    0.0009   -0.0001    0.0146   -0.0105
   112 N5     4s        -0.0117    0.0023   -0.0263   -0.0013   -0.0026   -0.0012    0.0002   -0.0021    0.0017   -0.0009
   113 N5     2px        0.0151   -0.0119   -0.0092    0.0360    0.1039    0.1005   -0.0073   -0.0014    0.0579   -0.0843
   114 N5     3px        0.0126   -0.0148   -0.0176   -0.0082   -0.0354   -0.0632   -0.0060    0.0030   -0.0113    0.0183
   115 N5     4px       -0.0058   -0.0029   -0.0044    0.0024    0.0017   -0.0034   -0.0018   -0.0027    0.0012    0.0006
   116 N5     2py       -0.0391    0.0057   -0.0131    0.0211    0.0781    0.0545    0.0691    0.3953   -0.2165    0.0980
   117 N5     3py        0.0136   -0.0060    0.0259   -0.0018   -0.0021   -0.0069   -0.0091   -0.1024    0.0358   -0.0170
   118 N5     4py       -0.0023   -0.0022    0.0101    0.0035    0.0041   -0.0006    0.0004    0.0069   -0.0020    0.0023
   119 N5     2pz       -0.0087    0.0166    0.0108   -0.0394   -0.1290   -0.1118    0.0065   -0.0013   -0.0854    0.1069
   120 N5     3pz       -0.0133    0.0171    0.0223    0.0267    0.0392    0.0679    0.0067   -0.0036    0.0162   -0.0208
   121 N5     4pz        0.0057    0.0027    0.0044    0.0025   -0.0015    0.0030    0.0023    0.0035   -0.0007   -0.0008
   122 N5     3d2-       0.0016   -0.0003    0.0067   -0.0011   -0.0033   -0.0011   -0.0025   -0.0132    0.0044   -0.0013
   123 N5     3d1-      -0.0017   -0.0001   -0.0069    0.0017    0.0040    0.0003    0.0026    0.0142   -0.0031    0.0009
   124 N5     3d0       -0.0028    0.0011   -0.0014    0.0007    0.0042    0.0073    0.0004    0.0030   -0.0016   -0.0009
   125 N5     3d1+      -0.0003    0.0003   -0.0156   -0.0017   -0.0044   -0.0037   -0.0006   -0.0040    0.0001    0.0016
   126 N5     3d2+      -0.0053    0.0019   -0.0063    0.0008    0.0057    0.0109    0.0004    0.0039   -0.0024   -0.0008
   127 O7     1s         0.0011    0.0028   -0.0005   -0.0043    0.0022    0.0005    0.0139   -0.0012    0.0141    0.0215
   128 O7     2s        -0.0719   -0.2995    0.0002   -0.2070    0.0586    0.0286    0.3545   -0.0347    0.2337    0.3476
   129 O7     3s        -0.0013   -0.0082   -0.0024   -0.0197    0.0099   -0.0004    0.0440   -0.0042    0.0394    0.0610
   130 O7     4s         0.0001    0.0000   -0.0008   -0.0033    0.0025   -0.0009    0.0087   -0.0010    0.0077    0.0129
   131 O7     2px       -0.0085   -0.0016   -0.0030   -0.0011    0.0245   -0.0322   -0.1841    0.0229   -0.1088   -0.2355
   132 O7     3px       -0.0023    0.0021   -0.0036   -0.0078    0.0025    0.0029    0.0243   -0.0035    0.0097    0.0218
   133 O7     4px       -0.0004    0.0008   -0.0004   -0.0008   -0.0003    0.0012    0.0024   -0.0003    0.0004    0.0015
   134 O7     2py        0.0099    0.0383   -0.0021   -0.0339    0.0249    0.0012    0.1563   -0.0084    0.2624    0.4036
   135 O7     3py       -0.0050   -0.0013   -0.0031    0.0132   -0.0002   -0.0040   -0.0253   -0.0002   -0.0308   -0.0423
   136 O7     4py       -0.0012   -0.0015   -0.0008   -0.0007    0.0004    0.0007   -0.0031    0.0001   -0.0037   -0.0063
   137 O7     2pz        0.0005    0.0024    0.0007    0.0020    0.0001   -0.0004    0.0012   -0.0013    0.0031    0.0115
   138 O7     3pz        0.0007    0.0026    0.0017    0.0007   -0.0010    0.0003    0.0007   -0.0014   -0.0016   -0.0013
   139 O7     4pz        0.0003    0.0006    0.0005    0.0000   -0.0001    0.0000    0.0004   -0.0004    0.0000   -0.0001
   140 O7     3d2-       0.0015    0.0037   -0.0001    0.0007   -0.0017    0.0022    0.0121   -0.0009    0.0106    0.0189
   141 O7     3d1-      -0.0001   -0.0006    0.0000   -0.0003   -0.0002    0.0003    0.0003    0.0000   -0.0008   -0.0013
   142 O7     3d0        0.0010    0.0042   -0.0001    0.0014    0.0001   -0.0002    0.0052   -0.0008    0.0062    0.0118
   143 O7     3d1+       0.0000    0.0001    0.0000    0.0003    0.0000   -0.0001    0.0003   -0.0001    0.0003    0.0006
   144 O7     3d2+       0.0006    0.0046   -0.0002   -0.0026    0.0045   -0.0031   -0.0020    0.0007    0.0103    0.0112
   145 O8     1s        -0.0236    0.0022    0.0037    0.0007    0.0032   -0.0002    0.0012    0.0123    0.0017    0.0010
   146 O8     2s         0.6657   -0.1450   -0.3317    0.1043    0.1530    0.0025    0.0042    0.3494    0.0321    0.0405
   147 O8     3s        -0.0290   -0.0042   -0.0111    0.0059    0.0145   -0.0016    0.0011    0.0461    0.0053    0.0040
   148 O8     4s        -0.0127   -0.0005   -0.0004    0.0003    0.0017   -0.0008   -0.0007    0.0096    0.0011    0.0010
   149 O8     2px       -0.0278   -0.0026    0.0250    0.0090    0.0026   -0.0228   -0.0142    0.0214    0.0656   -0.0110
   150 O8     3px        0.0120   -0.0036   -0.0039   -0.0015   -0.0059   -0.0063    0.0015   -0.0069   -0.0038   -0.0025
   151 O8     4px       -0.0001   -0.0011   -0.0021   -0.0001    0.0007   -0.0005    0.0005   -0.0005   -0.0013   -0.0005
   152 O8     2py        0.1262   -0.0282   -0.0270    0.0060   -0.0153   -0.0242   -0.0300   -0.1806    0.0511   -0.0525
   153 O8     3py       -0.0378    0.0012    0.0009    0.0050    0.0056    0.0001    0.0018    0.0259    0.0003    0.0029
   154 O8     4py       -0.0009   -0.0011    0.0009   -0.0000   -0.0010    0.0010   -0.0016    0.0034   -0.0005    0.0010
   155 O8     2pz        0.0583    0.0014   -0.0275   -0.0194   -0.0204    0.0265    0.0088   -0.0555   -0.0832    0.0170
   156 O8     3pz       -0.0143    0.0059    0.0056   -0.0008    0.0062    0.0103   -0.0026    0.0114    0.0048    0.0015
   157 O8     4pz        0.0003    0.0018    0.0028   -0.0009   -0.0005    0.0013   -0.0010    0.0015    0.0018   -0.0002
   158 O8     3d2-      -0.0079    0.0009    0.0040    0.0003    0.0002   -0.0015    0.0001    0.0027    0.0029   -0.0004
   159 O8     3d1-       0.0121   -0.0014   -0.0050   -0.0007   -0.0010    0.0017   -0.0003   -0.0052   -0.0040    0.0004
   160 O8     3d0       -0.0056    0.0014    0.0006   -0.0015   -0.0008    0.0021    0.0010    0.0035   -0.0046    0.0022
[...]
AIVX     1  Mu1.0001  In1.025 Se1.047               0.13648565      0.00005214     -0.00002897     -0.00000000
AIVX     1  Mu1.0001  In1.026 Se1.047               0.26079089      0.00083998     -0.00165962     -0.00000139
AIVX     1  Mu1.0001  In1.027 Se1.047               0.24154888      0.00025921     -0.00061075     -0.00000016
AIVX     1  Mu1.0001  In1.028 Se1.047               0.04722735     -0.00015525      0.00016833     -0.00000003
AIVX     1  Mu1.0001  In1.029 Se1.047               0.08545040      0.00014365     -0.00018549     -0.00000003
AIVX     1  Mu1.0001  In1.018 Se1.048               0.28409497      0.00052127     -0.00078810     -0.00000041
AIVX     1  Mu1.0001  In1.021 Se1.048               0.23680288      0.00013177     -0.00019213     -0.00000003
AIVX     1  Mu1.0001  In1.022 Se1.048               0.13846430      0.00050312     -0.00068913     -0.00000035
AIVX     1  Mu1.0001  In1.024 Se1.048               0.21358710     -0.00002384      0.00025261     -0.00000001
AIVX     1  Mu1.0001  In1.025 Se1.048               0.14963407     -0.00005789     -0.00006628      0.00000000
AIVX     1  Mu1.0001  In1.026 Se1.048               0.27393931     -0.00146938      0.00249261     -0.00000366
AIVX     1  Mu1.0001  In1.027 Se1.048               0.25469730      0.00121993     -0.00178421     -0.00000218
AIVX     1  Mu1.0001  In1.028 Se1.048               0.06037578     -0.00059839      0.00152718     -0.00000091
AIVX     1  Mu1.0001  In1.029 Se1.048               0.09859882     -0.00048805      0.00121994     -0.00000060
AIVX     1  Mu1.0001  In1.021 Se1.049               0.25904271      0.00120410     -0.00226119     -0.00000272
AIVX     1  Mu1.0001  In1.022 Se1.049               0.16070414     -0.00047476      0.00027009     -0.00000013
AIVX     1  Mu1.0001  In1.024 Se1.049               0.23582694     -0.00060903      0.00058027     -0.00000035
AIVX     1  Mu1.0001  In1.025 Se1.049               0.17187390      0.00015275     -0.00009430     -0.00000001
AIVX     1  Mu1.0001  In1.026 Se1.049               0.29617915     -0.00048775      0.00049156     -0.00000024
AIVX     1  Mu1.0001  In1.027 Se1.049               0.27693714     -0.00260633      0.00385792     -0.00001006
AIVX     1  Mu1.0001  In1.028 Se1.049               0.08261561     -0.00066792      0.00165224     -0.00000110
AIVX     1  Mu1.0001  In1.029 Se1.049               0.12083865     -0.00033646      0.00078288     -0.00000026
AIVX     1  Mu1.0001  In1.018 Se1.050               0.29303133     -0.00044820      0.00103314     -0.00000046
AIVX     1  Mu1.0001  In1.021 Se1.050               0.24573924     -0.00009969     -0.00008401      0.00000001
AIVX     1  Mu1.0001  In1.022 Se1.050               0.14740066     -0.00028124      0.00055453     -0.00000016
AIVX     1  Mu1.0001  In1.024 Se1.050               0.22252346      0.00028561     -0.00035203     -0.00000010
AIVX     1  Mu1.0001  In1.025 Se1.050               0.15857043     -0.00007220      0.00013651     -0.00000001
AIVX     1  Mu1.0001  In1.026 Se1.050               0.28287567      0.00011421     -0.00021905     -0.00000003
AIVX     1  Mu1.0001  In1.027 Se1.050               0.26363366      0.00093293     -0.00134261     -0.00000125
AIVX     1  Mu1.0001  In1.028 Se1.050               0.06931214      0.00023746     -0.00012725     -0.00000003
AIVX     1  Mu1.0001  In1.029 Se1.050               0.10753518      0.00032105     -0.00047786     -0.00000015
AIVX     1  Mu1.0001  In1.021 Se1.051               0.28136157     -0.00045285      0.00134827     -0.00000061
AIVX     1  Mu1.0001  In1.022 Se1.051               0.18302300      0.00055686     -0.00078414     -0.00000044
AIVX     1  Mu1.0001  In1.024 Se1.051               0.25814580     -0.00148278      0.00237805     -0.00000353
AIVX     1  Mu1.0001  In1.025 Se1.051               0.19419276     -0.00010184      0.00022900     -0.00000002
AIVX     1  Mu1.0001  In1.027 Se1.051               0.29925599     -0.00005075      0.00006861     -0.00000000
AIVX     1  Mu1.0001  In1.028 Se1.051               0.10493447     -0.00013718      0.00008083     -0.00000001
AIVX     1  Mu1.0001  In1.029 Se1.051               0.14315751     -0.00052891      0.00037309     -0.00000020
AIVX     1  Mu1.0001  In1.022 Se1.052               0.20838302     -0.00055547      0.00053352     -0.00000030
AIVX     1  Mu1.0001  In1.024 Se1.052               0.28350582      0.00054037     -0.00136755     -0.00000074
AIVX     1  Mu1.0001  In1.025 Se1.052               0.21955279      0.00003539     -0.00002034     -0.00000000
AIVX     1  Mu1.0001  In1.028 Se1.052               0.13029450     -0.00025775      0.00044964     -0.00000012
AIVX     1  Mu1.0001  In1.029 Se1.052               0.16851754      0.00021946     -0.00055758     -0.00000012
AIVX     1  Mu1.0001  In1.022 Se1.053               0.23351777      0.00023571     -0.00042601     -0.00000010
AIVX     1  Mu1.0001  In1.025 Se1.053               0.24468753      0.00023584     -0.00035796     -0.00000008
AIVX     1  Mu1.0001  In1.028 Se1.053               0.15542924      0.00007664     -0.00014968     -0.00000001
AIVX     1  Mu1.0001  In1.029 Se1.053               0.19365228     -0.00018340      0.00001492     -0.00000000
AIVX     1  Mu1.0001  In1.022 Se1.054               0.22566322     -0.00049717      0.00087598     -0.00000044
AIVX     1  Mu1.0001  In1.025 Se1.054               0.23683299      0.00013844     -0.00011587     -0.00000002
AIVX     1  Mu1.0001  In1.028 Se1.054               0.14757470     -0.00081595      0.00174465     -0.00000142
AIVX     1  Mu1.0001  In1.029 Se1.054               0.18579774     -0.00026543      0.00036486     -0.00000010
AIVX     1  Mu1.0001  In1.022 Se1.055               0.26422110      0.00037611     -0.00094081     -0.00000035
AIVX     1  Mu1.0001  In1.025 Se1.055               0.27539087      0.00014078      0.00003631      0.00000001
AIVX     1  Mu1.0001  In1.028 Se1.055               0.18613257      0.00030488     -0.00097623     -0.00000030
AIVX     1  Mu1.0001  In1.029 Se1.055               0.22435562     -0.00032721      0.00066501     -0.00000022
AIVX     1  Mu1.0001  In1.022 Se1.056               0.28417307      0.00161371     -0.00257149     -0.00000415
AIVX     1  Mu1.0001  In1.025 Se1.056               0.29534284     -0.00012572      0.00037506     -0.00000005
AIVX     1  Mu1.0001  In1.028 Se1.056               0.20608455     -0.00102305      0.00240426     -0.00000246
AIVX     1  Mu1.0001  In1.029 Se1.056               0.24430759     -0.00160577      0.00282605     -0.00000454
AIVX     1  Mu1.0001  In1.022 Se1.057               0.26934512      0.00012914      0.00011562      0.00000001
AIVX     1  Mu1.0001  In1.025 Se1.057               0.28051489     -0.00005205      0.00013744     -0.00000001
AIVX     1  Mu1.0001  In1.028 Se1.057               0.19125660     -0.00033304      0.00102296     -0.00000034
AIVX     1  Mu1.0001  In1.029 Se1.057               0.22947964     -0.00016049      0.00013298     -0.00000002
AIVX     1  Mu1.0001  In1.022 Se1.058               0.24987511      0.00104846     -0.00150806     -0.00000158
AIVX     1  Mu1.0001  In1.025 Se1.058               0.26104488     -0.00033644      0.00063382     -0.00000021
AIVX     1  Mu1.0001  In1.028 Se1.058               0.17178659     -0.00015045      0.00013366     -0.00000002
AIVX     1  Mu1.0001  In1.029 Se1.058               0.21000963     -0.00068124      0.00149625     -0.00000102
AIVX     1  Mu1.0001  In1.022 Se1.059               0.29773357      0.00116420     -0.00160627     -0.00000187
AIVX     1  Mu1.0001  In1.028 Se1.059               0.21964505     -0.00045577      0.00062174     -0.00000028
AIVX     1  Mu1.0001  In1.029 Se1.059               0.25786809     -0.00101646      0.00163196     -0.00000166
AIVX     1  Mu1.0001  In1.028 Se1.060               0.27254104     -0.00020572      0.00042074     -0.00000009
AIVX     1  Mu1.0001  In1.028 Se1.061               0.24030669      0.00002414     -0.00015563     -0.00000000
AIVX     1  Mu1.0001  In1.029 Se1.061               0.27852974     -0.00006767      0.00023650     -0.00000002
AIVX     1  Mu1.0001  In1.028 Se1.062               0.23113480     -0.00022628      0.00072406     -0.00000016
AIVX     1  Mu1.0001  In1.029 Se1.062               0.26935784     -0.00048732      0.00078204     -0.00000038
AIVX     1  Mu1.0001  In1.028 Se1.209               0.28982666     -0.00072789      0.00155339     -0.00000113
--
 
   (Skipping property calculation,
    use PROP keyword to activate)
--
 
  Total CASPT2 energies:
::    CASPT2 Root  1     Total energy:   -455.21240774
::    CASPT2 Root  2     Total energy:   -455.01910018
::    CASPT2 Root  3     Total energy:   -454.99950788
::    CASPT2 Root  4     Total energy:   -454.94469388
::    CASPT2 Root  5     Total energy:   -454.92203229
::    CASPT2 Root  6     Total energy:   -454.94383806
::    CASPT2 Root  7     Total energy:   -454.91094515
 
++ Multi-State CASPT2 section:
********************************************************************************
  MULTI-STATE CASPT2 SECTION
--------------------------------------------------------------------------------
 
  Output diagonal energies have been shifted. Add   -455.000000000000     
 
  Effective Hamiltonian matrix (Symmetric):
 
                1               2               3               4               5
   1        -0.21240774
   2        -0.00044146     -0.01910018
   3        -0.00055531      0.00003277      0.00049212
   4         0.00457610      0.00038294      0.00094736      0.05530612
   5         0.00682875      0.00036507     -0.00080912     -0.00699029      0.07796771
   6         0.01342956      0.00112810      0.00030933      0.00019937     -0.00584757
   7         0.00981291      0.00009009     -0.00134699     -0.00102473     -0.00344513
 
                6               7
   6         0.05616194
   7        -0.00965207      0.08905485
 
       Total MS-CASPT2 energies:
::    MS-CASPT2 Root  1     Total energy:   -455.21369392
::    MS-CASPT2 Root  2     Total energy:   -455.01911945
::    MS-CASPT2 Root  3     Total energy:   -454.99955065
::    MS-CASPT2 Root  4     Total energy:   -454.94813999
::    MS-CASPT2 Root  5     Total energy:   -454.94528271
::    MS-CASPT2 Root  6     Total energy:   -454.91877965
::    MS-CASPT2 Root  7     Total energy:   -454.90795879
 
       Eigenvectors:
            0.99760487     -0.00371973     -0.00200312      0.06191921      0.02302347
            0.00265898      0.99985192      0.00159284      0.01584227      0.00558207
            0.00242770     -0.00162421      0.99970702      0.00394562     -0.01258394
           -0.01773095     -0.00534074     -0.01556763      0.60314985     -0.75526751
           -0.02521498     -0.00486885      0.00978665      0.32817323     -0.05290263
           -0.05142091     -0.01494008     -0.00133655      0.69286890      0.63664022
           -0.03431141     -0.00205423      0.01547278      0.21058190      0.14402058
 
            0.00897015      0.01794844
           -0.00027074     -0.00207650
           -0.01445252     -0.01394782
           -0.25532959     -0.00166633
            0.93381120     -0.12940252
           -0.24098852     -0.23168371
            0.06662258      0.96387440
 
--
 
  THE ORIGINAL CI ARRAYS ARE NOW MIXED AS LINEAR
  COMBINATIONS, GIVEN BY THE EIGENVECTORS.
  A NEW JOBIPH FILE NAMED 'JOBMIX' IS PREPARED.
********************************************************************************
 
++ Mixed CI coefficients:
  The CI coefficients for the MIXED state nr.   1
--------------------------------------------------------------------------------
 CI COEFFICIENTS LARGER THAN  0.50D-01
  Occupation of active orbitals, and spin coupling
  of open shells. (u,d: Spin up or down).
  SGUGA info is (Midvert:IsyUp:UpperWalk/LowerWalk)
        Conf  SGUGA info        Occupation    Coefficient         Weight
           1  ( 1:1:   1/   1)   22222200        0.970859       0.942567
           6  ( 1:1:   6/   1)   22220220       -0.082423       0.006794
           7  ( 1:1:   7/   1)   22222u0d        0.063934       0.004088
          15  ( 1:1:  15/   1)   22222002       -0.090811       0.008247
          61  ( 2:1:   1/   3)   2u2222d0        0.102188       0.010442
          84  ( 2:1:   4/   4)   u222220d        0.079673       0.006348
          93  ( 2:1:  13/   4)   u2222d02       -0.050123       0.002512
         171  ( 3:1:   1/   8)   20222220       -0.079484       0.006318
         195  ( 3:1:   5/  10)   02222202       -0.093691       0.008778
 
  The CI coefficients for the MIXED state nr.   2
--------------------------------------------------------------------------------
 CI COEFFICIENTS LARGER THAN  0.50D-01
  Occupation of active orbitals, and spin coupling
  of open shells. (u,d: Spin up or down).
  SGUGA info is (Midvert:IsyUp:UpperWalk/LowerWalk)
        Conf  SGUGA info        Occupation    Coefficient         Weight
           7  ( 1:1:   7/   1)   22222u0d       -0.066135       0.004374
          24  ( 2:1:   4/   1)   222u220d        0.960503       0.922567
          32  ( 2:1:  12/   1)   222u022d       -0.079156       0.006266
          33  ( 2:1:  13/   1)   222u2d02       -0.099730       0.009946
         135  ( 3:1:   5/   4)   u22d2202       -0.187689       0.035227
         207  ( 4:1:   1/   2)   2u2u22dd       -0.083095       0.006905
         261  ( 5:1:   1/   7)   202u222d        0.080208       0.006433
 
  The CI coefficients for the MIXED state nr.   3
--------------------------------------------------------------------------------
 CI COEFFICIENTS LARGER THAN  0.50D-01
  Occupation of active orbitals, and spin coupling
  of open shells. (u,d: Spin up or down).
  SGUGA info is (Midvert:IsyUp:UpperWalk/LowerWalk)
        Conf  SGUGA info        Occupation    Coefficient         Weight
           2  ( 1:1:   2/   1)   22222ud0       -0.104818       0.010987
          21  ( 2:1:   1/   1)   222u22d0        0.096062       0.009228
          41  ( 2:1:   1/   2)   22u222d0        0.941129       0.885724
          43  ( 2:1:   3/   2)   22u2d220       -0.164286       0.026990
          45  ( 2:1:   5/   2)   22u22dud        0.064017       0.004098
          47  ( 2:1:   7/   2)   22u22udd       -0.115296       0.013293
          55  ( 2:1:  15/   2)   22u220d2        0.077301       0.005975
         151  ( 3:1:   1/   6)   2ud22220       -0.132239       0.017487
         225  ( 4:1:   1/   5)   u2u222dd        0.070169       0.004924
         228  ( 4:1:   4/   5)   u2u22dd2       -0.057920       0.003355
         302  ( 5:1:   2/  17)   02u222d2       -0.099982       0.009996
 
  The CI coefficients for the MIXED state nr.   4
--------------------------------------------------------------------------------
 CI COEFFICIENTS LARGER THAN  0.50D-01
  Occupation of active orbitals, and spin coupling
  of open shells. (u,d: Spin up or down).
  SGUGA info is (Midvert:IsyUp:UpperWalk/LowerWalk)
        Conf  SGUGA info        Occupation    Coefficient         Weight
           1  ( 1:1:   1/   1)   22222200       -0.058710       0.003447
           2  ( 1:1:   2/   1)   22222ud0        0.169688       0.028794
           3  ( 1:1:   3/   1)   2222u2d0        0.408281       0.166693
           7  ( 1:1:   7/   1)   22222u0d        0.813922       0.662469
          14  ( 1:1:  14/   1)   22220u2d        0.067864       0.004606
          15  ( 1:1:  15/   1)   22222002        0.151719       0.023019
          21  ( 2:1:   1/   1)   222u22d0       -0.059384       0.003526
          24  ( 2:1:   4/   1)   222u220d        0.059770       0.003572
          61  ( 2:1:   1/   3)   2u2222d0       -0.075109       0.005641
          63  ( 2:1:   3/   3)   2u22d220       -0.092506       0.008557
          67  ( 2:1:   7/   3)   2u222udd       -0.078636       0.006184
          70  ( 2:1:  10/   3)   2u22du2d        0.052423       0.002748
          93  ( 2:1:  13/   4)   u2222d02       -0.210294       0.044224
         173  ( 3:1:   3/   8)   20222u2d        0.070033       0.004905
         195  ( 3:1:   5/  10)   02222202       -0.098627       0.009727
 
  The CI coefficients for the MIXED state nr.   5
--------------------------------------------------------------------------------
 CI COEFFICIENTS LARGER THAN  0.50D-01
  Occupation of active orbitals, and spin coupling
  of open shells. (u,d: Spin up or down).
  SGUGA info is (Midvert:IsyUp:UpperWalk/LowerWalk)
        Conf  SGUGA info        Occupation    Coefficient         Weight
           2  ( 1:1:   2/   1)   22222ud0       -0.267716       0.071672
           3  ( 1:1:   3/   1)   2222u2d0       -0.792043       0.627331
           7  ( 1:1:   7/   1)   22222u0d        0.437124       0.191077
          12  ( 1:1:  12/   1)   2222uudd        0.079851       0.006376
          15  ( 1:1:  15/   1)   22222002        0.083426       0.006960
          18  ( 1:1:  18/   1)   2222u0d2       -0.071126       0.005059
          63  ( 2:1:   3/   3)   2u22d220        0.196071       0.038444
          88  ( 2:1:   8/   4)   u222u2dd       -0.055632       0.003095
          93  ( 2:1:  13/   4)   u2222d02       -0.112709       0.012703
         171  ( 3:1:   1/   8)   20222220        0.054420       0.002962
         195  ( 3:1:   5/  10)   02222202       -0.053962       0.002912
         197  ( 3:1:   7/  10)   0222u2d2        0.079521       0.006324
 
  The CI coefficients for the MIXED state nr.   6
--------------------------------------------------------------------------------
 CI COEFFICIENTS LARGER THAN  0.50D-01
  Occupation of active orbitals, and spin coupling
  of open shells. (u,d: Spin up or down).
  SGUGA info is (Midvert:IsyUp:UpperWalk/LowerWalk)
        Conf  SGUGA info        Occupation    Coefficient         Weight
           2  ( 1:1:   2/   1)   22222ud0       -0.881475       0.776998
           3  ( 1:1:   3/   1)   2222u2d0        0.315733       0.099687
          21  ( 2:1:   1/   1)   222u22d0        0.127756       0.016322
          27  ( 2:1:   7/   1)   222u2udd        0.051688       0.002672
          41  ( 2:1:   1/   2)   22u222d0       -0.096996       0.009408
          63  ( 2:1:   3/   3)   2u22d220       -0.066040       0.004361
          85  ( 2:1:   5/   4)   u2222dud        0.139110       0.019351
          87  ( 2:1:   7/   4)   u2222udd       -0.193249       0.037345
         196  ( 3:1:   6/  10)   02222ud2        0.129390       0.016742
 
  The CI coefficients for the MIXED state nr.   7
--------------------------------------------------------------------------------
 CI COEFFICIENTS LARGER THAN  0.50D-01
  Occupation of active orbitals, and spin coupling
  of open shells. (u,d: Spin up or down).
  SGUGA info is (Midvert:IsyUp:UpperWalk/LowerWalk)
        Conf  SGUGA info        Occupation    Coefficient         Weight
           2  ( 1:1:   2/   1)   22222ud0        0.140763       0.019814
           7  ( 1:1:   7/   1)   22222u0d        0.061282       0.003755
          21  ( 2:1:   1/   1)   222u22d0        0.896122       0.803035
          25  ( 2:1:   5/   1)   222u2dud       -0.214654       0.046076
          27  ( 2:1:   7/   1)   222u2udd        0.303865       0.092334
          41  ( 2:1:   1/   2)   22u222d0       -0.076374       0.005833
         216  ( 4:1:   4/   3)   u22u2dd2        0.074440       0.005541
         270  ( 5:1:   2/   9)   022u22d2       -0.084300       0.007107
 
--
 
--- Stop Module: caspt2 at Wed Nov 13 20:56:45 2024 /rc=_RC_ALL_IS_WELL_ ---
*** files: xmldump
    saved to directory /home/pcaah4
--- Module caspt2 spent 6 minutes 57 seconds ---

.##################.
.# Happy landing! #.
.##################.

    Timing: Wall=667.50 User=582.12 System=76.22
******************************************************
*** WorkDir at /srv/COMMUNAL_SCRATCH/10402 cleaned ***
******************************************************
