   This run of MOLCAS is using the pymolcas driver

                             OPE
                             OPE          NMOL  CASOP  ENMOLC A   SO
                 OPE        NMOLC        AS  OP EN  MO LC     AS  OP
                OPENM       OL CA        SO  PE NM  OL CA     SOP EN
                OP EN      MO   LC       AS  OP ENMOL  CASO   PENMOL
                OP  EN     MO   LC       AS  OP EN     MO     LC ASO
               OP   E  NMOL  C  AS       OP  EN MO     LC     AS  OP
               OP  E   NMO   LC AS        OPEN  MO     LCASOP EN   M
               O  PEN   MO  LCA  SO
            OPE   NMO   L   CAS    OP
        OPENMOL  CASOP     ENMOL   CASOPE
     OPENMOLCA   SOPENMOLCASOPEN   MOLCASOPE
    OPENMOLCAS   OP           EN   MOL    CAS
    OPENMOLCAS       OP  ENM        O     LCA
    OPENMOLCAS    OPEN  MOLCASO     P  E  NMO
    OPENMOLCAS     OP               E  N  MOL
    OPENMOLCA   SO           PENM   O  L  CAS    OPEN    MO    LCAS
    OPENMOLCA   SOP           ENM   O  L  CAS   OP  EN  MOLC  AS   O
    OPENMOLCA   SOPE           NM      O  LCA   S      OP  EN MO
    OPENMOLC                AS         O  PEN   M      OL  CA  SOPE
    OPENMO        LCASOPE  NMOL        C  ASO   P      ENMOLC     AS
    OPE     NMO      LCA  SO     P     E   NM   OL  CA SO  PE N   MO
          OPENMOLCA            SOPE   NMO        LCAS  O    P  ENMO
     OPENMOLCASOPENMOLCASOPENMOLCASOPENMOLCA
        OPENMOLCASOPENMOLCASOPENMOLCASOPE
            OPENMOLCASOPENMOLCASOPENM
               OPENMOLCASOPENMOLCA        version: v23.06
                   OPENMOLCASO
                       OPE                tag:

 OpenMolcas is free software; you can redistribute it and/or modify it
 under the terms of the GNU Lesser General Public License version 2.1.
 OpenMolcas is distributed in the hope that it will be useful, but it
 is provided "as is" and without any express or implied warranties.
 For more details see the full text of the license in the file
 LICENSE or in <http://www.gnu.org/licenses/>.

                 Copyright (C) The OpenMolcas Authors
           For the author list and the recommended citation,
                   consult the file CONTRIBUTORS.md

           *************************************************
           * pymolcas version py2.24                       *
           *   build 4567b286dd94b1984b333a4ddf893180      *
           *   (after the EMIL interpreter by V. Veryazov) *
           *************************************************

configuration info
------------------
Host name: loginchem01.nottingham.ac.uk (Linux)
C Compiler ID: Intel
C flags: -std=gnu99 -gcc-sys -qopenmp
Fortran Compiler ID: Intel
Fortran flags: -fpp -i8 -heap-arrays -qopenmp
Definitions: _MOLCAS_;_I8_;_LINUX_
Parallel: OFF (GA=OFF)


   ------------------------------------------------------------------------------------------------------------
  |
  |              Project: orca_geometry_optimisation_240_105_BP86_def2-SVP_def2J_scf_cas1_ras12i11_cas2_ras12i8
  |       Submitted from: /home/pcaah4
  |         Scratch area: /srv/COMMUNAL_SCRATCH/10405
  |      Save outputs to: /home/pcaah4
  |               Molcas: /software/chemistry/openmolcas/openmolcas-23.06-openmp
  |
  | Scratch area is empty
  |
  |       MOLCAS_DRIVER = /software/chemistry/openmolcas/openmolcas-23.06-openmp/sbin/pymolcas
  | MOLCAS_KEEP_WORKDIR = NO
  |       MOLCAS_NPROCS = 1
  |       MOLCAS_SOURCE = /software/chemistry/openmolcas/openmolcas-23.06-openmp
  |    MOLCAS_STRUCTURE = 0
  |
   ------------------------------------------------------------------------------------------------------------

++ ---------   Input file   ---------

&SEWARD
TITLE
orca_geometry_optimisation_240_105_BP86_def2-SVP_def2J_scf_cas1_ras12i11
MULTIPOLES
2
SDIPOLE
ANGMOM
0 0 0
BASIS SET
C.ANO-S...4S3P1D.
C1           -0.019303   -0.038221   -0.014904 /Angstrom
C3            2.095542    1.250028   -0.030474 /Angstrom
C4            3.020781    1.269112   -1.258929 /Angstrom
C6            3.298757    2.150738   -3.555647 /Angstrom
C19          -0.630444   -1.433006    0.051855 /Angstrom
END OF BASIS
BASIS SET
N.ANO-S...4S3P1D.
N2            1.357060    0.000081    0.020843 /Angstrom
N5            2.592002    2.062292   -2.291667 /Angstrom
END OF BASIS
BASIS SET
O.ANO-S...4S3P1D.
O7           -0.708894    0.979215   -0.088675 /Angstrom
O8            4.036202    0.573173   -1.300944 /Angstrom
END OF BASIS
BASIS SET
H.ANO-S...2S1P.
H9           -1.268580   -1.497688    0.955808 /Angstrom
H10          -1.296641   -1.571302   -0.822561 /Angstrom
H11           0.113086   -2.253748    0.075907 /Angstrom
H12           1.898150   -0.866210    0.036254 /Angstrom
H13           1.335937    2.056876   -0.034848 /Angstrom
H14           2.738908    1.365804    0.868330 /Angstrom
H15           1.710752    2.565991   -2.178615 /Angstrom
H16           2.685141    1.765339   -4.398225 /Angstrom
H17           3.596112    3.195727   -3.786216 /Angstrom
H18           4.209409    1.528597   -3.464095 /Angstrom
END OF BASIS
END OF INPUT

&RASSCF
TITLE
orca_geometry_optimisation_240_105_BP86_def2-SVP_def2J_scf_cas1_ras12i11
LUMORB
SPIN
1
SYMMETRY
1
NACTEL
12  0  0
INACTIVE
29
DELETED  ! delete Rydberg orbitals from an initial CAS(12,11) if done
3
FROZEN
0
RAS2
8
ITERATIONS
64 25
CIROOT
7 7
1 2 3 4 5 6 7
1 1 1 1 1 1 1
LEVSHFT
0.3
CIMX
20
FILEorb = /home/pcaah4/outputs/cas1_ras12i11_rasorb_files/orca_geometry_optimisation_240_105_BP86_def2-SVP_def2J_scf_cas1_ras12i11.RasOrb
ALTEr
3
 1 38 210
 1 39 211
 1 40 212
END OF INPUT

&RASSI
NROF JOBIPH
    1 7
    1 2 3 5 4 6 7
TOFILE
TRDI
TDMN
1.0D-6
END OF INPUT

&CASPT2
TITLE
orca_geometry_optimisation_240_105_BP86_def2-SVP_def2J_scf_cas1_ras12i11
MULTISTATE
7 1 2 3 4 5 6 7
SHIFT
0.35
MAXITER
50
END OF INPUT

-- ----------------------------------

--- Start Module: seward at Wed Nov 13 21:00:34 2024 ---
 
()()()()()()()()()()()()()()()()()()()()()()()()()()()()()()()()()()()()()()()()()()()()()()()()()()

                                              &SEWARD

                                   only a single process is used
                       available to each process: 2.0 GB of memory, 1 thread
                                            pid: 1804054
()()()()()()()()()()()()()()()()()()()()()()()()()()()()()()()()()()()()()()()()()()()()()()()()()()
 
               SEWARD will generate:
                  Multipole Moment integrals up to order  2
                  Kinetic Energy integrals
                  Nuclear Attraction integrals (point charge)
                  One-Electron Hamiltonian integrals
                  Velocity integrals
                  Orbital angular momentum around ( 0.0000  0.0000  0.0000 )
                  Velocity quadrupole around ( 3.1606  1.4300 -1.8098 )
                  Two-Electron Repulsion integrals
 
 Title:
            orca_geometry_optimisation_240_105_BP86_def2-SVP_def2J_scf_cas1_ras12i11    
 
 
                   Integrals are discarded if absolute value <: 0.10E-13
                   Integral cutoff threshold is set to       <: 0.10E-15
 
++    Symmetry information:
      ---------------------
 
                    Character Table for C1 
 
                             E  
                    a        1  x, y, xy, Rz, z, xz, Ry, yz, Rx, I
--
 
 
++    Basis set information:
      ----------------------
 
 
      Basis set label: C.ANO-S...4S3P1D......
 
      Electronic valence basis set:
      ------------------
      Associated Effective Charge   6.000000 au
      Associated Actual Charge      6.000000 au
      Nuclear Model: Point charge
 
      Shell  nPrim  nBasis  Cartesian Spherical Contaminant
         s      10       4        X                  
         p       6       3        X                  
         d       3       1                 X         
 
 
      Basis set label: N.ANO-S...4S3P1D......
 
      Electronic valence basis set:
      ------------------
      Associated Effective Charge   7.000000 au
      Associated Actual Charge      7.000000 au
      Nuclear Model: Point charge
 
      Shell  nPrim  nBasis  Cartesian Spherical Contaminant
         s      10       4        X                  
         p       6       3        X                  
         d       3       1                 X         
 
 
      Basis set label: O.ANO-S...4S3P1D......
 
      Electronic valence basis set:
      ------------------
      Associated Effective Charge   8.000000 au
      Associated Actual Charge      8.000000 au
      Nuclear Model: Point charge
 
      Shell  nPrim  nBasis  Cartesian Spherical Contaminant
         s      10       4        X                  
         p       6       3        X                  
         d       3       1                 X         
 
 
      Basis set label: H.ANO-S...2S1P......
 
      Electronic valence basis set:
      ------------------
      Associated Effective Charge   1.000000 au
      Associated Actual Charge      1.000000 au
      Nuclear Model: Point charge
 
      Shell  nPrim  nBasis  Cartesian Spherical Contaminant
         s       7       2        X                  
         p       3       1        X                  
--
 
 
++    Molecular structure info:
      -------------------------
 
                    ************************************************ 
                    **** Cartesian Coordinates / Bohr, Angstrom **** 
                    ************************************************ 
 
     Center  Label                x              y              z                     x              y              z
        1      C1              -0.036477      -0.072227      -0.028164             -0.019303      -0.038221      -0.014904
        2      C3               3.960000       2.362211      -0.057588              2.095542       1.250028      -0.030474
        3      C4               5.708449       2.398274      -2.379031              3.020781       1.269112      -1.258929
        4      C6               6.233747       4.064306      -6.719199              3.298757       2.150738      -3.555647
        5      C19             -1.191366      -2.707989       0.097992             -0.630444      -1.433006       0.051855
        6      N2               2.564472       0.000153       0.039388              1.357060       0.000081       0.020843
        7      N5               4.898174       3.897167      -4.330623              2.592002       2.062292      -2.291667
        8      O7              -1.339616       1.850448      -0.167571             -0.708894       0.979215      -0.088675
        9      O8               7.627316       1.083140      -2.458428              4.036202       0.573173      -1.300944
       10      H9              -2.397269      -2.830220       1.806215             -1.268580      -1.497688       0.955808
       11      H10             -2.450296      -2.969330      -1.554415             -1.296641      -1.571302      -0.822561
       12      H11              0.213702      -4.258966       0.143443              0.113086      -2.253748       0.075907
       13      H12              3.586984      -1.636900       0.068510              1.898150      -0.866210       0.036254
       14      H13              2.524555       3.886932      -0.065853              1.335937       2.056876      -0.034848
       15      H14              5.175786       2.580995       1.640906              2.738908       1.365804       0.868330
       16      H15              3.232853       4.849020      -4.116986              1.710752       2.565991      -2.178615
       17      H16              5.074181       3.336007      -8.311441              2.685141       1.765339      -4.398225
       18      H17              6.795667       6.039049      -7.154911              3.596112       3.195727      -3.786216
       19      H18              7.954630       2.888630      -6.546191              4.209409       1.528597      -3.464095
 
                    ************************************************* 
                    **** InterNuclear Distances / Bohr, Angstrom **** 
                    ************************************************* 
 
     Atom centers         Bohr        Angstrom
   16 H15       7 N5      1.930016        1.021320
   13 H12       6 N2      1.930368        1.021507
   19 H18       4 C6      2.091312        1.106674
   12 H11       5 C19     2.093278        1.107715
   11 H10       5 C19     2.093717        1.107947
   14 H13       2 C3      2.094122        1.108162
   10 H9        5 C19     2.094557        1.108392
   18 H17       4 C6      2.098859        1.110668
   17 H16       4 C6      2.100059        1.111303
   15 H14       2 C3      2.100210        1.111383
    8 O7        1 C1      2.326861        1.231322
    9 O8        3 C4      2.327646        1.231737
    7 N5        3 C4      2.590741        1.370961
    6 N2        1 C1      2.602833        1.377360
    7 N5        4 C6      2.741712        1.450852
    6 N2        2 C3      2.745218        1.452707
    5 C19       1 C1      2.880438        1.524262
    3 C4        2 C3      2.906454        1.538029
   11 H10      10 H9      3.363926        1.780113
   18 H17      17 H16     3.406979        1.802896
   19 H18      17 H16     3.407820        1.803341
   12 H11      10 H9      3.409295        1.804121
   19 H18      18 H17     3.411580        1.805330
   12 H11      11 H10     3.412150        1.805632
   15 H14      14 H13     3.412847        1.806001
   14 H13       6 N2      3.888409        2.057657
   16 H15       3 C4      3.892970        2.060071
   19 H18       7 N5      3.907405        2.067710
   13 H12       1 C1      3.948039        2.089213
   15 H14       6 N2      4.005567        2.119655
   13 H12       2 C3      4.018448        2.126471
   18 H17       7 N5      4.020540        2.127578
   17 H16       7 N5      4.024026        2.129423
   16 H15       4 C6      4.048785        2.142525
   15 H14       3 C4      4.059188        2.148030
   10 H9        1 C1      4.067531        2.152445
   11 H10       1 C1      4.068067        2.152728
   12 H11       1 C1      4.197717        2.221336
   14 H13       3 C4      4.207621        2.226577
   16 H15      14 H13     4.223621        2.235044
   13 H12      12 H11     4.273158        2.261258
    8 O7        6 N2      4.325312        2.288856
    9 O8        7 N5      4.344201        2.298852
   14 H13       8 O7      4.369145        2.312052
   19 H18       9 O8      4.480707        2.371088
    9 O8        2 C3      4.566099        2.416276
    8 O7        5 C19     4.568572        2.417584
    6 N2        5 C19     4.630744        2.450484
    6 N2        3 C4      4.635119        2.452799
    7 N5        2 C3      4.636280        2.453414
    4 C6        3 C4      4.678532        2.475772
    2 C3        1 C1      4.679657        2.476368
   14 H13       1 C1      4.715427        2.495297
   19 H18       3 C4      4.759307        2.518517
   15 H14      13 H12     4.773611        2.526086
   16 H15       2 C3      4.815774        2.548398
   17 H16      16 H15     4.824225        2.552870
   18 H17      16 H15     4.831025        2.556468
   12 H11       6 N2      4.865907        2.574927
   14 H13       7 N5      4.880823        2.582820
   13 H12       5 C19     4.897012        2.591387
   15 H14       9 O8      5.005808        2.648959
   11 H10       8 O7      5.136849        2.718303
   13 H12       3 C4      5.174331        2.738138
   10 H9        8 O7      5.188749        2.745768
    8 O7        2 C3      5.325404        2.818082
    9 O8        4 C6      5.383638        2.848898
   13 H12       9 O8      5.487105        2.903651
   14 H13      13 H12     5.626680        2.977511
   19 H18      16 H15     5.660331        2.995318
--
 
 
            Nuclear Potential Energy            451.01339597 au
 
 
      Basis set specifications :
      Symmetry species         a  
      Basis functions          212
 
 
      Input file to MOLDEN was generated!
 
--- Stop Module: seward at Wed Nov 13 21:02:22 2024 /rc=_RC_ALL_IS_WELL_ ---
*** files: orca_geometry_optimisation_240_105_BP86_def2-SVP_def2J_scf_cas1_ras12i11_cas2_ras12i8.GssOrb
           orca_geometry_optimisation_240_105_BP86_def2-SVP_def2J_scf_cas1_ras12i11_cas2_ras12i8.guessorb.molden xmldump
    saved to directory /home/pcaah4
--- Module seward spent 1 minute 48 seconds ---

*** symbolic link created: INPORB -> orca_geometry_optimisation_240_105_BP86_def2-SVP_def2J_scf_cas1_ras12i11_cas2_ras12i8.GssOrb
--- Start Module: rasscf at Wed Nov 13 21:02:23 2024 ---
 
()()()()()()()()()()()()()()()()()()()()()()()()()()()()()()()()()()()()()()()()()()()()()()()()()()

                                              &RASSCF

                                   only a single process is used
                       available to each process: 2.0 GB of memory, 1 thread
                                            pid: 1804600
()()()()()()()()()()()()()()()()()()()()()()()()()()()()()()()()()()()()()()()()()()()()()()()()()()
 
 
      Header of the ONEINT file:
      --------------------------
      orca_geometry_optimisation_240_105_BP86_def2-SVP_def2J_scf_cas1_ras12i11
      Integrals generated by Gateway/Seward, Wed Nov 13 21:00:34 2024
 
 
      OrdInt status: non-squared
 
 
      Cartesian coordinates in Angstrom:
      -----------------------------------------------------
      No.  Label        X            Y            Z        
      -----------------------------------------------------
       1   C1        -0.01930300  -0.03822100  -0.01490400
       2   C3         2.09554200   1.25002800  -0.03047400
       3   C4         3.02078100   1.26911200  -1.25892900
       4   C6         3.29875700   2.15073800  -3.55564700
       5   C19       -0.63044400  -1.43300600   0.05185500
       6   N2         1.35706000   0.00008100   0.02084300
       7   N5         2.59200200   2.06229200  -2.29166700
       8   O7        -0.70889400   0.97921500  -0.08867500
       9   O8         4.03620200   0.57317300  -1.30094400
      10   H9        -1.26858000  -1.49768800   0.95580800
      11   H10       -1.29664100  -1.57130200  -0.82256100
      12   H11        0.11308600  -2.25374800   0.07590700
      13   H12        1.89815000  -0.86621000   0.03625400
      14   H13        1.33593700   2.05687600  -0.03484800
      15   H14        2.73890800   1.36580400   0.86833000
      16   H15        1.71075200   2.56599100  -2.17861500
      17   H16        2.68514100   1.76533900  -4.39822500
      18   H17        3.59611200   3.19572700  -3.78621600
      19   H18        4.20940900   1.52859700  -3.46409500
      -----------------------------------------------------
      Nuclear repulsion energy =  451.01339597
 
++    Wave function specifications:
      -----------------------------
 
      Number of closed shell electrons          58
      Number of electrons in active shells      12
      Max number of holes in RAS1 space          0
      Max nr of electrons in RAS3 space          0
      Number of inactive orbitals               29
      Number of active orbitals                  8
      Number of secondary orbitals             172
      Spin quantum number                      0.0
      State symmetry                             1
--
 
++    Orbital specifications:
      -----------------------
 
      Symmetry species                           1
                                                 a
      Frozen orbitals                            0
      Inactive orbitals                         29
      Active orbitals                            8
      RAS1 orbitals                              0
      RAS2 orbitals                              8
      RAS3 orbitals                              0
      Secondary orbitals                       172
      Deleted orbitals                           3
      Number of basis functions                212
--
 
++    CI expansion specifications:
      ----------------------------
 
      Number of CSFs                           336
      Number of determinants                   406
      Number of root(s) required                 7
      Root chosen for geometry opt.              7
      CI roots used                              1     2     3     4     5     6     7
      weights                                0.143 0.143 0.143 0.143 0.143 0.143 0.143
      highest root included in the CI            7
      max. size of the explicit Hamiltonian    200
--
 
++    Optimization specifications:
      ----------------------------
 
      RASSCF algorithm: Conventional
      Maximum number of macro iterations        64
      Maximum number of SX iterations           25
      Threshold for RASSCF energy            0.100E-07
      Threshold for max MO rotation          0.100E+00
      Threshold for max BLB element          0.100E-03
      Level shift parameter                  0.300E+00
      Make Quasi-Newton update
--
 
      The MO-coefficients are taken from the file:
      /home/pcaah4/outputs/cas1_ras12i11_rasorb_files/orca_geometry_optimisation_240_105_BP86_def2-SVP_def2J_scf_cas1_ras12i11.RasOrb                                                                                                                                 
      Title: RASSCF average (pseudo-natural) orbitals                                      
 
      Total molecular charge    0.00
 
      Molecular orbitals exchanged:
        In symmetry  1 :  38 210
        In symmetry  1 :  39 211
        In symmetry  1 :  40 212
 
 
      ************************************************************************************************************************
      *                                                                                                                      *
      *                                            Wave function control section                                             *
      *                                                                                                                      *
      ************************************************************************************************************************
 
 
                                         RASSCF iterations: Energy and convergence statistics
                                         ----------------------------------------------------
 
      Iter CI   SX   CI       RASSCF       Energy    max ROT     max BLB   max BLB  Level Ln srch  Step   QN   Walltime
          iter iter root      energy       change     param      element    value   shift minimum  type update hh:mm:ss
 Nr of preliminary CI iterations:   5
        1   1   21    0  -453.70168426    0.00E+00   0.24E-01   32 150 1  0.11E-01*  0.17   0.00    SX    NO    0:00:13
        2   3    8    0  -453.70578638   -0.41E-02*  0.13E-01   11  40 1 -0.36E-02*  0.17   0.00    SX    NO    0:00:06
        3   3    8    0  -453.70617671   -0.39E-03* -0.49E-02   24  67 1  0.16E-02*  0.17   0.00    SX    NO    0:00:06
        4   5    7    0  -453.70629431   -0.12E-03*  0.31E-02   22  97 1 -0.80E-03*  0.17   0.00    SX    NO    0:00:06
        5   3    7    0  -453.70632097   -0.27E-04* -0.31E-02   22  68 1  0.36E-03*  0.17   1.20    QN   YES    0:00:06
        6   4    6    0  -453.70633307   -0.12E-04* -0.85E-03   30 113 1  0.98E-04   0.17   1.15    QN   YES    0:00:06
        7   4    6    0  -453.70633401   -0.93E-06*  0.63E-03   20  85 1  0.71E-04   0.17   1.21    QN   YES    0:00:06
        8   5    6    0  -453.70633427   -0.26E-06*  0.16E-03   11  40 1 -0.26E-04   0.17   0.94    QN   YES    0:00:06
        9   3    5    0  -453.70633432   -0.51E-07* -0.16E-03   24  83 1 -0.12E-04   0.17   1.40    QN   YES    0:00:06
       10   3    5    0  -453.70633433   -0.16E-07*  0.47E-04   36  41 1 -0.43E-05   0.17   1.03    QN   YES    0:00:06
       11   1    4    0  -453.70633434   -0.27E-08   0.48E-04   36  41 1 -0.28E-05   0.17   1.99    QN   YES    0:00:06
      Convergence after 11 iterations
       12   1    4    0  -453.70633434   -0.12E-08   0.48E-04   18  77 1  0.14E-05   0.17   1.99    QN   YES    0:00:06
 
      ************************************************************************************************************************
                                                      Wave function printout:
                       occupation of active orbitals, and spin coupling of open shells (u,d: Spin up or down)
      ************************************************************************************************************************
 
      Note: transformation to natural orbitals
      has been made, which may change the order of the CSFs.
 
      printout of CI-coefficients larger than  0.05 for root  1
      energy=    -453.958742
      conf/sym  11111111     Coeff  Weight
             1  22222200   0.96332 0.92798
             6  22220220  -0.08515 0.00725
             7  22222u0d  -0.14098 0.01987
            15  22222002  -0.07420 0.00551
            64  2u22220d  -0.07575 0.00574
            73  2u222d02  -0.05681 0.00323
            81  u22222d0   0.09121 0.00832
           175  20222202  -0.09572 0.00916
           191  02222220  -0.07515 0.00565
 
      printout of CI-coefficients larger than  0.05 for root  2
      energy=    -453.743876
      conf/sym  11111111     Coeff  Weight
            21  222u22d0  -0.15109 0.02283
            24  222u220d   0.94979 0.90211
            32  222u022d  -0.08176 0.00669
            33  222u2d02   0.08032 0.00645
            41  22u222d0  -0.05955 0.00355
           115  22ud2202   0.06538 0.00427
           125  2u2d2202   0.17917 0.03210
           213  u22u22dd  -0.07452 0.00555
           269  022u222d   0.07521 0.00566
 
      printout of CI-coefficients larger than  0.05 for root  3
      energy=    -453.737113
      conf/sym  11111111     Coeff  Weight
             2  22222ud0   0.29764 0.08859
             3  2222u2d0   0.05216 0.00272
            24  222u220d  -0.07179 0.00515
            41  22u222d0  -0.89873 0.80771
            43  22u2d220  -0.16848 0.02839
            45  22u22dud   0.06309 0.00398
            47  22u22udd  -0.10660 0.01136
            55  22u220d2  -0.07699 0.00593
           161  u2d22220   0.11880 0.01411
           219  2uu222dd   0.06135 0.00376
           294  20u222d2   0.08871 0.00787
 
      printout of CI-coefficients larger than  0.05 for root  4
      energy=    -453.647144
      conf/sym  11111111     Coeff  Weight
             1  22222200   0.07193 0.00517
             2  22222ud0  -0.32031 0.10260
             3  2222u2d0   0.78798 0.62091
             6  22220220  -0.06168 0.00380
             7  22222u0d   0.37793 0.14283
            12  2222uudd   0.07737 0.00599
            15  22222002  -0.08209 0.00674
            18  2222u0d2   0.06432 0.00414
            21  222u22d0   0.05659 0.00320
            41  22u222d0  -0.06959 0.00484
            65  2u222dud  -0.05122 0.00262
            67  2u222udd   0.06004 0.00360
            68  2u22u2dd  -0.05812 0.00338
            73  2u222d02   0.09808 0.00962
            81  u22222d0   0.09763 0.00953
            83  u222d220  -0.18438 0.03399
           177  2022u2d2  -0.07689 0.00591
 
      printout of CI-coefficients larger than  0.05 for root  5
      energy=    -453.637157
      conf/sym  11111111     Coeff  Weight
             1  22222200   0.05990 0.00359
             2  22222ud0  -0.60919 0.37111
             3  2222u2d0  -0.50293 0.25294
             7  22222u0d   0.43967 0.19331
            15  22222002  -0.09657 0.00933
            21  222u22d0   0.07503 0.00563
            41  22u222d0  -0.24124 0.05820
            65  2u222dud  -0.09787 0.00958
            67  2u222udd   0.12233 0.01497
            73  2u222d02   0.11659 0.01359
            83  u222d220   0.14696 0.02160
           175  20222202   0.05040 0.00254
           176  20222ud2   0.07767 0.00603
 
      printout of CI-coefficients larger than  0.05 for root  6
      energy=    -453.618231
      conf/sym  11111111     Coeff  Weight
             1  22222200  -0.08264 0.00683
             2  22222ud0  -0.57075 0.32575
             3  2222u2d0   0.11090 0.01230
             7  22222u0d  -0.62982 0.39668
            14  22220u2d  -0.05932 0.00352
            15  22222002   0.11470 0.01316
            21  222u22d0  -0.31782 0.10101
            24  222u220d  -0.06609 0.00437
            25  222u2dud  -0.08043 0.00647
            27  222u2udd   0.11246 0.01265
            41  22u222d0  -0.14489 0.02099
            65  2u222dud  -0.09609 0.00923
            67  2u222udd   0.14916 0.02225
            73  2u222d02  -0.16341 0.02670
            87  u2222udd   0.05601 0.00314
           175  20222202  -0.05951 0.00354
           176  20222ud2   0.08923 0.00796
 
      printout of CI-coefficients larger than  0.05 for root  7
      energy=    -453.602078
      conf/sym  11111111     Coeff  Weight
             2  22222ud0   0.12829 0.01646
             7  22222u0d   0.31271 0.09779
            15  22222002  -0.07115 0.00506
            21  222u22d0  -0.81744 0.66821
            24  222u220d  -0.12170 0.01481
            25  222u2dud  -0.21259 0.04519
            27  222u2udd   0.29218 0.08537
            41  22u222d0   0.07222 0.00522
            73  2u222d02   0.07889 0.00622
            81  u22222d0   0.05007 0.00251
           112  22ud22ud   0.07677 0.00589
           201  22uu22dd   0.07565 0.00572
           210  2u2u2dd2  -0.07468 0.00558
           262  202u22d2   0.07262 0.00527
 
      Natural orbitals and occupation numbers for root  1
      sym 1:   1.972090   1.995292   1.999862   1.999746   1.994177   1.958144   0.033939   0.046749
 
      Natural orbitals and occupation numbers for root  2
      sym 1:   1.972143   1.999058   1.995289   1.004796   1.994819   1.999429   0.037883   0.996584
 
      Natural orbitals and occupation numbers for root  3
      sym 1:   1.999706   1.991894   1.008585   1.995463   1.997550   1.956862   0.996326   0.053614
 
      Natural orbitals and occupation numbers for root  4
      sym 1:   1.964400   1.953544   1.999204   1.999118   1.179129   1.823711   0.870479   0.210414
 
      Natural orbitals and occupation numbers for root  5
      sym 1:   1.979870   1.998006   1.935142   1.995973   1.868318   1.123241   0.918088   0.181362
 
      Natural orbitals and occupation numbers for root  6
      sym 1:   1.996831   1.953265   1.990914   1.921465   1.982944   1.089669   0.151891   0.913022
 
      Natural orbitals and occupation numbers for root  7
      sym 1:   1.998459   1.976489   1.995051   1.246594   1.986833   1.840462   0.765477   0.190634
 
      ************************************************************************************************************************
      *                                                                                                                      *
      *                                                    Final results                                                     *
      *                                                                                                                      *
      ************************************************************************************************************************
 
 
++    Wave function specifications:
      -----------------------------
 
      Number of closed shell electrons          58
      Number of electrons in active shells      12
      Max number of holes in RAS1 space          0
      Max nr of electrons in RAS3 space          0
      Number of inactive orbitals               29
      Number of active orbitals                  8
      Number of secondary orbitals             172
      Spin quantum number                      0.0
      State symmetry                             1
--
 
++    Orbital specifications:
      -----------------------
 
      Symmetry species                           1
                                                 a
      Frozen orbitals                            0
      Inactive orbitals                         29
      Active orbitals                            8
      RAS1 orbitals                              0
      RAS2 orbitals                              8
      RAS3 orbitals                              0
      Secondary orbitals                       172
      Deleted orbitals                           3
      Number of basis functions                212
--
 
++    CI expansion specifications:
      ----------------------------
 
      Number of CSFs                           336
      Number of determinants                   406
      Number of root(s) required                 7
      CI roots used                              1     2     3     4     5     6     7
      weights                                0.143 0.143 0.143 0.143 0.143 0.143 0.143
      highest root included in the CI            7
      Root passed to geometry opt.               7
--
 
++    Final optimization conditions:
      ------------------------------
 
      Average CI energy                            -453.70633434
      RASSCF energy for state  7                   -453.60207801
      Super-CI energy                                -0.00000000
      RASSCF energy change                            0.00000000
      Max change in MO coefficients               0.572E-04
      Max non-diagonal density matrix element     0.478E-04
      Maximum BLB matrix element                  0.136E-05
      (orbital pair  18,  77 in symmetry   1)
      Norm of electronic gradient            0.291E+00
--
 
 
      Final state energy(ies):
      ------------------------
 
::    RASSCF root number  1 Total energy:   -453.95874223
::    RASSCF root number  2 Total energy:   -453.74387594
::    RASSCF root number  3 Total energy:   -453.73711284
::    RASSCF root number  4 Total energy:   -453.64714397
::    RASSCF root number  5 Total energy:   -453.63715664
::    RASSCF root number  6 Total energy:   -453.61823073
::    RASSCF root number  7 Total energy:   -453.60207801
 
++    Molecular orbitals:
      -------------------
 
      Pseudonatural active orbitals and approximate occupation numbers
 
 
 
 
      Molecular orbitals for symmetry species 1: a  
 
 
      Orbital                 1         2         3         4         5         6         7         8         9        10
      Energy           -20.6127  -20.5177  -15.6378  -15.5803  -11.3454  -11.2876  -11.2852  -11.2605  -11.2598   -1.4303
      Occ. No.           2.0000    2.0000    2.0000    2.0000    2.0000    2.0000    2.0000    2.0000    2.0000    2.0000
 
     1 C1     1s        -0.0003    0.0000    0.0002   -0.0000    0.9999    0.0001   -0.0001    0.0037   -0.0000   -0.0390
     2 C1     2s        -0.0009    0.0002    0.0009   -0.0003    0.0020   -0.0008   -0.0005    0.0004   -0.0002    0.3519
     3 C1     3s         0.0005    0.0001    0.0002   -0.0003   -0.0003   -0.0007   -0.0004    0.0007   -0.0002   -0.0045
     4 C1     4s         0.0004   -0.0000    0.0000   -0.0001    0.0012   -0.0003   -0.0001    0.0002   -0.0001    0.0037
     5 C1     2px        0.0014   -0.0001    0.0017   -0.0005    0.0014    0.0001   -0.0004    0.0004   -0.0003   -0.0456
     6 C1     3px        0.0009   -0.0002    0.0012   -0.0007    0.0015   -0.0002   -0.0006   -0.0001   -0.0004    0.0291
     7 C1     4px       -0.0002   -0.0001   -0.0001   -0.0001    0.0005   -0.0003   -0.0001   -0.0002   -0.0001   -0.0139
     8 C1     2py       -0.0031   -0.0002    0.0000   -0.0001    0.0011    0.0001   -0.0003    0.0006   -0.0002    0.0962
     9 C1     3py       -0.0020   -0.0002    0.0000   -0.0002    0.0010   -0.0003   -0.0003   -0.0001   -0.0003   -0.0675
    10 C1     4py        0.0004   -0.0000    0.0000   -0.0000    0.0008   -0.0004    0.0000   -0.0003   -0.0001    0.0229
    11 C1     2pz        0.0002   -0.0003    0.0001   -0.0000   -0.0000   -0.0000    0.0001   -0.0000    0.0000   -0.0060
    12 C1     3pz        0.0001   -0.0004    0.0001   -0.0000   -0.0001   -0.0000    0.0001    0.0000    0.0001    0.0034
    13 C1     4pz       -0.0000   -0.0001    0.0000   -0.0000   -0.0000   -0.0000    0.0000    0.0000    0.0000   -0.0019
    14 C1     3d2-      -0.0001    0.0000    0.0001    0.0000   -0.0004    0.0000   -0.0000   -0.0000    0.0000   -0.0333
    15 C1     3d1-      -0.0000   -0.0000    0.0000    0.0000   -0.0000    0.0000    0.0000   -0.0000    0.0000   -0.0040
    16 C1     3d0        0.0000   -0.0000    0.0001    0.0000   -0.0004   -0.0001    0.0000   -0.0001    0.0000   -0.0278
    17 C1     3d1+       0.0000   -0.0000   -0.0000   -0.0000    0.0000    0.0000    0.0000    0.0000   -0.0000    0.0028
    18 C1     3d2+      -0.0001    0.0000   -0.0002    0.0000   -0.0000    0.0000   -0.0000    0.0000    0.0000   -0.0095
    19 C3     1s        -0.0001    0.0002    0.0002    0.0001   -0.0001    0.9919   -0.1228   -0.0001    0.0000   -0.0091
    20 C3     2s        -0.0006    0.0010    0.0012    0.0009    0.0003   -0.0018   -0.0005   -0.0008    0.0006    0.0150
    21 C3     3s        -0.0004    0.0006    0.0006    0.0007    0.0001   -0.0029   -0.0004   -0.0005    0.0003   -0.0190
    22 C3     4s        -0.0001    0.0000    0.0001    0.0001   -0.0000    0.0006   -0.0002   -0.0001    0.0000   -0.0023
    23 C3     2px       -0.0000   -0.0006   -0.0005    0.0003    0.0005   -0.0008    0.0002   -0.0002   -0.0002   -0.0193
    24 C3     3px       -0.0002   -0.0006   -0.0002    0.0003    0.0009   -0.0009   -0.0003   -0.0003   -0.0005   -0.0070
    25 C3     4px       -0.0001   -0.0001    0.0001   -0.0000    0.0003   -0.0006   -0.0001   -0.0001   -0.0002   -0.0047
    26 C3     2py        0.0001    0.0005   -0.0005   -0.0006    0.0003   -0.0001    0.0002    0.0001    0.0001   -0.0173
    27 C3     3py        0.0000    0.0005   -0.0000   -0.0004    0.0004    0.0001    0.0000   -0.0000    0.0001   -0.0035
    28 C3     4py       -0.0000    0.0000    0.0002    0.0001    0.0001   -0.0008   -0.0000   -0.0001    0.0000   -0.0042
    29 C3     2pz       -0.0000   -0.0005   -0.0005    0.0003   -0.0008   -0.0000   -0.0001    0.0000   -0.0005    0.0061
    30 C3     3pz       -0.0000   -0.0002   -0.0008    0.0003   -0.0010   -0.0002    0.0004    0.0000   -0.0004    0.0102
    31 C3     4pz        0.0000    0.0002   -0.0001    0.0001   -0.0001   -0.0002    0.0001   -0.0000    0.0000    0.0022
    32 C3     3d2-      -0.0000    0.0000   -0.0000   -0.0000    0.0000   -0.0001    0.0000   -0.0000    0.0000    0.0034
    33 C3     3d1-       0.0000   -0.0001   -0.0000   -0.0000    0.0000    0.0000    0.0001    0.0000    0.0000    0.0001
    34 C3     3d0        0.0000    0.0001    0.0001   -0.0000   -0.0001    0.0000   -0.0000    0.0000    0.0000   -0.0021
    35 C3     3d1+      -0.0000    0.0000   -0.0000   -0.0000   -0.0000    0.0001   -0.0000   -0.0000   -0.0001   -0.0006
    36 C3     3d2+       0.0000   -0.0001    0.0001    0.0000    0.0000    0.0001    0.0000    0.0000    0.0000   -0.0007
    37 C4     1s        -0.0000    0.0003    0.0000    0.0003   -0.0002    0.1228    0.9925    0.0001    0.0003    0.0005
    38 C4     2s        -0.0002    0.0011    0.0001    0.0011   -0.0016    0.0011    0.0025    0.0006   -0.0004    0.0291
    39 C4     3s        -0.0001   -0.0003    0.0001    0.0005   -0.0013    0.0003    0.0002    0.0005   -0.0004    0.0107
    40 C4     4s         0.0000   -0.0003   -0.0000    0.0001   -0.0004    0.0002    0.0014    0.0001   -0.0002    0.0037
    41 C4     2px        0.0001    0.0027   -0.0002   -0.0004    0.0001   -0.0006   -0.0002   -0.0002    0.0002   -0.0006
    42 C4     3px        0.0001    0.0017   -0.0003   -0.0004    0.0001   -0.0001   -0.0001   -0.0003   -0.0001   -0.0011
    43 C4     4px       -0.0000   -0.0004   -0.0000    0.0000   -0.0000    0.0002    0.0001   -0.0001   -0.0002   -0.0011
    44 C4     2py        0.0001   -0.0020    0.0001    0.0008   -0.0000    0.0002    0.0003   -0.0000   -0.0002   -0.0036
    45 C4     3py        0.0001   -0.0015    0.0000    0.0005   -0.0001    0.0003    0.0002    0.0000   -0.0004    0.0016
    46 C4     4py        0.0000    0.0002   -0.0000   -0.0001   -0.0001    0.0002   -0.0000    0.0000   -0.0001    0.0008
    47 C4     2pz        0.0002   -0.0003    0.0004   -0.0013   -0.0001    0.0013   -0.0008    0.0002    0.0003    0.0042
    48 C4     3pz        0.0004   -0.0001    0.0007   -0.0009   -0.0001    0.0011   -0.0004    0.0003    0.0009    0.0039
    49 C4     4pz        0.0002    0.0001    0.0001    0.0001    0.0000   -0.0000   -0.0004    0.0000    0.0005    0.0016
    50 C4     3d2-      -0.0000    0.0001    0.0000    0.0001    0.0000    0.0000   -0.0004   -0.0000   -0.0001   -0.0014
    51 C4     3d1-       0.0000   -0.0001    0.0000    0.0002    0.0000    0.0000   -0.0002   -0.0000   -0.0001   -0.0009
    52 C4     3d0       -0.0000    0.0001   -0.0000    0.0000    0.0000   -0.0000   -0.0001    0.0000    0.0000   -0.0003
    53 C4     3d1+       0.0000   -0.0000   -0.0000   -0.0001    0.0000   -0.0001    0.0001   -0.0000    0.0000   -0.0003
    54 C4     3d2+      -0.0000   -0.0000   -0.0001    0.0000   -0.0000    0.0000    0.0001    0.0000   -0.0000    0.0007
    55 C6     1s         0.0000    0.0001   -0.0001    0.0003   -0.0001   -0.0000   -0.0004    0.0000    0.9997    0.0014
    56 C6     2s         0.0003    0.0008   -0.0009    0.0013   -0.0006   -0.0001   -0.0003   -0.0001    0.0001    0.0127
    57 C6     3s         0.0003    0.0006   -0.0006    0.0003   -0.0005   -0.0001   -0.0004   -0.0000   -0.0016    0.0100
    58 C6     4s         0.0001    0.0001   -0.0002   -0.0001   -0.0002   -0.0000   -0.0002    0.0000    0.0009    0.0032
    59 C6     2px       -0.0000    0.0000    0.0001   -0.0003    0.0000   -0.0002    0.0000   -0.0001   -0.0002   -0.0029
    60 C6     3px        0.0000    0.0000    0.0001    0.0000    0.0001   -0.0002   -0.0000   -0.0000    0.0002   -0.0024
    61 C6     4px        0.0000   -0.0000    0.0000    0.0001    0.0000    0.0000   -0.0001    0.0000   -0.0003    0.0000
    62 C6     2py       -0.0000   -0.0000   -0.0003    0.0001   -0.0002   -0.0002    0.0002    0.0000    0.0001    0.0022
    63 C6     3py       -0.0000    0.0000   -0.0002    0.0002   -0.0001   -0.0002    0.0003    0.0000   -0.0000    0.0019
    64 C6     4py       -0.0000    0.0000    0.0000    0.0001    0.0000   -0.0000    0.0001   -0.0000   -0.0001   -0.0003
    65 C6     2pz        0.0002    0.0004   -0.0002    0.0004   -0.0003    0.0000   -0.0004    0.0000   -0.0001    0.0065
    66 C6     3pz        0.0001    0.0004   -0.0002   -0.0002   -0.0003   -0.0001   -0.0005    0.0000   -0.0002    0.0064
    67 C6     4pz       -0.0000   -0.0000   -0.0000   -0.0002   -0.0000   -0.0001   -0.0001    0.0000    0.0006    0.0009
    68 C6     3d2-      -0.0000   -0.0000   -0.0000    0.0001   -0.0000   -0.0000   -0.0000    0.0000    0.0000    0.0002
    69 C6     3d1-      -0.0000   -0.0000   -0.0000    0.0000    0.0000   -0.0000   -0.0001   -0.0000   -0.0000   -0.0001
    70 C6     3d0        0.0000    0.0000   -0.0000   -0.0000    0.0000    0.0000    0.0000    0.0000   -0.0000    0.0002
    71 C6     3d1+      -0.0000   -0.0000    0.0000    0.0001    0.0000   -0.0000    0.0000    0.0000    0.0001   -0.0003
    72 C6     3d2+      -0.0000    0.0000    0.0000   -0.0001    0.0000    0.0000   -0.0000   -0.0000   -0.0001   -0.0001
    73 C19    1s        -0.0002   -0.0000   -0.0000   -0.0000    0.0036    0.0002   -0.0000   -1.0000    0.0000   -0.0145
    74 C19    2s        -0.0012   -0.0003   -0.0002   -0.0001    0.0007    0.0009    0.0001   -0.0020   -0.0002   -0.0132
    75 C19    3s        -0.0007   -0.0002   -0.0001   -0.0001    0.0003    0.0005    0.0001    0.0004   -0.0002   -0.0392
    76 C19    4s        -0.0001   -0.0001   -0.0000   -0.0001    0.0002    0.0000    0.0000   -0.0012   -0.0001   -0.0037
    77 C19    2px       -0.0008   -0.0000   -0.0004    0.0000   -0.0002    0.0003    0.0001    0.0002   -0.0000   -0.0105
    78 C19    3px       -0.0005    0.0000   -0.0003    0.0001   -0.0003    0.0002    0.0001    0.0001    0.0000   -0.0075
    79 C19    4px        0.0002    0.0000    0.0000    0.0000   -0.0000   -0.0000    0.0000   -0.0002    0.0000    0.0078
    80 C19    2py        0.0001   -0.0001    0.0003   -0.0002    0.0005    0.0003   -0.0001    0.0003   -0.0001    0.0211
    81 C19    3py        0.0002   -0.0001    0.0003   -0.0002   -0.0000    0.0001   -0.0001    0.0000   -0.0001   -0.0059
    82 C19    4py        0.0002    0.0000   -0.0001   -0.0000   -0.0001   -0.0001   -0.0000   -0.0004   -0.0000    0.0056
    83 C19    2pz        0.0001   -0.0001    0.0000   -0.0001    0.0000    0.0001   -0.0000   -0.0000   -0.0001   -0.0016
    84 C19    3pz        0.0000   -0.0000    0.0000   -0.0001    0.0001    0.0001   -0.0000   -0.0000   -0.0001   -0.0001
    85 C19    4pz       -0.0000    0.0000    0.0000   -0.0000    0.0000    0.0000    0.0000    0.0000   -0.0000   -0.0003
    86 C19    3d2-      -0.0001   -0.0000   -0.0000   -0.0000    0.0000    0.0001    0.0000    0.0001   -0.0000    0.0004
    87 C19    3d1-      -0.0000    0.0000   -0.0000   -0.0000    0.0000   -0.0000    0.0000   -0.0000    0.0000   -0.0003
    88 C19    3d0        0.0001   -0.0000   -0.0001    0.0000    0.0001   -0.0000   -0.0000   -0.0001    0.0000    0.0015
    89 C19    3d1+      -0.0000    0.0000    0.0000    0.0000   -0.0000   -0.0000   -0.0000   -0.0000    0.0000   -0.0001
    90 C19    3d2+      -0.0001   -0.0000   -0.0000    0.0000   -0.0001   -0.0000    0.0000   -0.0001    0.0000   -0.0070
    91 N2     1s        -0.0001   -0.0000    0.9999   -0.0000   -0.0003    0.0001    0.0001   -0.0001    0.0000   -0.0173
    92 N2     2s        -0.0005   -0.0002    0.0001   -0.0002   -0.0003    0.0015    0.0006   -0.0006    0.0001    0.1118
    93 N2     3s        -0.0004   -0.0001   -0.0013   -0.0002   -0.0004    0.0008    0.0006   -0.0004    0.0001   -0.0458
    94 N2     4s        -0.0001   -0.0000    0.0004   -0.0000    0.0000    0.0003    0.0001   -0.0001    0.0000   -0.0108
    95 N2     2px       -0.0001   -0.0001    0.0005   -0.0004   -0.0001    0.0008    0.0001    0.0004   -0.0001   -0.0301
    96 N2     3px       -0.0001   -0.0002    0.0004   -0.0006    0.0001    0.0007    0.0001    0.0003   -0.0001    0.0157
    97 N2     4px       -0.0000   -0.0000   -0.0002   -0.0000   -0.0002   -0.0000   -0.0000   -0.0001   -0.0000   -0.0058
    98 N2     2py        0.0015   -0.0001   -0.0008   -0.0002    0.0003    0.0009    0.0003    0.0003   -0.0001    0.0361
    99 N2     3py        0.0019   -0.0001   -0.0001   -0.0003    0.0004    0.0010    0.0004    0.0002   -0.0001    0.0147
   100 N2     4py        0.0000    0.0000    0.0004   -0.0000   -0.0000    0.0002   -0.0001   -0.0001   -0.0000   -0.0060
   101 N2     2pz       -0.0001    0.0003    0.0001    0.0001    0.0001   -0.0001    0.0001    0.0000    0.0001   -0.0024
   102 N2     3pz       -0.0002    0.0005    0.0001    0.0001    0.0001   -0.0001    0.0000    0.0000    0.0001   -0.0004
   103 N2     4pz       -0.0000    0.0001   -0.0001    0.0000   -0.0000   -0.0001    0.0001   -0.0000    0.0000   -0.0001
   104 N2     3d2-      -0.0001   -0.0000   -0.0002   -0.0000   -0.0001   -0.0000    0.0000    0.0000   -0.0000   -0.0028
   105 N2     3d1-       0.0000    0.0000    0.0000    0.0000    0.0000   -0.0000   -0.0000    0.0000    0.0000   -0.0002
   106 N2     3d0        0.0000    0.0000   -0.0001    0.0000    0.0001    0.0001   -0.0000    0.0001   -0.0000   -0.0025
   107 N2     3d1+       0.0000    0.0000    0.0000    0.0000   -0.0000   -0.0000   -0.0000   -0.0000    0.0000    0.0004
   108 N2     3d2+       0.0000   -0.0000   -0.0000   -0.0000    0.0001   -0.0000    0.0000   -0.0000   -0.0000    0.0047
   109 N5     1s        -0.0000    0.0001    0.0000    0.9999    0.0001    0.0000   -0.0002   -0.0000    0.0001   -0.0015
   110 N5     2s        -0.0002    0.0008   -0.0000    0.0006    0.0005    0.0002   -0.0002   -0.0002    0.0017   -0.0004
   111 N5     3s        -0.0001    0.0005   -0.0001   -0.0010    0.0003    0.0001   -0.0003   -0.0001    0.0010   -0.0050
   112 N5     4s        -0.0000    0.0001   -0.0000    0.0006    0.0001    0.0000    0.0000   -0.0000    0.0004   -0.0011
   113 N5     2px       -0.0000   -0.0013    0.0005   -0.0009    0.0003    0.0003    0.0002    0.0001    0.0004   -0.0061
   114 N5     3px       -0.0001   -0.0015    0.0007   -0.0004    0.0006    0.0004    0.0002    0.0001    0.0005   -0.0095
   115 N5     4px       -0.0000   -0.0000    0.0000    0.0003    0.0001    0.0001   -0.0000   -0.0000    0.0002   -0.0017
   116 N5     2py       -0.0000    0.0005    0.0001    0.0004    0.0002   -0.0001   -0.0002   -0.0000    0.0001   -0.0040
   117 N5     3py       -0.0001    0.0006    0.0003    0.0002    0.0003   -0.0001   -0.0001   -0.0001   -0.0000   -0.0039
   118 N5     4py       -0.0000    0.0000    0.0000   -0.0003    0.0001    0.0000   -0.0001   -0.0000   -0.0001   -0.0013
   119 N5     2pz        0.0001    0.0009   -0.0007    0.0002   -0.0004    0.0000   -0.0002   -0.0000   -0.0009    0.0095
   120 N5     3pz        0.0001    0.0011   -0.0010    0.0001   -0.0007   -0.0002   -0.0002   -0.0000   -0.0007    0.0149
   121 N5     4pz        0.0000    0.0000   -0.0001   -0.0001   -0.0002   -0.0001    0.0003    0.0000   -0.0001    0.0032
   122 N5     3d2-       0.0000    0.0000    0.0000   -0.0001    0.0000   -0.0000    0.0001    0.0000    0.0000   -0.0001
   123 N5     3d1-       0.0000   -0.0000    0.0000    0.0001    0.0000   -0.0000    0.0001    0.0000    0.0001   -0.0003
   124 N5     3d0        0.0000    0.0001    0.0000   -0.0002   -0.0000    0.0000   -0.0001    0.0000   -0.0000    0.0001
   125 N5     3d1+       0.0000   -0.0001    0.0000    0.0001   -0.0000    0.0000    0.0001   -0.0000    0.0000   -0.0001
   126 N5     3d2+      -0.0000    0.0000   -0.0000    0.0000    0.0000    0.0000   -0.0001    0.0000   -0.0000   -0.0000
   127 O7     1s        -0.9997   -0.0000    0.0000    0.0000   -0.0002   -0.0000    0.0000   -0.0001    0.0000   -0.0238
   128 O7     2s         0.0016   -0.0001    0.0003    0.0000    0.0004   -0.0001    0.0002   -0.0004    0.0000    0.6957
   129 O7     3s         0.0014   -0.0001    0.0002    0.0000   -0.0000   -0.0001    0.0001   -0.0003    0.0000   -0.0344
   130 O7     4s         0.0000   -0.0000    0.0000   -0.0000    0.0000    0.0000    0.0000   -0.0001    0.0000   -0.0138
   131 O7     2px       -0.0001   -0.0000   -0.0003    0.0001    0.0004   -0.0001    0.0001   -0.0001    0.0000    0.0887
   132 O7     3px        0.0003   -0.0000   -0.0004    0.0001   -0.0001   -0.0001    0.0001   -0.0001    0.0001   -0.0262
   133 O7     4px       -0.0008   -0.0000   -0.0001    0.0000    0.0001   -0.0000    0.0000    0.0000    0.0000   -0.0016
   134 O7     2py        0.0001    0.0000   -0.0003    0.0001   -0.0007   -0.0001    0.0000    0.0001    0.0000   -0.1184
   135 O7     3py       -0.0005    0.0000   -0.0002    0.0001   -0.0004   -0.0001    0.0001    0.0001    0.0000    0.0373
   136 O7     4py        0.0011    0.0000    0.0000    0.0000   -0.0003   -0.0001    0.0000   -0.0001    0.0000    0.0002
   137 O7     2pz       -0.0000    0.0001    0.0000   -0.0000    0.0001    0.0000   -0.0000   -0.0000   -0.0000    0.0102
   138 O7     3pz        0.0001    0.0001    0.0000   -0.0000    0.0000    0.0000   -0.0000   -0.0000   -0.0001   -0.0024
   139 O7     4pz       -0.0001    0.0000   -0.0000    0.0000    0.0000    0.0000   -0.0000    0.0000   -0.0000    0.0002
   140 O7     3d2-      -0.0001   -0.0000    0.0000   -0.0000   -0.0002    0.0000   -0.0000    0.0000   -0.0000   -0.0182
   141 O7     3d1-      -0.0000   -0.0000   -0.0000    0.0000   -0.0000    0.0000    0.0000    0.0000   -0.0000   -0.0019
   142 O7     3d0        0.0000    0.0000   -0.0001   -0.0000   -0.0001    0.0000    0.0000    0.0000    0.0000   -0.0106
   143 O7     3d1+       0.0000    0.0000    0.0000    0.0000    0.0000   -0.0000    0.0000   -0.0000   -0.0000    0.0014
   144 O7     3d2+      -0.0000   -0.0000   -0.0001    0.0000   -0.0001   -0.0000    0.0000    0.0000    0.0000   -0.0061
   145 O8     1s         0.0000    0.9997    0.0000    0.0000    0.0000    0.0000   -0.0002   -0.0000   -0.0000   -0.0013
   146 O8     2s         0.0000   -0.0016   -0.0000    0.0002    0.0003    0.0003    0.0006   -0.0001   -0.0003    0.0111
   147 O8     3s         0.0000   -0.0015   -0.0001    0.0002    0.0002    0.0002    0.0001   -0.0001   -0.0002   -0.0036
   148 O8     4s         0.0000    0.0000   -0.0001    0.0000    0.0001    0.0001    0.0000   -0.0000   -0.0000   -0.0010
   149 O8     2px       -0.0000   -0.0002    0.0001   -0.0001   -0.0001   -0.0002   -0.0007    0.0001    0.0000   -0.0029
   150 O8     3px       -0.0000    0.0005    0.0002    0.0000   -0.0001   -0.0001   -0.0002    0.0001    0.0000    0.0023
   151 O8     4px       -0.0000   -0.0012    0.0000    0.0001   -0.0000    0.0000   -0.0002    0.0000   -0.0000   -0.0001
   152 O8     2py       -0.0000    0.0001    0.0000   -0.0001    0.0001    0.0001    0.0004   -0.0000   -0.0001   -0.0007
   153 O8     3py       -0.0000   -0.0003   -0.0000   -0.0001    0.0001    0.0000    0.0001    0.0000   -0.0000   -0.0015
   154 O8     4py       -0.0000    0.0008   -0.0000   -0.0001    0.0000   -0.0000    0.0001    0.0000    0.0000    0.0002
   155 O8     2pz       -0.0000   -0.0000   -0.0001    0.0003    0.0000   -0.0001   -0.0001   -0.0000    0.0000    0.0001
   156 O8     3pz       -0.0001   -0.0001   -0.0002    0.0003   -0.0001   -0.0002    0.0001   -0.0000   -0.0000    0.0005
   157 O8     4pz       -0.0000    0.0000   -0.0001    0.0000   -0.0000   -0.0001    0.0001   -0.0000   -0.0000    0.0002
   158 O8     3d2-       0.0000    0.0001   -0.0000   -0.0000    0.0000   -0.0001   -0.0002    0.0000    0.0000   -0.0002
   159 O8     3d1-       0.0000   -0.0000    0.0000    0.0000    0.0000   -0.0000    0.0000    0.0000    0.0000    0.0000
   160 O8     3d0       -0.0000    0.0001    0.0000    0.0000    0.0000   -0.0000   -0.0002    0.0000    0.0000   -0.0002
   161 O8     3d1+      -0.0000   -0.0000    0.0000   -0.0001   -0.0000   -0.0000    0.0000    0.0000   -0.0000   -0.0001
   162 O8     3d2+      -0.0000   -0.0000   -0.0000    0.0000   -0.0000    0.0000    0.0001   -0.0000    0.0000    0.0003
   163 H9     1s        -0.0002    0.0002    0.0001   -0.0000    0.0000   -0.0002   -0.0001   -0.0003   -0.0000    0.0149
   164 H9     2s        -0.0001    0.0001    0.0000   -0.0000    0.0000   -0.0002   -0.0001    0.0003   -0.0000    0.0041
   165 H9     2px        0.0000    0.0000    0.0000   -0.0000    0.0000   -0.0000   -0.0000    0.0000   -0.0000    0.0009
   166 H9     2py        0.0001    0.0000   -0.0000   -0.0000    0.0001   -0.0000   -0.0000   -0.0000   -0.0000    0.0011
   167 H9     2pz        0.0000   -0.0000    0.0000    0.0000   -0.0000    0.0000    0.0000   -0.0001    0.0000   -0.0007
   168 H10    1s        -0.0001   -0.0002    0.0002   -0.0002    0.0001   -0.0001   -0.0001   -0.0003   -0.0002    0.0143
   169 H10    2s        -0.0000   -0.0001    0.0001   -0.0001    0.0001   -0.0001   -0.0001    0.0003   -0.0001    0.0034
   170 H10    2px        0.0000   -0.0000    0.0000   -0.0000    0.0000   -0.0000   -0.0000    0.0000   -0.0000    0.0009
   171 H10    2py        0.0001   -0.0000   -0.0000   -0.0000    0.0001   -0.0000   -0.0000   -0.0000   -0.0000    0.0012
   172 H10    2pz       -0.0000   -0.0000   -0.0000   -0.0000    0.0000   -0.0000   -0.0000    0.0001   -0.0000    0.0006
   173 H11    1s         0.0004   -0.0001    0.0004   -0.0002    0.0003   -0.0000   -0.0001   -0.0003   -0.0001    0.0208
   174 H11    2s         0.0002   -0.0000    0.0004   -0.0002    0.0002   -0.0000   -0.0001    0.0002   -0.0001    0.0063
   175 H11    2px        0.0000    0.0000   -0.0001    0.0000   -0.0000    0.0000    0.0000   -0.0001    0.0000   -0.0003
   176 H11    2py        0.0000   -0.0000    0.0000   -0.0000    0.0001    0.0000    0.0000    0.0000   -0.0000    0.0020
   177 H11    2pz        0.0000   -0.0000   -0.0000    0.0000   -0.0000   -0.0000    0.0000    0.0000    0.0000    0.0000
   178 H12    1s         0.0011   -0.0001   -0.0010    0.0003    0.0002   -0.0001    0.0001    0.0004   -0.0001    0.0365
   179 H12    2s         0.0006   -0.0001   -0.0007    0.0002    0.0000   -0.0000    0.0001    0.0002   -0.0001   -0.0017
   180 H12    2px       -0.0000   -0.0000    0.0003    0.0000   -0.0001    0.0000   -0.0001   -0.0000    0.0000   -0.0041
   181 H12    2py        0.0000   -0.0000   -0.0005    0.0000    0.0000    0.0000   -0.0000    0.0000   -0.0000    0.0043
   182 H12    2pz        0.0000    0.0000    0.0000   -0.0000    0.0000    0.0000    0.0000   -0.0000   -0.0000   -0.0000
   183 H13    1s        -0.0002   -0.0004   -0.0004    0.0004   -0.0003    0.0007   -0.0002   -0.0001   -0.0001    0.0133
   184 H13    2s        -0.0002   -0.0002   -0.0002    0.0003   -0.0001   -0.0000   -0.0001   -0.0001   -0.0001   -0.0030
   185 H13    2px       -0.0000    0.0000    0.0000    0.0000   -0.0000    0.0000    0.0000    0.0000    0.0000   -0.0004
   186 H13    2py        0.0000   -0.0000   -0.0000   -0.0000    0.0000   -0.0001   -0.0000    0.0000   -0.0000   -0.0013
   187 H13    2pz        0.0000    0.0000    0.0000    0.0000    0.0000   -0.0000   -0.0000    0.0000   -0.0000    0.0001
   188 H14    1s        -0.0003    0.0002   -0.0001   -0.0002    0.0001    0.0012   -0.0001    0.0002    0.0001    0.0074
   189 H14    2s        -0.0002    0.0001    0.0000   -0.0001    0.0000    0.0004   -0.0000    0.0001    0.0000    0.0001
   190 H14    2px        0.0000   -0.0001   -0.0000    0.0000   -0.0000   -0.0000    0.0000    0.0000   -0.0000   -0.0005
   191 H14    2py        0.0000   -0.0000    0.0000    0.0001   -0.0000   -0.0001   -0.0000   -0.0000   -0.0000   -0.0003
   192 H14    2pz        0.0000    0.0000   -0.0000   -0.0000    0.0000   -0.0000   -0.0001   -0.0000    0.0000   -0.0007
   193 H15    1s         0.0001   -0.0013    0.0004   -0.0009    0.0000    0.0001    0.0003    0.0001   -0.0002   -0.0027
   194 H15    2s         0.0000   -0.0008    0.0002   -0.0006    0.0000    0.0001    0.0001    0.0000   -0.0000   -0.0030
   195 H15    2px        0.0000   -0.0001    0.0000   -0.0004   -0.0000    0.0000    0.0001    0.0000   -0.0000    0.0004
   196 H15    2py       -0.0000    0.0000   -0.0000    0.0002    0.0000   -0.0000   -0.0001    0.0000    0.0000   -0.0003
   197 H15    2pz       -0.0000   -0.0000    0.0000    0.0001    0.0000    0.0000    0.0001   -0.0000   -0.0000   -0.0004
   198 H16    1s         0.0001    0.0005   -0.0001   -0.0005   -0.0002   -0.0002   -0.0003    0.0000    0.0005    0.0039
   199 H16    2s         0.0000    0.0003   -0.0001   -0.0002   -0.0001   -0.0001   -0.0003    0.0000   -0.0001    0.0030
   200 H16    2px        0.0000    0.0000   -0.0000    0.0000   -0.0000   -0.0000   -0.0000    0.0000   -0.0000    0.0004
   201 H16    2py        0.0000   -0.0000    0.0000    0.0000   -0.0000    0.0000   -0.0000   -0.0000   -0.0000    0.0000
   202 H16    2pz        0.0000    0.0000   -0.0000   -0.0001   -0.0000   -0.0000   -0.0001   -0.0000    0.0000    0.0002
   203 H17    1s         0.0000    0.0002    0.0002   -0.0005   -0.0000    0.0001   -0.0003    0.0000    0.0005    0.0019
   204 H17    2s         0.0000    0.0001    0.0001   -0.0002   -0.0001    0.0001   -0.0003    0.0000   -0.0001    0.0015
   205 H17    2px       -0.0000   -0.0000   -0.0000    0.0000    0.0000    0.0000    0.0000    0.0000   -0.0000   -0.0001
   206 H17    2py       -0.0000   -0.0000   -0.0000    0.0000   -0.0000   -0.0000    0.0001   -0.0000    0.0000   -0.0002
   207 H17    2pz       -0.0000    0.0000   -0.0000   -0.0000   -0.0000   -0.0000   -0.0000    0.0000    0.0000    0.0001
   208 H18    1s         0.0000   -0.0000   -0.0001   -0.0001   -0.0002    0.0001   -0.0000    0.0001    0.0010    0.0054
   209 H18    2s         0.0000    0.0001   -0.0001   -0.0000   -0.0001    0.0001    0.0001    0.0001    0.0001    0.0035
   210 H18    2px       -0.0000   -0.0000    0.0000   -0.0000    0.0000   -0.0000    0.0000   -0.0000   -0.0001   -0.0006
   211 H18    2py        0.0000   -0.0000    0.0000    0.0000    0.0000    0.0000   -0.0000    0.0000    0.0001    0.0002
   212 H18    2pz       -0.0000   -0.0000    0.0000   -0.0000    0.0000    0.0000    0.0000   -0.0000    0.0000   -0.0001
 
 
      Orbital                11        12        13        14        15        16        17        18        19        20
      Energy            -1.3581   -1.2574   -1.2099   -1.0313   -0.9710   -0.9145   -0.8208   -0.7751   -0.7193   -0.6983
      Occ. No.           2.0000    2.0000    2.0000    2.0000    2.0000    2.0000    2.0000    2.0000    2.0000    2.0000
 
     1 C1     1s         0.0040   -0.0071   -0.0039   -0.0171   -0.0032    0.0076    0.0137    0.0006    0.0069    0.0027
     2 C1     2s         0.0189    0.1475    0.0020    0.2722   -0.0390   -0.0763   -0.3881   -0.0627   -0.2512   -0.0502
     3 C1     3s         0.0208    0.0101   -0.0169   -0.0206   -0.0137    0.0174    0.0030   -0.0057    0.0086    0.0168
     4 C1     4s         0.0062    0.0030   -0.0051   -0.0053   -0.0044    0.0059    0.0024   -0.0010    0.0041    0.0027
     5 C1     2px        0.0327    0.1497   -0.0055   -0.0058    0.1089   -0.0880   -0.1262   -0.0106    0.1799    0.2491
     6 C1     3px        0.0220   -0.0425   -0.0335   -0.0351   -0.0243    0.0349    0.0302   -0.0165   -0.0745   -0.0568
     7 C1     4px        0.0081    0.0263   -0.0032   -0.0068    0.0132   -0.0064   -0.0076   -0.0031    0.0071    0.0166
     8 C1     2py        0.0135   -0.0312   -0.0289   -0.1565    0.0541    0.0046   -0.0576    0.0358    0.0499   -0.1515
     9 C1     3py        0.0286    0.0470   -0.0283    0.0198   -0.0522    0.0371    0.0140    0.0056   -0.0105    0.0623
    10 C1     4py        0.0015   -0.0059   -0.0067   -0.0239    0.0063    0.0016   -0.0059    0.0039   -0.0042   -0.0083
    11 C1     2pz        0.0041    0.0026    0.0040    0.0109    0.0010   -0.0044   -0.0043   -0.0011    0.0093    0.0061
    12 C1     3pz        0.0034   -0.0112    0.0050    0.0004    0.0012   -0.0043   -0.0056   -0.0044    0.0021   -0.0050
    13 C1     4pz        0.0002   -0.0002    0.0023    0.0023    0.0002   -0.0010   -0.0008   -0.0004    0.0025   -0.0005
    14 C1     3d2-       0.0024    0.0146    0.0011    0.0083   -0.0095    0.0060   -0.0130    0.0069    0.0188    0.0065
    15 C1     3d1-       0.0000    0.0010    0.0001   -0.0008    0.0008   -0.0002    0.0005    0.0004    0.0019    0.0012
    16 C1     3d0        0.0001   -0.0067   -0.0008   -0.0116   -0.0008    0.0045    0.0138    0.0019    0.0058    0.0020
    17 C1     3d1+       0.0001    0.0001   -0.0001    0.0002    0.0017   -0.0004   -0.0006    0.0006    0.0009   -0.0018
    18 C1     3d2+       0.0024    0.0272    0.0029    0.0013    0.0154   -0.0121   -0.0097   -0.0002    0.0165    0.0162
    19 C3     1s        -0.0161   -0.0284    0.0032    0.0311    0.0269   -0.0187    0.0062   -0.0045    0.0016    0.0002
    20 C3     2s         0.0190    0.1767   -0.0029   -0.2919   -0.2772    0.3214   -0.1088    0.0637   -0.0405    0.0360
    21 C3     3s        -0.0449   -0.0485    0.0125    0.0510    0.0417   -0.0081    0.0094   -0.0063    0.0078   -0.0009
    22 C3     4s        -0.0069   -0.0113    0.0012    0.0152    0.0106   -0.0041    0.0034   -0.0027    0.0032   -0.0019
    23 C3     2px        0.0345   -0.0491   -0.0213   -0.0114   -0.0419    0.0398    0.0575   -0.1053   -0.2575    0.1059
    24 C3     3px        0.0178    0.0165   -0.0257   -0.0235    0.0159    0.0475   -0.0088    0.0197    0.0244   -0.0150
    25 C3     4px        0.0051   -0.0019   -0.0075   -0.0058   -0.0013    0.0070    0.0023   -0.0066   -0.0060    0.0033
    26 C3     2py       -0.0181   -0.0862   -0.0260    0.0041   -0.0387   -0.0256   -0.1336   -0.0244   -0.0284    0.2090
    27 C3     3py        0.0021    0.0153   -0.0054   -0.0333    0.0126   -0.0094    0.0047    0.0017    0.0114   -0.0316
    28 C3     4py        0.0041   -0.0035   -0.0027   -0.0097   -0.0070    0.0053   -0.0087    0.0050   -0.0010    0.0084
    29 C3     2pz        0.0034    0.0203    0.0209    0.0108    0.0336    0.0667   -0.0025    0.1127    0.0535   -0.1049
    30 C3     3pz        0.0252    0.0348   -0.0043   -0.0213   -0.0344    0.0361   -0.0114   -0.0179   -0.0146    0.0123
    31 C3     4pz       -0.0061    0.0115    0.0010   -0.0112   -0.0088    0.0180   -0.0024    0.0056   -0.0030   -0.0003
    32 C3     3d2-       0.0029    0.0182   -0.0010   -0.0035    0.0054   -0.0010    0.0050    0.0023    0.0119   -0.0197
    33 C3     3d1-       0.0045   -0.0015    0.0027    0.0007    0.0005    0.0011   -0.0003   -0.0011   -0.0031    0.0024
    34 C3     3d0       -0.0012   -0.0087   -0.0052    0.0015   -0.0092   -0.0033   -0.0003   -0.0127   -0.0192    0.0136
    35 C3     3d1+      -0.0037   -0.0020    0.0001    0.0043    0.0076    0.0026   -0.0005    0.0105    0.0062   -0.0078
    36 C3     3d2+       0.0019   -0.0097    0.0013    0.0015   -0.0053   -0.0005   -0.0179   -0.0027   -0.0046    0.0180
    37 C4     1s        -0.0403    0.0054    0.0060    0.0092    0.0131    0.0086    0.0011    0.0164    0.0019   -0.0023
    38 C4     2s         0.3608    0.0267   -0.1167   -0.0835   -0.2298   -0.0711   -0.0241   -0.4080   -0.0585    0.0864
    39 C4     3s        -0.0099    0.0183   -0.0055    0.0260    0.0073    0.0167    0.0020    0.0100    0.0027    0.0012
    40 C4     4s         0.0011    0.0047   -0.0014    0.0081    0.0031    0.0051    0.0010    0.0054    0.0024   -0.0018
    41 C4     2px        0.0862   -0.0432    0.0783    0.0472    0.1125    0.0342    0.0031    0.0389    0.0430   -0.0536
    42 C4     3px       -0.0464    0.0209   -0.0566   -0.0396   -0.0075    0.0302   -0.0080   -0.0199   -0.0145    0.0156
    43 C4     4px        0.0248   -0.0059    0.0104    0.0021    0.0134    0.0088   -0.0009   -0.0018   -0.0012    0.0005
    44 C4     2py       -0.0424   -0.0013   -0.1128   -0.0086   -0.0453   -0.0512   -0.0152   -0.0698    0.0434   -0.0039
    45 C4     3py        0.0473   -0.0217    0.0192    0.0075    0.0177    0.0321   -0.0109    0.0060   -0.0207    0.0085
    46 C4     4py       -0.0108   -0.0006   -0.0223   -0.0001   -0.0044   -0.0030   -0.0065   -0.0048    0.0029    0.0002
    47 C4     2pz       -0.0390    0.0064    0.1245   -0.0399   -0.0661    0.0421   -0.0029    0.0749   -0.1754    0.1267
    48 C4     3pz       -0.0151   -0.0241    0.0402    0.0333   -0.0191   -0.1323    0.0205   -0.0103    0.0685   -0.0549
    49 C4     4pz       -0.0096   -0.0010    0.0288   -0.0045   -0.0113   -0.0091    0.0029    0.0072   -0.0065    0.0020
    50 C4     3d2-      -0.0370    0.0065   -0.0054   -0.0016    0.0040    0.0093    0.0027    0.0006    0.0005   -0.0064
    51 C4     3d1-      -0.0061   -0.0034    0.0194    0.0011    0.0064    0.0123   -0.0038    0.0135   -0.0071    0.0094
    52 C4     3d0       -0.0161    0.0059   -0.0177   -0.0053   -0.0071    0.0020    0.0010   -0.0167    0.0012   -0.0047
    53 C4     3d1+      -0.0016   -0.0026   -0.0105    0.0071    0.0047   -0.0161    0.0038    0.0052    0.0065   -0.0055
    54 C4     3d2+       0.0129   -0.0004    0.0098   -0.0023   -0.0014    0.0049   -0.0032    0.0016   -0.0023    0.0045
    55 C6     1s        -0.0090    0.0047    0.0346   -0.0152   -0.0355   -0.0432    0.0046    0.0084    0.0032   -0.0065
    56 C6     2s         0.0299    0.0354   -0.1600    0.0590    0.2343    0.3888   -0.0378   -0.1112   -0.0306    0.0425
    57 C6     3s        -0.0133    0.0261    0.0604   -0.0322   -0.0671   -0.0686    0.0117    0.0175    0.0075   -0.0190
    58 C6     4s        -0.0006    0.0072    0.0102   -0.0060   -0.0144   -0.0142    0.0032    0.0050    0.0019   -0.0048
    59 C6     2px       -0.0074   -0.0076    0.0508   -0.0114   -0.0104    0.0089   -0.0176   -0.1336    0.0409    0.0068
    60 C6     3px        0.0012   -0.0061   -0.0079    0.0018    0.0072   -0.0041    0.0003    0.0054   -0.0013   -0.0043
    61 C6     4px       -0.0019   -0.0004    0.0025    0.0021    0.0052    0.0088   -0.0018   -0.0095    0.0026    0.0000
    62 C6     2py       -0.0076    0.0082    0.0084    0.0020    0.0026    0.0164   -0.0011    0.0681   -0.0638    0.0594
    63 C6     3py       -0.0022    0.0075   -0.0025    0.0031    0.0058    0.0127   -0.0013   -0.0006    0.0053   -0.0050
    64 C6     4py       -0.0009   -0.0001   -0.0016   -0.0002    0.0028    0.0026    0.0001    0.0040   -0.0038    0.0031
    65 C6     2pz        0.0233    0.0136   -0.0929    0.0160    0.0112   -0.0330    0.0223    0.0513    0.0740   -0.1305
    66 C6     3pz       -0.0036    0.0133    0.0197   -0.0065   -0.0219   -0.0066    0.0005   -0.0028   -0.0109    0.0179
    67 C6     4pz        0.0030    0.0015    0.0004   -0.0022   -0.0130   -0.0186    0.0028    0.0068    0.0038   -0.0060
    68 C6     3d2-       0.0000    0.0005   -0.0015   -0.0001   -0.0016   -0.0019    0.0003    0.0021   -0.0026    0.0022
    69 C6     3d1-      -0.0011    0.0002    0.0015   -0.0006   -0.0006    0.0006    0.0003    0.0082   -0.0059    0.0048
    70 C6     3d0        0.0036    0.0002   -0.0148    0.0028    0.0033   -0.0025    0.0022    0.0024    0.0068   -0.0114
    71 C6     3d1+      -0.0036   -0.0009    0.0180   -0.0037   -0.0052    0.0012   -0.0027   -0.0155   -0.0018    0.0090
    72 C6     3d2+       0.0010   -0.0001   -0.0052    0.0011    0.0022    0.0001    0.0009    0.0056    0.0008   -0.0032
    73 C19    1s         0.0010   -0.0100   -0.0027   -0.0578    0.0419   -0.0191   -0.0131   -0.0036   -0.0093    0.0022
    74 C19    2s         0.0075    0.0020   -0.0071    0.3078   -0.2742    0.1446    0.0764    0.0425    0.0956   -0.0040
    75 C19    3s         0.0088   -0.0279   -0.0149   -0.1138    0.0773   -0.0326   -0.0342   -0.0061   -0.0171    0.0117
    76 C19    4s         0.0035   -0.0034   -0.0048   -0.0240    0.0173   -0.0074   -0.0093   -0.0021   -0.0052    0.0033
    77 C19    2px        0.0021    0.0245    0.0017    0.0540    0.0034   -0.0256   -0.0425   -0.0253   -0.0507    0.1329
    78 C19    3px       -0.0007   -0.0012   -0.0006    0.0038    0.0038   -0.0018    0.0021    0.0063    0.0121   -0.0126
    79 C19    4px       -0.0010    0.0005    0.0007   -0.0083    0.0120   -0.0080   -0.0017   -0.0030   -0.0058    0.0032
    80 C19    2py        0.0074    0.0088   -0.0065    0.0497   -0.0086   -0.0147   -0.0645   -0.0433   -0.2172   -0.0418
    81 C19    3py        0.0082   -0.0032   -0.0092   -0.0292    0.0177   -0.0008    0.0122   -0.0016    0.0238    0.0100
    82 C19    4py        0.0002    0.0009   -0.0002   -0.0128    0.0146   -0.0086   -0.0128   -0.0031   -0.0086   -0.0011
    83 C19    2pz        0.0031   -0.0017   -0.0018   -0.0035    0.0022    0.0013    0.0026    0.0025    0.0141   -0.0003
    84 C19    3pz        0.0026   -0.0013   -0.0022   -0.0006    0.0002    0.0007    0.0002   -0.0005   -0.0029   -0.0007
    85 C19    4pz       -0.0002    0.0001   -0.0003    0.0005   -0.0007    0.0001    0.0012    0.0006    0.0002    0.0001
    86 C19    3d2-       0.0006    0.0061    0.0008    0.0108   -0.0018   -0.0024   -0.0076   -0.0035   -0.0139    0.0005
    87 C19    3d1-      -0.0001    0.0003    0.0001   -0.0010    0.0006   -0.0001    0.0004    0.0005    0.0017   -0.0004
    88 C19    3d0       -0.0002   -0.0009   -0.0001   -0.0090    0.0034    0.0006    0.0034    0.0028    0.0079   -0.0086
    89 C19    3d1+      -0.0004   -0.0000    0.0001   -0.0005   -0.0001    0.0001    0.0006    0.0001    0.0004   -0.0001
    90 C19    3d2+       0.0002    0.0020    0.0002   -0.0077    0.0047   -0.0009    0.0036    0.0026    0.0148    0.0040
    91 N2     1s        -0.0042   -0.0404   -0.0042   -0.0047   -0.0052    0.0020   -0.0050    0.0009    0.0030   -0.0011
    92 N2     2s         0.0578    0.5919    0.0574   -0.0355    0.2061   -0.0957    0.1459    0.0142    0.1217   -0.0628
    93 N2     3s        -0.0052   -0.0745   -0.0104   -0.0150   -0.0017    0.0011   -0.0111    0.0019    0.0138   -0.0031
    94 N2     4s        -0.0015   -0.0243   -0.0033   -0.0019   -0.0029    0.0016   -0.0039   -0.0003    0.0008   -0.0001
    95 N2     2px        0.0192   -0.0333   -0.0156   -0.1486   -0.0576    0.1158    0.3633    0.0058   -0.1264   -0.2712
    96 N2     3px        0.0169   -0.0111   -0.0140    0.0146    0.0369   -0.0561   -0.1109   -0.0182    0.0120    0.0606
    97 N2     4px        0.0039    0.0016   -0.0018   -0.0069    0.0071   -0.0043    0.0019   -0.0020   -0.0011    0.0064
    98 N2     2py        0.0034   -0.0084   -0.0072   -0.1178   -0.0572    0.1111   -0.2151    0.1288    0.2507   -0.2132
    99 N2     3py       -0.0085   -0.0502    0.0005    0.0456    0.0629   -0.0523    0.0390   -0.0431   -0.0551    0.0272
   100 N2     4py       -0.0014   -0.0151    0.0001    0.0003    0.0053   -0.0054   -0.0096   -0.0031   -0.0002    0.0048
   101 N2     2pz       -0.0116    0.0036    0.0039    0.0112    0.0151   -0.0029    0.0249    0.0288    0.0185   -0.0374
   102 N2     3pz       -0.0130    0.0081    0.0019    0.0048    0.0019   -0.0085    0.0084    0.0039   -0.0018    0.0067
   103 N2     4pz       -0.0020    0.0019   -0.0002    0.0008    0.0010   -0.0003    0.0019    0.0015   -0.0011    0.0016
   104 N2     3d2-       0.0014    0.0073    0.0002   -0.0019   -0.0085    0.0085   -0.0071    0.0043    0.0068   -0.0027
   105 N2     3d1-      -0.0010   -0.0008    0.0005    0.0008    0.0008    0.0004   -0.0001    0.0020    0.0006   -0.0011
   106 N2     3d0       -0.0017   -0.0164   -0.0018    0.0016   -0.0039    0.0015   -0.0005   -0.0005   -0.0018   -0.0002
   107 N2     3d1+      -0.0007    0.0004    0.0002    0.0003    0.0007   -0.0005   -0.0009    0.0010    0.0007   -0.0001
   108 N2     3d2+       0.0008    0.0054    0.0004    0.0098    0.0066   -0.0100   -0.0195   -0.0044   -0.0004    0.0141
   109 N5     1s        -0.0201   -0.0029    0.0425   -0.0023    0.0018    0.0025   -0.0010   -0.0036    0.0026   -0.0027
   110 N5     2s         0.1336    0.0074   -0.5750    0.0396   -0.0081   -0.2209    0.0532    0.1723    0.0536   -0.1076
   111 N5     3s        -0.0499   -0.0057    0.0797   -0.0082   -0.0002   -0.0151    0.0010    0.0005    0.0114   -0.0142
   112 N5     4s        -0.0118   -0.0007    0.0264   -0.0035   -0.0014   -0.0017   -0.0000   -0.0018    0.0013   -0.0015
   113 N5     2px        0.0302   -0.0251    0.0035    0.0297    0.0433    0.0453   -0.0104   -0.2586    0.1706   -0.1539
   114 N5     3px       -0.0027   -0.0263    0.0351    0.0090   -0.0220   -0.0592    0.0087    0.0633   -0.0268    0.0313
   115 N5     4px       -0.0035   -0.0034    0.0102    0.0005   -0.0006   -0.0036    0.0011   -0.0076    0.0016   -0.0007
   116 N5     2py       -0.0283   -0.0046    0.0095    0.0119    0.0469    0.0431    0.0180    0.2541   -0.1321    0.0797
   117 N5     3py        0.0081   -0.0078   -0.0190   -0.0032    0.0012   -0.0089    0.0008   -0.0615    0.0208   -0.0132
   118 N5     4py       -0.0015   -0.0021   -0.0063    0.0013    0.0036   -0.0012    0.0006    0.0039   -0.0009    0.0013
   119 N5     2pz        0.0043    0.0346   -0.0138   -0.0605   -0.1615   -0.1546   -0.0041   -0.1628    0.0358    0.0408
   120 N5     3pz       -0.0185    0.0493   -0.0136    0.0042    0.0338    0.0905    0.0049    0.0476   -0.0068   -0.0172
   121 N5     4pz        0.0075    0.0082   -0.0009   -0.0021   -0.0055    0.0047    0.0016    0.0023   -0.0014   -0.0008
   122 N5     3d2-      -0.0037    0.0005    0.0073   -0.0011    0.0012    0.0070   -0.0009   -0.0046   -0.0004   -0.0000
   123 N5     3d1-      -0.0045   -0.0007    0.0124    0.0011    0.0049    0.0062    0.0006    0.0116   -0.0044    0.0018
   124 N5     3d0        0.0001    0.0013   -0.0117    0.0000    0.0007    0.0048   -0.0012   -0.0085    0.0023   -0.0021
   125 N5     3d1+       0.0032   -0.0011    0.0045   -0.0019   -0.0070   -0.0095   -0.0004   -0.0102    0.0032    0.0004
   126 N5     3d2+      -0.0009    0.0001   -0.0017    0.0012    0.0029    0.0017    0.0005    0.0098   -0.0031    0.0014
   127 O7     1s         0.0004    0.0021    0.0008   -0.0045    0.0023    0.0004    0.0140    0.0004    0.0155    0.0205
   128 O7     2s        -0.0543   -0.3014   -0.0207   -0.2074    0.0537    0.0288    0.3567    0.0021    0.2538    0.3314
   129 O7     3s        -0.0014   -0.0098    0.0029   -0.0209    0.0098    0.0008    0.0435   -0.0005    0.0438    0.0582
   130 O7     4s         0.0003   -0.0002    0.0012   -0.0039    0.0023   -0.0001    0.0084   -0.0007    0.0089    0.0124
   131 O7     2px       -0.0055   -0.0010    0.0038   -0.0052    0.0266   -0.0306   -0.1820    0.0048   -0.1119   -0.2211
   132 O7     3px       -0.0012    0.0002    0.0040   -0.0113    0.0001    0.0022    0.0225    0.0011    0.0085    0.0206
   133 O7     4px       -0.0000    0.0005    0.0007   -0.0017   -0.0012    0.0009    0.0017    0.0005    0.0001    0.0014
   134 O7     2py        0.0080    0.0404    0.0035   -0.0369    0.0225    0.0050    0.1613    0.0157    0.2955    0.3901
   135 O7     3py       -0.0027    0.0013    0.0019    0.0106   -0.0022   -0.0010   -0.0259   -0.0041   -0.0354   -0.0407
   136 O7     4py       -0.0007   -0.0013    0.0000   -0.0014   -0.0003    0.0007   -0.0031    0.0001   -0.0047   -0.0061
   137 O7     2pz       -0.0023    0.0005    0.0000    0.0036    0.0027   -0.0006   -0.0125   -0.0013   -0.0204   -0.0301
   138 O7     3pz       -0.0020    0.0008   -0.0009    0.0005    0.0024    0.0019    0.0030   -0.0014    0.0016    0.0029
   139 O7     4pz       -0.0006    0.0003   -0.0003    0.0006    0.0008    0.0008    0.0004   -0.0008    0.0003    0.0005
   140 O7     3d2-       0.0011    0.0036    0.0003    0.0008   -0.0021    0.0024    0.0123    0.0004    0.0111    0.0176
   141 O7     3d1-       0.0002    0.0006    0.0000   -0.0000    0.0002   -0.0001    0.0007   -0.0001    0.0015    0.0024
   142 O7     3d0        0.0006    0.0041    0.0005    0.0014    0.0002   -0.0002    0.0052   -0.0001    0.0070    0.0113
   143 O7     3d1+      -0.0002   -0.0002    0.0000   -0.0000    0.0004   -0.0001   -0.0009   -0.0000   -0.0005   -0.0015
   144 O7     3d2+       0.0006    0.0048    0.0005   -0.0027    0.0045   -0.0026   -0.0014    0.0011    0.0121    0.0110
   145 O8     1s        -0.0234    0.0022   -0.0043    0.0004    0.0025    0.0006    0.0005    0.0123    0.0020   -0.0013
   146 O8     2s         0.6692   -0.1443    0.3195    0.0977    0.1584    0.0143   -0.0014    0.3514    0.0442   -0.0131
   147 O8     3s        -0.0277   -0.0030    0.0080    0.0043    0.0126    0.0015    0.0003    0.0449    0.0073   -0.0042
   148 O8     4s        -0.0122    0.0000   -0.0002   -0.0001    0.0014   -0.0001   -0.0006    0.0092    0.0018   -0.0010
   149 O8     2px       -0.1173    0.0133   -0.0365    0.0110    0.0170   -0.0010   -0.0027    0.1492    0.0391   -0.0162
   150 O8     3px        0.0351   -0.0044    0.0040    0.0017   -0.0105   -0.0072   -0.0010   -0.0231   -0.0044    0.0018
   151 O8     4px        0.0009   -0.0006    0.0018    0.0012   -0.0001   -0.0009    0.0004   -0.0026   -0.0010    0.0002
   152 O8     2py        0.0807   -0.0205    0.0181    0.0063   -0.0066   -0.0178   -0.0044   -0.1169    0.0161   -0.0126
   153 O8     3py       -0.0263    0.0016    0.0007    0.0041    0.0059   -0.0016   -0.0001    0.0183    0.0028   -0.0009
   154 O8     4py       -0.0010   -0.0000    0.0001    0.0010    0.0002   -0.0003   -0.0008    0.0022    0.0007    0.0001
   155 O8     2pz       -0.0020    0.0076    0.0187   -0.0190   -0.0169    0.0419   -0.0016    0.0302   -0.0957    0.0660
   156 O8     3pz        0.0022    0.0080   -0.0068   -0.0039    0.0017    0.0129   -0.0022    0.0004    0.0076   -0.0036
   157 O8     4pz        0.0016    0.0023   -0.0024   -0.0011   -0.0007    0.0014   -0.0003    0.0006    0.0024   -0.0013
[...]
AIVX     1  Mu1.0001  In1.026 Se1.046               0.08620754     -0.00049373      0.00099097     -0.00000049
AIVX     1  Mu1.0001  In1.027 Se1.046               0.11809894      0.00028166     -0.00082409     -0.00000023
AIVX     1  Mu1.0001  In1.028 Se1.046               0.22837130     -0.00053621      0.00082270     -0.00000044
AIVX     1  Mu1.0001  In1.029 Se1.046               0.05175068     -0.00043593      0.00099312     -0.00000043
AIVX     1  Mu1.0001  In1.021 Se1.047               0.24279992     -0.00007427      0.00035835     -0.00000003
AIVX     1  Mu1.0001  In1.022 Se1.047               0.22152152     -0.00071037      0.00124546     -0.00000088
AIVX     1  Mu1.0001  In1.023 Se1.047               0.29864417     -0.00040147      0.00057720     -0.00000023
AIVX     1  Mu1.0001  In1.024 Se1.047               0.15846140      0.00010252     -0.00044881     -0.00000005
AIVX     1  Mu1.0001  In1.025 Se1.047               0.26932349     -0.00068653      0.00121464     -0.00000083
AIVX     1  Mu1.0001  In1.026 Se1.047               0.10994262      0.00039436     -0.00081713     -0.00000032
AIVX     1  Mu1.0001  In1.027 Se1.047               0.14183402      0.00019591      0.00007931      0.00000002
AIVX     1  Mu1.0001  In1.028 Se1.047               0.25210637     -0.00005805      0.00013335     -0.00000001
AIVX     1  Mu1.0001  In1.029 Se1.047               0.07548576      0.00036210     -0.00071423     -0.00000026
AIVX     1  Mu1.0001  In1.021 Se1.048               0.25557339     -0.00065018      0.00053794     -0.00000035
AIVX     1  Mu1.0001  In1.022 Se1.048               0.23429499      0.00017367     -0.00029926     -0.00000005
AIVX     1  Mu1.0001  In1.024 Se1.048               0.17123487      0.00015261     -0.00018597     -0.00000003
AIVX     1  Mu1.0001  In1.025 Se1.048               0.28209696     -0.00061918      0.00117837     -0.00000073
AIVX     1  Mu1.0001  In1.026 Se1.048               0.12271609     -0.00076650      0.00103863     -0.00000080
AIVX     1  Mu1.0001  In1.027 Se1.048               0.15460749     -0.00069207      0.00098415     -0.00000068
AIVX     1  Mu1.0001  In1.028 Se1.048               0.26487984     -0.00064430      0.00109437     -0.00000071
AIVX     1  Mu1.0001  In1.029 Se1.048               0.08825923     -0.00050347      0.00068579     -0.00000035
AIVX     1  Mu1.0001  In1.021 Se1.049               0.26755433     -0.00082297      0.00154399     -0.00000127
AIVX     1  Mu1.0001  In1.022 Se1.049               0.24627593      0.00001364     -0.00008801     -0.00000000
AIVX     1  Mu1.0001  In1.024 Se1.049               0.18321581     -0.00004961      0.00013735     -0.00000001
AIVX     1  Mu1.0001  In1.025 Se1.049               0.29407790     -0.00127535      0.00208604     -0.00000266
AIVX     1  Mu1.0001  In1.026 Se1.049               0.13469702     -0.00005096      0.00022597     -0.00000001
AIVX     1  Mu1.0001  In1.027 Se1.049               0.16658842      0.00007843      0.00030520      0.00000002
AIVX     1  Mu1.0001  In1.028 Se1.049               0.27686078      0.00040498     -0.00067289     -0.00000027
AIVX     1  Mu1.0001  In1.029 Se1.049               0.10024017     -0.00035730      0.00097110     -0.00000035
AIVX     1  Mu1.0001  In1.021 Se1.050               0.28660489     -0.00101881      0.00171174     -0.00000174
AIVX     1  Mu1.0001  In1.022 Se1.050               0.26532650     -0.00081519      0.00113971     -0.00000093
AIVX     1  Mu1.0001  In1.024 Se1.050               0.20226638      0.00008915     -0.00021930     -0.00000002
AIVX     1  Mu1.0001  In1.026 Se1.050               0.15374759     -0.00038079      0.00096348     -0.00000037
AIVX     1  Mu1.0001  In1.027 Se1.050               0.18563899      0.00025529     -0.00043620     -0.00000011
AIVX     1  Mu1.0001  In1.028 Se1.050               0.29591135      0.00288964     -0.00459160     -0.00001327
AIVX     1  Mu1.0001  In1.029 Se1.050               0.11929074     -0.00038117      0.00100931     -0.00000038
AIVX     1  Mu1.0001  In1.022 Se1.051               0.28483997     -0.00265383      0.00424655     -0.00001127
AIVX     1  Mu1.0001  In1.024 Se1.051               0.22177985      0.00004187      0.00000902      0.00000000
AIVX     1  Mu1.0001  In1.026 Se1.051               0.17326106     -0.00071594      0.00063147     -0.00000045
AIVX     1  Mu1.0001  In1.027 Se1.051               0.20515246     -0.00005460     -0.00035545      0.00000002
AIVX     1  Mu1.0001  In1.029 Se1.051               0.13880420     -0.00057380      0.00101267     -0.00000058
AIVX     1  Mu1.0001  In1.022 Se1.052               0.29707293      0.00155190     -0.00252798     -0.00000392
AIVX     1  Mu1.0001  In1.024 Se1.052               0.23401281     -0.00001717      0.00012871     -0.00000000
AIVX     1  Mu1.0001  In1.026 Se1.052               0.18549402      0.00048633     -0.00097289     -0.00000047
AIVX     1  Mu1.0001  In1.027 Se1.052               0.21738542     -0.00052663      0.00072593     -0.00000038
AIVX     1  Mu1.0001  In1.029 Se1.052               0.15103716      0.00104525     -0.00211165     -0.00000221
AIVX     1  Mu1.0001  In1.024 Se1.053               0.26204933      0.00008334     -0.00027334     -0.00000002
AIVX     1  Mu1.0001  In1.026 Se1.053               0.21353054      0.00019854     -0.00009460     -0.00000002
AIVX     1  Mu1.0001  In1.027 Se1.053               0.24542194     -0.00018846     -0.00000260      0.00000000
AIVX     1  Mu1.0001  In1.029 Se1.053               0.17907369      0.00107489     -0.00243418     -0.00000262
AIVX     1  Mu1.0001  In1.024 Se1.054               0.27637112      0.00003187     -0.00000459     -0.00000000
AIVX     1  Mu1.0001  In1.026 Se1.054               0.22785233     -0.00029537      0.00032772     -0.00000010
AIVX     1  Mu1.0001  In1.027 Se1.054               0.25974373     -0.00015784      0.00026260     -0.00000004
AIVX     1  Mu1.0001  In1.029 Se1.054               0.19339547      0.00028668     -0.00067389     -0.00000019
AIVX     1  Mu1.0001  In1.026 Se1.055               0.26781769      0.00074720     -0.00109042     -0.00000081
AIVX     1  Mu1.0001  In1.027 Se1.055               0.29970909     -0.00023535      0.00077445     -0.00000018
AIVX     1  Mu1.0001  In1.029 Se1.055               0.23336083     -0.00020993      0.00074910     -0.00000016
AIVX     1  Mu1.0001  In1.024 Se1.056               0.29602594      0.00004505     -0.00004668     -0.00000000
AIVX     1  Mu1.0001  In1.026 Se1.056               0.24750715     -0.00015813      0.00017939     -0.00000003
AIVX     1  Mu1.0001  In1.027 Se1.056               0.27939855     -0.00036901      0.00011592     -0.00000004
AIVX     1  Mu1.0001  In1.029 Se1.056               0.21305030     -0.00020116      0.00047516     -0.00000010
AIVX     1  Mu1.0001  In1.026 Se1.057               0.27599586      0.00061618     -0.00119384     -0.00000074
AIVX     1  Mu1.0001  In1.029 Se1.057               0.24153901      0.00031272     -0.00028345     -0.00000009
AIVX     1  Mu1.0001  In1.024 Se1.058               0.28158802     -0.00003535     -0.00004643      0.00000000
AIVX     1  Mu1.0001  In1.026 Se1.058               0.23306923      0.00012781     -0.00001245     -0.00000000
AIVX     1  Mu1.0001  In1.027 Se1.058               0.26496063      0.00014013     -0.00011654     -0.00000002
AIVX     1  Mu1.0001  In1.029 Se1.058               0.19861238      0.00006296      0.00021293      0.00000001
AIVX     1  Mu1.0001  In1.026 Se1.059               0.29915659      0.00058517     -0.00085004     -0.00000050
AIVX     1  Mu1.0001  In1.029 Se1.059               0.26469974      0.00001583      0.00001781      0.00000000
AIVX     1  Mu1.0001  In1.029 Se1.060               0.27305913      0.00103362     -0.00166432     -0.00000172
AIVX     1  Mu1.0001  In1.029 Se1.062               0.28875142      0.00029674     -0.00044302     -0.00000013
AIVX     1  Mu1.0001  In1.029 Se1.063               0.29411472     -0.00020289      0.00002092     -0.00000000
--
 
   (Skipping property calculation,
    use PROP keyword to activate)
--
 
  Total CASPT2 energies:
::    CASPT2 Root  1     Total energy:   -455.21259327
::    CASPT2 Root  2     Total energy:   -455.01483122
::    CASPT2 Root  3     Total energy:   -455.01016861
::    CASPT2 Root  4     Total energy:   -454.95416321
::    CASPT2 Root  5     Total energy:   -454.94098246
::    CASPT2 Root  6     Total energy:   -454.92784283
::    CASPT2 Root  7     Total energy:   -454.90784672
 
++ Multi-State CASPT2 section:
********************************************************************************
  MULTI-STATE CASPT2 SECTION
--------------------------------------------------------------------------------
 
  Output diagonal energies have been shifted. Add   -455.000000000000     
 
  Effective Hamiltonian matrix (Symmetric):
 
                1               2               3               4               5
   1        -0.21259327
   2        -0.00056187     -0.01483122
   3         0.00052008     -0.00025035     -0.01016861
   4        -0.00985178      0.00071003      0.00021160      0.04583679
   5        -0.00814338      0.00105652      0.00124503      0.00187145      0.05901754
   6         0.01050942      0.00185951      0.00195196      0.00574822      0.01138416
   7        -0.00966976      0.00037640     -0.00093857     -0.00460090     -0.00568485
 
                6               7
   6         0.07215717
   7         0.00779893      0.09215328
 
       Total MS-CASPT2 energies:
::    MS-CASPT2 Root  1     Total energy:   -455.21398557
::    MS-CASPT2 Root  2     Total energy:   -455.01490461
::    MS-CASPT2 Root  3     Total energy:   -455.01021915
::    MS-CASPT2 Root  4     Total energy:   -454.95557803
::    MS-CASPT2 Root  5     Total energy:   -454.94827856
::    MS-CASPT2 Root  6     Total energy:   -454.92065544
::    MS-CASPT2 Root  7     Total energy:   -454.90480696
 
       Eigenvectors:
            0.99736933     -0.00255745      0.00156838     -0.05498193     -0.04140588
            0.00280902      0.99758815     -0.06493421      0.00656466     -0.00028624
           -0.00224218      0.06439345      0.99751945     -0.00601741     -0.00084985
            0.03905504     -0.01024826      0.00083723      0.95139871     -0.23231664
            0.03183484     -0.01252171     -0.01234815      0.09736183      0.84526492
           -0.03960328     -0.01987436     -0.02172085     -0.25385806     -0.44863181
            0.03367979     -0.00283135      0.01053901      0.13347261      0.16902792
 
            0.01436033     -0.01737068
            0.02240015      0.00697126
            0.02731737     -0.00449902
            0.18979538     -0.05671122
            0.52017227     -0.06438922
            0.81148260      0.27082534
           -0.18286687      0.95860363
 
--
 
  THE ORIGINAL CI ARRAYS ARE NOW MIXED AS LINEAR
  COMBINATIONS, GIVEN BY THE EIGENVECTORS.
  A NEW JOBIPH FILE NAMED 'JOBMIX' IS PREPARED.
********************************************************************************
 
++ Mixed CI coefficients:
  The CI coefficients for the MIXED state nr.   1
--------------------------------------------------------------------------------
 CI COEFFICIENTS LARGER THAN  0.50D-01
  Occupation of active orbitals, and spin coupling
  of open shells. (u,d: Spin up or down).
  SGUGA info is (Midvert:IsyUp:UpperWalk/LowerWalk)
        Conf  SGUGA info        Occupation    Coefficient         Weight
           1  ( 1:1:   1/   1)   22222200        0.970199       0.941286
           6  ( 1:1:   6/   1)   22220220       -0.088901       0.007903
           7  ( 1:1:   7/   1)   22222u0d       -0.076417       0.005840
          15  ( 1:1:  15/   1)   22222002       -0.087245       0.007612
          64  ( 2:1:   4/   3)   2u22220d       -0.075411       0.005687
          81  ( 2:1:   1/   4)   u22222d0        0.098182       0.009640
         175  ( 3:1:   5/   8)   20222202       -0.088756       0.007878
         191  ( 3:1:   1/  10)   02222220       -0.074998       0.005625
 
  The CI coefficients for the MIXED state nr.   2
--------------------------------------------------------------------------------
 CI COEFFICIENTS LARGER THAN  0.50D-01
  Occupation of active orbitals, and spin coupling
  of open shells. (u,d: Spin up or down).
  SGUGA info is (Midvert:IsyUp:UpperWalk/LowerWalk)
        Conf  SGUGA info        Occupation    Coefficient         Weight
           2  ( 1:1:   2/   1)   22222ud0        0.064229       0.004125
          21  ( 2:1:   1/   1)   222u22d0       -0.145926       0.021294
          24  ( 2:1:   4/   1)   222u220d        0.944001       0.891138
          32  ( 2:1:  12/   1)   222u022d       -0.081289       0.006608
          33  ( 2:1:  13/   1)   222u2d02        0.079970       0.006395
          41  ( 2:1:   1/   2)   22u222d0       -0.110838       0.012285
         115  ( 3:1:   5/   2)   22ud2202        0.064930       0.004216
         125  ( 3:1:   5/   3)   2u2d2202        0.178019       0.031691
         213  ( 4:1:   1/   3)   u22u22dd       -0.074130       0.005495
         269  ( 5:1:   1/   9)   022u222d        0.074738       0.005586
 
  The CI coefficients for the MIXED state nr.   3
--------------------------------------------------------------------------------
 CI COEFFICIENTS LARGER THAN  0.50D-01
  Occupation of active orbitals, and spin coupling
  of open shells. (u,d: Spin up or down).
  SGUGA info is (Midvert:IsyUp:UpperWalk/LowerWalk)
        Conf  SGUGA info        Occupation    Coefficient         Weight
           2  ( 1:1:   2/   1)   22222ud0        0.316419       0.100121
           3  ( 1:1:   3/   1)   2222u2d0        0.055858       0.003120
          24  ( 2:1:   4/   1)   222u220d       -0.133443       0.017807
          41  ( 2:1:   1/   2)   22u222d0       -0.885820       0.784677
          43  ( 2:1:   3/   2)   22u2d220       -0.166391       0.027686
          45  ( 2:1:   5/   2)   22u22dud        0.061472       0.003779
          47  ( 2:1:   7/   2)   22u22udd       -0.106622       0.011368
          55  ( 2:1:  15/   2)   22u220d2       -0.076141       0.005797
         161  ( 3:1:   1/   7)   u2d22220        0.117259       0.013750
         219  ( 4:1:   1/   4)   2uu222dd        0.060325       0.003639
         294  ( 5:1:   2/  15)   20u222d2        0.087309       0.007623
 
  The CI coefficients for the MIXED state nr.   4
--------------------------------------------------------------------------------
 CI COEFFICIENTS LARGER THAN  0.50D-01
  Occupation of active orbitals, and spin coupling
  of open shells. (u,d: Spin up or down).
  SGUGA info is (Midvert:IsyUp:UpperWalk/LowerWalk)
        Conf  SGUGA info        Occupation    Coefficient         Weight
           2  ( 1:1:   2/   1)   22222ud0       -0.204537       0.041835
           3  ( 1:1:   3/   1)   2222u2d0        0.667524       0.445589
           6  ( 1:1:   6/   1)   22220220       -0.059246       0.003510
           7  ( 1:1:   7/   1)   22222u0d        0.611656       0.374123
          12  ( 1:1:  12/   1)   2222uudd        0.066521       0.004425
          14  ( 1:1:  14/   1)   22220u2d        0.054129       0.002930
          15  ( 1:1:  15/   1)   22222002       -0.122094       0.014907
          18  ( 1:1:  18/   1)   2222u0d2        0.053660       0.002879
          68  ( 2:1:   8/   3)   2u22u2dd       -0.050242       0.002524
          73  ( 2:1:  13/   3)   2u222d02        0.159806       0.025538
          81  ( 2:1:   1/   4)   u22222d0        0.104318       0.010882
          83  ( 2:1:   3/   4)   u222d220       -0.155550       0.024196
          87  ( 2:1:   7/   4)   u2222udd       -0.061711       0.003808
         175  ( 3:1:   5/   8)   20222202        0.067735       0.004588
         177  ( 3:1:   7/   8)   2022u2d2       -0.065707       0.004317
         193  ( 3:1:   3/  10)   02222u2d        0.051690       0.002672
 
  The CI coefficients for the MIXED state nr.   5
--------------------------------------------------------------------------------
 CI COEFFICIENTS LARGER THAN  0.50D-01
  Occupation of active orbitals, and spin coupling
  of open shells. (u,d: Spin up or down).
  SGUGA info is (Midvert:IsyUp:UpperWalk/LowerWalk)
        Conf  SGUGA info        Occupation    Coefficient         Weight
           2  ( 1:1:   2/   1)   22222ud0       -0.163672       0.026789
           3  ( 1:1:   3/   1)   2222u2d0       -0.664259       0.441240
           7  ( 1:1:   7/   1)   22222u0d        0.625117       0.390771
          12  ( 1:1:  12/   1)   2222uudd       -0.063764       0.004066
          14  ( 1:1:  14/   1)   22220u2d        0.059645       0.003557
          15  ( 1:1:  15/   1)   22222002       -0.122975       0.015123
          18  ( 1:1:  18/   1)   2222u0d2       -0.058783       0.003455
          21  ( 2:1:   1/   1)   222u22d0        0.054668       0.002989
          41  ( 2:1:   1/   2)   22u222d0       -0.109299       0.011946
          73  ( 2:1:  13/   3)   2u222d02        0.164769       0.027149
          83  ( 2:1:   3/   4)   u222d220        0.177716       0.031583
          87  ( 2:1:   7/   4)   u2222udd       -0.058138       0.003380
         175  ( 3:1:   5/   8)   20222202        0.070053       0.004907
         177  ( 3:1:   7/   8)   2022u2d2        0.061774       0.003816
 
  The CI coefficients for the MIXED state nr.   6
--------------------------------------------------------------------------------
 CI COEFFICIENTS LARGER THAN  0.50D-01
  Occupation of active orbitals, and spin coupling
  of open shells. (u,d: Spin up or down).
  SGUGA info is (Midvert:IsyUp:UpperWalk/LowerWalk)
        Conf  SGUGA info        Occupation    Coefficient         Weight
           2  ( 1:1:   2/   1)   22222ud0       -0.855414       0.731733
           5  ( 1:1:   5/   1)   2222ud20        0.057569       0.003314
           7  ( 1:1:   7/   1)   22222u0d       -0.270899       0.073386
          21  ( 2:1:   1/   1)   222u22d0       -0.062985       0.003967
          41  ( 2:1:   1/   2)   22u222d0       -0.295524       0.087334
          65  ( 2:1:   5/   3)   2u222dud       -0.142385       0.020273
          67  ( 2:1:   7/   3)   2u222udd        0.201643       0.040660
          73  ( 2:1:  13/   3)   2u222d02       -0.068880       0.004744
         176  ( 3:1:   6/   8)   20222ud2        0.123288       0.015200
 
  The CI coefficients for the MIXED state nr.   7
--------------------------------------------------------------------------------
 CI COEFFICIENTS LARGER THAN  0.50D-01
  Occupation of active orbitals, and spin coupling
  of open shells. (u,d: Spin up or down).
  SGUGA info is (Midvert:IsyUp:UpperWalk/LowerWalk)
        Conf  SGUGA info        Occupation    Coefficient         Weight
           7  ( 1:1:   7/   1)   22222u0d        0.081780       0.006688
          21  ( 2:1:   1/   1)   222u22d0       -0.878645       0.772018
          24  ( 2:1:   4/   1)   222u220d       -0.130441       0.017015
          25  ( 2:1:   5/   1)   222u2dud       -0.228484       0.052205
          27  ( 2:1:   7/   1)   222u2udd        0.314475       0.098895
          41  ( 2:1:   1/   2)   22u222d0        0.053292       0.002840
         112  ( 3:1:   2/   2)   22ud22ud        0.082591       0.006821
         201  ( 4:1:   1/   1)   22uu22dd        0.082462       0.006800
         210  ( 4:1:   4/   2)   2u2u2dd2       -0.080515       0.006483
         262  ( 5:1:   2/   7)   202u22d2        0.079208       0.006274
 
--
 
--- Stop Module: caspt2 at Wed Nov 13 21:11:28 2024 /rc=_RC_ALL_IS_WELL_ ---
*** files: xmldump
    saved to directory /home/pcaah4
--- Module caspt2 spent 6 minutes 47 seconds ---

.##################.
.# Happy landing! #.
.##################.

    Timing: Wall=650.26 User=566.80 System=74.45
******************************************************
*** WorkDir at /srv/COMMUNAL_SCRATCH/10405 cleaned ***
******************************************************
