   This run of MOLCAS is using the pymolcas driver

                             OPE
                             OPE          NMOL  CASOP  ENMOLC A   SO
                 OPE        NMOLC        AS  OP EN  MO LC     AS  OP
                OPENM       OL CA        SO  PE NM  OL CA     SOP EN
                OP EN      MO   LC       AS  OP ENMOL  CASO   PENMOL
                OP  EN     MO   LC       AS  OP EN     MO     LC ASO
               OP   E  NMOL  C  AS       OP  EN MO     LC     AS  OP
               OP  E   NMO   LC AS        OPEN  MO     LCASOP EN   M
               O  PEN   MO  LCA  SO
            OPE   NMO   L   CAS    OP
        OPENMOL  CASOP     ENMOL   CASOPE
     OPENMOLCA   SOPENMOLCASOPEN   MOLCASOPE
    OPENMOLCAS   OP           EN   MOL    CAS
    OPENMOLCAS       OP  ENM        O     LCA
    OPENMOLCAS    OPEN  MOLCASO     P  E  NMO
    OPENMOLCAS     OP               E  N  MOL
    OPENMOLCA   SO           PENM   O  L  CAS    OPEN    MO    LCAS
    OPENMOLCA   SOP           ENM   O  L  CAS   OP  EN  MOLC  AS   O
    OPENMOLCA   SOPE           NM      O  LCA   S      OP  EN MO
    OPENMOLC                AS         O  PEN   M      OL  CA  SOPE
    OPENMO        LCASOPE  NMOL        C  ASO   P      ENMOLC     AS
    OPE     NMO      LCA  SO     P     E   NM   OL  CA SO  PE N   MO
          OPENMOLCA            SOPE   NMO        LCAS  O    P  ENMO
     OPENMOLCASOPENMOLCASOPENMOLCASOPENMOLCA
        OPENMOLCASOPENMOLCASOPENMOLCASOPE
            OPENMOLCASOPENMOLCASOPENM
               OPENMOLCASOPENMOLCA        version: v23.06
                   OPENMOLCASO
                       OPE                tag:

 OpenMolcas is free software; you can redistribute it and/or modify it
 under the terms of the GNU Lesser General Public License version 2.1.
 OpenMolcas is distributed in the hope that it will be useful, but it
 is provided "as is" and without any express or implied warranties.
 For more details see the full text of the license in the file
 LICENSE or in <http://www.gnu.org/licenses/>.

                 Copyright (C) The OpenMolcas Authors
           For the author list and the recommended citation,
                   consult the file CONTRIBUTORS.md

           *************************************************
           * pymolcas version py2.24                       *
           *   build 4567b286dd94b1984b333a4ddf893180      *
           *   (after the EMIL interpreter by V. Veryazov) *
           *************************************************

configuration info
------------------
Host name: loginchem01.nottingham.ac.uk (Linux)
C Compiler ID: Intel
C flags: -std=gnu99 -gcc-sys -qopenmp
Fortran Compiler ID: Intel
Fortran flags: -fpp -i8 -heap-arrays -qopenmp
Definitions: _MOLCAS_;_I8_;_LINUX_
Parallel: OFF (GA=OFF)


   ------------------------------------------------------------------------------------------------------------
  |
  |              Project: orca_geometry_optimisation_210_120_BP86_def2-SVP_def2J_scf_cas1_ras12i11_cas2_ras12i8
  |       Submitted from: /home/pcaah4
  |         Scratch area: /srv/COMMUNAL_SCRATCH/10403
  |      Save outputs to: /home/pcaah4
  |               Molcas: /software/chemistry/openmolcas/openmolcas-23.06-openmp
  |
  | Scratch area is empty
  |
  |       MOLCAS_DRIVER = /software/chemistry/openmolcas/openmolcas-23.06-openmp/sbin/pymolcas
  | MOLCAS_KEEP_WORKDIR = NO
  |       MOLCAS_NPROCS = 1
  |       MOLCAS_SOURCE = /software/chemistry/openmolcas/openmolcas-23.06-openmp
  |    MOLCAS_STRUCTURE = 0
  |
   ------------------------------------------------------------------------------------------------------------

++ ---------   Input file   ---------

&SEWARD
TITLE
orca_geometry_optimisation_210_120_BP86_def2-SVP_def2J_scf_cas1_ras12i11
MULTIPOLES
2
SDIPOLE
ANGMOM
0 0 0
BASIS SET
C.ANO-S...4S3P1D.
C1            0.006473   -0.033915   -0.005623 /Angstrom
C3            2.150351    1.199580   -0.019586 /Angstrom
C4            3.477061    0.938511   -0.743312 /Angstrom
C6            4.898970    1.569013   -2.668239 /Angstrom
C19          -0.638447   -1.411194    0.111882 /Angstrom
END OF BASIS
BASIS SET
N.ANO-S...4S3P1D.
N2            1.381852   -0.031163   -0.005429 /Angstrom
N5            3.700150    1.698326   -1.860210 /Angstrom
END OF BASIS
BASIS SET
O.ANO-S...4S3P1D.
O7           -0.655668    0.999068   -0.106165 /Angstrom
O8            4.242434    0.056807   -0.347669 /Angstrom
END OF BASIS
BASIS SET
H.ANO-S...2S1P.
H9           -1.237603   -1.445126    1.044022 /Angstrom
H10          -1.345734   -1.544474   -0.730220 /Angstrom
H11           0.084145   -2.250698    0.116828 /Angstrom
H12           1.913156   -0.888949    0.164194 /Angstrom
H13           1.517593    1.979300   -0.489210 /Angstrom
H14           2.393391    1.546691    1.012470 /Angstrom
H15           2.996539    2.390191   -2.121636 /Angstrom
H16           4.656360    1.282843   -3.713628 /Angstrom
H17           5.486721    2.511462   -2.687297 /Angstrom
H18           5.514679    0.770854   -2.211917 /Angstrom
END OF BASIS
END OF INPUT

&RASSCF
TITLE
orca_geometry_optimisation_210_120_BP86_def2-SVP_def2J_scf_cas1_ras12i11
LUMORB
SPIN
1
SYMMETRY
1
NACTEL
12  0  0
INACTIVE
29
DELETED  ! delete Rydberg orbitals from an initial CAS(12,11) if done
3
FROZEN
0
RAS2
8
ITERATIONS
64 25
CIROOT
7 7
1 2 3 4 5 6 7
1 1 1 1 1 1 1
LEVSHFT
0.3
CIMX
20
FILEorb = /home/pcaah4/outputs/cas1_ras12i11_rasorb_files/orca_geometry_optimisation_210_120_BP86_def2-SVP_def2J_scf_cas1_ras12i11.RasOrb
ALTEr
3
 1 38 210
 1 39 211
 1 40 212
END OF INPUT

&RASSI
NROF JOBIPH
    1 7
    1 2 3 5 4 6 7
TOFILE
TRDI
TDMN
1.0D-6
END OF INPUT

&CASPT2
TITLE
orca_geometry_optimisation_210_120_BP86_def2-SVP_def2J_scf_cas1_ras12i11
MULTISTATE
7 1 2 3 4 5 6 7
SHIFT
0.35
MAXITER
50
END OF INPUT

-- ----------------------------------

--- Start Module: seward at Wed Nov 13 20:45:34 2024 ---
 
()()()()()()()()()()()()()()()()()()()()()()()()()()()()()()()()()()()()()()()()()()()()()()()()()()

                                              &SEWARD

                                   only a single process is used
                       available to each process: 2.0 GB of memory, 1 thread
                                            pid: 1799491
()()()()()()()()()()()()()()()()()()()()()()()()()()()()()()()()()()()()()()()()()()()()()()()()()()
 
               SEWARD will generate:
                  Multipole Moment integrals up to order  2
                  Kinetic Energy integrals
                  Nuclear Attraction integrals (point charge)
                  One-Electron Hamiltonian integrals
                  Velocity integrals
                  Orbital angular momentum around ( 0.0000  0.0000  0.0000 )
                  Velocity quadrupole around ( 3.9141  1.0426 -1.2054 )
                  Two-Electron Repulsion integrals
 
 Title:
            orca_geometry_optimisation_210_120_BP86_def2-SVP_def2J_scf_cas1_ras12i11    
 
 
                   Integrals are discarded if absolute value <: 0.10E-13
                   Integral cutoff threshold is set to       <: 0.10E-15
 
++    Symmetry information:
      ---------------------
 
                    Character Table for C1 
 
                             E  
                    a        1  x, y, xy, Rz, z, xz, Ry, yz, Rx, I
--
 
 
++    Basis set information:
      ----------------------
 
 
      Basis set label: C.ANO-S...4S3P1D......
 
      Electronic valence basis set:
      ------------------
      Associated Effective Charge   6.000000 au
      Associated Actual Charge      6.000000 au
      Nuclear Model: Point charge
 
      Shell  nPrim  nBasis  Cartesian Spherical Contaminant
         s      10       4        X                  
         p       6       3        X                  
         d       3       1                 X         
 
 
      Basis set label: N.ANO-S...4S3P1D......
 
      Electronic valence basis set:
      ------------------
      Associated Effective Charge   7.000000 au
      Associated Actual Charge      7.000000 au
      Nuclear Model: Point charge
 
      Shell  nPrim  nBasis  Cartesian Spherical Contaminant
         s      10       4        X                  
         p       6       3        X                  
         d       3       1                 X         
 
 
      Basis set label: O.ANO-S...4S3P1D......
 
      Electronic valence basis set:
      ------------------
      Associated Effective Charge   8.000000 au
      Associated Actual Charge      8.000000 au
      Nuclear Model: Point charge
 
      Shell  nPrim  nBasis  Cartesian Spherical Contaminant
         s      10       4        X                  
         p       6       3        X                  
         d       3       1                 X         
 
 
      Basis set label: H.ANO-S...2S1P......
 
      Electronic valence basis set:
      ------------------
      Associated Effective Charge   1.000000 au
      Associated Actual Charge      1.000000 au
      Nuclear Model: Point charge
 
      Shell  nPrim  nBasis  Cartesian Spherical Contaminant
         s       7       2        X                  
         p       3       1        X                  
--
 
 
++    Molecular structure info:
      -------------------------
 
                    ************************************************ 
                    **** Cartesian Coordinates / Bohr, Angstrom **** 
                    ************************************************ 
 
     Center  Label                x              y              z                     x              y              z
        1      C1               0.012232      -0.064090      -0.010626              0.006473      -0.033915      -0.005623
        2      C3               4.063574       2.266878      -0.037012              2.150351       1.199580      -0.019586
        3      C4               6.570693       1.773529      -1.404656              3.477061       0.938511      -0.743312
        4      C6               9.257712       2.965005      -5.042241              4.898970       1.569013      -2.668239
        5      C19             -1.206490      -2.666770       0.211426             -0.638447      -1.411194       0.111882
        6      N2               2.611322      -0.058890      -0.010259              1.381852      -0.031163      -0.005429
        7      N5               6.992270       3.209371      -3.515287              3.700150       1.698326      -1.860210
        8      O7              -1.239033       1.887965      -0.200623             -0.655668       0.999068      -0.106165
        9      O8               8.017038       0.107350      -0.656999              4.242434       0.056807      -0.347669
       10      H9              -2.338731      -2.730892       1.972916             -1.237603      -1.445126       1.044022
       11      H10             -2.543069      -2.918633      -1.379916             -1.345734      -1.544474      -0.730220
       12      H11              0.159011      -4.253203       0.220773              0.084145      -2.250698       0.116828
       13      H12              3.615341      -1.679870       0.310282              1.913156      -0.888949       0.164194
       14      H13              2.867835       3.740335      -0.924473              1.517593       1.979300      -0.489210
       15      H14              4.522853       2.922822       1.913291              2.393391       1.546691       1.012470
       16      H15              5.662638       4.516806      -4.009311              2.996539       2.390191      -2.121636
       17      H16              8.799245       2.424222      -7.017740              4.656360       1.282843      -3.713628
       18      H17             10.368400       4.745975      -5.078255              5.486721       2.511462      -2.687297
       19      H18             10.421233       1.456703      -4.179917              5.514679       0.770854      -2.211917
 
                    ************************************************* 
                    **** InterNuclear Distances / Bohr, Angstrom **** 
                    ************************************************* 
 
     Atom centers         Bohr        Angstrom
   16 H15       7 N5      1.929085        1.020828
   13 H12       6 N2      1.933489        1.023158
   19 H18       4 C6      2.091019        1.106519
   12 H11       5 C19     2.093191        1.107669
   11 H10       5 C19     2.093382        1.107770
   14 H13       2 C3      2.094864        1.108554
   10 H9        5 C19     2.094976        1.108614
   17 H16       4 C6      2.098865        1.110671
   18 H17       4 C6      2.099234        1.110867
   15 H14       2 C3      2.108289        1.115659
    8 O7        1 C1      2.326431        1.231094
    9 O8        3 C4      2.329605        1.232774
    7 N5        3 C4      2.587303        1.369142
    6 N2        1 C1      2.599095        1.375382
    6 N2        2 C3      2.742070        1.451041
    7 N5        4 C6      2.742905        1.451483
    5 C19       1 C1      2.882453        1.525328
    3 C4        2 C3      2.898187        1.533654
   11 H10      10 H9      3.364295        1.780308
   15 H14      14 H13     3.385309        1.791428
   18 H17      17 H16     3.407989        1.803430
   19 H18      17 H16     3.408838        1.803879
   12 H11      10 H9      3.409714        1.804343
   19 H18      18 H17     3.410149        1.804573
   12 H11      11 H10     3.412406        1.805768
   16 H15       3 C4      3.890291        2.058653
   19 H18       7 N5      3.907859        2.067950
   14 H13       6 N2      3.916081        2.072301
   13 H12       1 C1      3.961833        2.096512
   13 H12       2 C3      3.987273        2.109974
   17 H16       7 N5      4.018556        2.126528
   18 H17       7 N5      4.025205        2.130047
   15 H14       6 N2      4.030460        2.132827
   16 H15       4 C6      4.049640        2.142977
   15 H14       3 C4      4.064886        2.151045
   11 H10       1 C1      4.068529        2.152973
   10 H9        1 C1      4.071032        2.154297
   12 H11       1 C1      4.198066        2.221521
   14 H13       3 C4      4.220197        2.233232
   16 H15      14 H13     4.234390        2.240743
   13 H12      12 H11     4.310020        2.280764
    8 O7        6 N2      4.318763        2.285391
    9 O8        7 N5      4.340795        2.297050
   19 H18       9 O8      4.473462        2.367254
    9 O8        2 C3      4.547287        2.406321
   14 H13       8 O7      4.563069        2.414672
    8 O7        5 C19     4.573451        2.420166
    6 N2        3 C4      4.580253        2.423766
    6 N2        5 C19     4.628809        2.449460
    7 N5        2 C3      4.643700        2.457340
    2 C3        1 C1      4.674129        2.473442
    4 C6        3 C4      4.676720        2.474814
   19 H18       3 C4      4.757007        2.517299
   17 H16      16 H15     4.823677        2.552580
   18 H17      16 H15     4.831082        2.556499
   16 H15       2 C3      4.837183        2.559727
   14 H13       1 C1      4.843886        2.563274
   13 H12       9 O8      4.848167        2.565540
   13 H12       3 C4      4.858094        2.570793
   12 H11       6 N2      4.864100        2.573971
   14 H13       7 N5      4.899511        2.592709
   13 H12       5 C19     4.922783        2.605025
   15 H14      13 H12     4.957620        2.623460
   11 H10       8 O7      5.118068        2.708365
   15 H14       9 O8      5.171325        2.736548
   10 H9        8 O7      5.221824        2.763270
    8 O7        2 C3      5.318645        2.814506
    9 O8        4 C6      5.379201        2.846551
    9 O8        6 N2      5.446804        2.882325
   14 H13      13 H12     5.609100        2.968208
   19 H18      16 H15     5.660174        2.995235
--
 
 
            Nuclear Potential Energy            447.21735003 au
 
 
      Basis set specifications :
      Symmetry species         a  
      Basis functions          212
 
 
      Input file to MOLDEN was generated!
 
--- Stop Module: seward at Wed Nov 13 20:47:21 2024 /rc=_RC_ALL_IS_WELL_ ---
*** files: orca_geometry_optimisation_210_120_BP86_def2-SVP_def2J_scf_cas1_ras12i11_cas2_ras12i8.GssOrb
           orca_geometry_optimisation_210_120_BP86_def2-SVP_def2J_scf_cas1_ras12i11_cas2_ras12i8.guessorb.molden xmldump
    saved to directory /home/pcaah4
--- Module seward spent 1 minute 47 seconds ---

*** symbolic link created: INPORB -> orca_geometry_optimisation_210_120_BP86_def2-SVP_def2J_scf_cas1_ras12i11_cas2_ras12i8.GssOrb
--- Start Module: rasscf at Wed Nov 13 20:47:22 2024 ---
 
()()()()()()()()()()()()()()()()()()()()()()()()()()()()()()()()()()()()()()()()()()()()()()()()()()

                                              &RASSCF

                                   only a single process is used
                       available to each process: 2.0 GB of memory, 1 thread
                                            pid: 1799794
()()()()()()()()()()()()()()()()()()()()()()()()()()()()()()()()()()()()()()()()()()()()()()()()()()
 
 
      Header of the ONEINT file:
      --------------------------
      orca_geometry_optimisation_210_120_BP86_def2-SVP_def2J_scf_cas1_ras12i11
      Integrals generated by Gateway/Seward, Wed Nov 13 20:45:34 2024
 
 
      OrdInt status: non-squared
 
 
      Cartesian coordinates in Angstrom:
      -----------------------------------------------------
      No.  Label        X            Y            Z        
      -----------------------------------------------------
       1   C1         0.00647300  -0.03391500  -0.00562300
       2   C3         2.15035100   1.19958000  -0.01958600
       3   C4         3.47706100   0.93851100  -0.74331200
       4   C6         4.89897000   1.56901300  -2.66823900
       5   C19       -0.63844700  -1.41119400   0.11188200
       6   N2         1.38185200  -0.03116300  -0.00542900
       7   N5         3.70015000   1.69832600  -1.86021000
       8   O7        -0.65566800   0.99906800  -0.10616500
       9   O8         4.24243400   0.05680700  -0.34766900
      10   H9        -1.23760300  -1.44512600   1.04402200
      11   H10       -1.34573400  -1.54447400  -0.73022000
      12   H11        0.08414500  -2.25069800   0.11682800
      13   H12        1.91315600  -0.88894900   0.16419400
      14   H13        1.51759300   1.97930000  -0.48921000
      15   H14        2.39339100   1.54669100   1.01247000
      16   H15        2.99653900   2.39019100  -2.12163600
      17   H16        4.65636000   1.28284300  -3.71362800
      18   H17        5.48672100   2.51146200  -2.68729700
      19   H18        5.51467900   0.77085400  -2.21191700
      -----------------------------------------------------
      Nuclear repulsion energy =  447.21735003
 
++    Wave function specifications:
      -----------------------------
 
      Number of closed shell electrons          58
      Number of electrons in active shells      12
      Max number of holes in RAS1 space          0
      Max nr of electrons in RAS3 space          0
      Number of inactive orbitals               29
      Number of active orbitals                  8
      Number of secondary orbitals             172
      Spin quantum number                      0.0
      State symmetry                             1
--
 
++    Orbital specifications:
      -----------------------
 
      Symmetry species                           1
                                                 a
      Frozen orbitals                            0
      Inactive orbitals                         29
      Active orbitals                            8
      RAS1 orbitals                              0
      RAS2 orbitals                              8
      RAS3 orbitals                              0
      Secondary orbitals                       172
      Deleted orbitals                           3
      Number of basis functions                212
--
 
++    CI expansion specifications:
      ----------------------------
 
      Number of CSFs                           336
      Number of determinants                   406
      Number of root(s) required                 7
      Root chosen for geometry opt.              7
      CI roots used                              1     2     3     4     5     6     7
      weights                                0.143 0.143 0.143 0.143 0.143 0.143 0.143
      highest root included in the CI            7
      max. size of the explicit Hamiltonian    200
--
 
++    Optimization specifications:
      ----------------------------
 
      RASSCF algorithm: Conventional
      Maximum number of macro iterations        64
      Maximum number of SX iterations           25
      Threshold for RASSCF energy            0.100E-07
      Threshold for max MO rotation          0.100E+00
      Threshold for max BLB element          0.100E-03
      Level shift parameter                  0.300E+00
      Make Quasi-Newton update
--
 
      The MO-coefficients are taken from the file:
      /home/pcaah4/outputs/cas1_ras12i11_rasorb_files/orca_geometry_optimisation_210_120_BP86_def2-SVP_def2J_scf_cas1_ras12i11.RasOrb                                                                                                                                 
      Title: RASSCF average (pseudo-natural) orbitals                                      
 
      Total molecular charge    0.00
 
      Molecular orbitals exchanged:
        In symmetry  1 :  38 210
        In symmetry  1 :  39 211
        In symmetry  1 :  40 212
 
 
      ************************************************************************************************************************
      *                                                                                                                      *
      *                                            Wave function control section                                             *
      *                                                                                                                      *
      ************************************************************************************************************************
 
 
                                         RASSCF iterations: Energy and convergence statistics
                                         ----------------------------------------------------
 
      Iter CI   SX   CI       RASSCF       Energy    max ROT     max BLB   max BLB  Level Ln srch  Step   QN   Walltime
          iter iter root      energy       change     param      element    value   shift minimum  type update hh:mm:ss
 Nr of preliminary CI iterations:   4
        1   1   25    0  -453.68930091    0.00E+00   0.34E-01   18  67 1  0.16E-01*  0.14   0.00    SX    NO    0:00:13
        2   5   10    0  -453.70295859   -0.14E-01* -0.16E-01   34 113 1 -0.76E-02*  0.13   0.00    SX    NO    0:00:06
        3   3   10    0  -453.70482947   -0.19E-02* -0.11E-01   25  66 1 -0.43E-02*  0.14   0.00    SX    NO    0:00:06
        4   5   10    0  -453.70588945   -0.11E-02* -0.79E-02   25  83 1  0.17E-02*  0.14   0.00    SX    NO    0:00:06
        5   5    9    0  -453.70609297   -0.20E-03* -0.91E-02   21  83 1 -0.11E-02*  0.15   1.23    QN   YES    0:00:07
        6   5    9    0  -453.70619538   -0.10E-03* -0.13E-02   34 113 1  0.59E-03*  0.15   0.99    QN   YES    0:00:06
        7   3    8    0  -453.70619923   -0.39E-05*  0.12E-02   21  98 1  0.54E-03*  0.15   0.74    QN   YES    0:00:06
        8   5    8    0  -453.70620197   -0.27E-05* -0.33E-03   21  99 1 -0.16E-03*  0.15   1.14    QN   YES    0:00:06
        9   3    7    0  -453.70620273   -0.75E-06*  0.37E-03   21  98 1  0.13E-03*  0.15   1.24    QN   YES    0:00:06
       10   5    7    0  -453.70620299   -0.26E-06* -0.65E-04   34 113 1  0.34E-04   0.15   0.90    QN   YES    0:00:06
       11   1    6    0  -453.70620300   -0.15E-07* -0.76E-04   21  98 1  0.30E-04   0.15   0.86    QN   YES    0:00:06
       12   1    6    0  -453.70620301   -0.10E-07* -0.27E-04   21  98 1  0.13E-04   0.15   1.15    QN   YES    0:00:06
       13   1    5    0  -453.70620301   -0.23E-08  -0.14E-04   21  98 1  0.33E-05   0.15   1.30    QN   YES    0:00:06
      Convergence after 13 iterations
       14   1    5    0  -453.70620301   -0.38E-09  -0.14E-04   34  50 1 -0.64E-06   0.15   1.30    QN   YES    0:00:06
 
      ************************************************************************************************************************
                                                      Wave function printout:
                       occupation of active orbitals, and spin coupling of open shells (u,d: Spin up or down)
      ************************************************************************************************************************
 
      Note: transformation to natural orbitals
      has been made, which may change the order of the CSFs.
 
      printout of CI-coefficients larger than  0.05 for root  1
      energy=    -453.959050
      conf/sym  11111111     Coeff  Weight
             1  22222200  -0.96305 0.92747
             6  22220220   0.08701 0.00757
             7  22222u0d  -0.13223 0.01749
            15  22222002   0.07734 0.00598
            64  2u22220d   0.07829 0.00613
            73  2u222d02  -0.06105 0.00373
            81  u22222d0  -0.09863 0.00973
           175  20222202   0.09924 0.00985
           191  02222220   0.07764 0.00603
 
      printout of CI-coefficients larger than  0.05 for root  2
      energy=    -453.745404
      conf/sym  11111111     Coeff  Weight
            21  222u22d0   0.11488 0.01320
            24  222u220d  -0.95493 0.91188
            32  222u022d   0.08464 0.00716
            33  222u2d02   0.08974 0.00805
           115  22ud2202  -0.05099 0.00260
           125  2u2d2202  -0.18239 0.03327
           213  u22u22dd   0.08141 0.00663
           269  022u222d  -0.07791 0.00607
 
      printout of CI-coefficients larger than  0.05 for root  3
      energy=    -453.736231
      conf/sym  11111111     Coeff  Weight
             2  22222ud0  -0.22481 0.05054
             3  2222u2d0   0.06594 0.00435
            21  222u22d0  -0.05939 0.00353
            41  22u222d0  -0.92073 0.84774
            43  22u2d220  -0.17139 0.02937
            45  22u22dud  -0.06171 0.00381
            47  22u22udd   0.10430 0.01088
            55  22u220d2  -0.07859 0.00618
           161  u2d22220   0.12163 0.01479
           219  2uu222dd   0.06530 0.00426
           222  2uu22dd2  -0.05027 0.00253
           294  20u222d2   0.09443 0.00892
 
      printout of CI-coefficients larger than  0.05 for root  4
      energy=    -453.643903
      conf/sym  11111111     Coeff  Weight
             1  22222200   0.06474 0.00419
             2  22222ud0   0.22989 0.05285
             3  2222u2d0   0.86132 0.74187
             7  22222u0d  -0.29027 0.08425
            12  2222uudd  -0.08508 0.00724
            15  22222002  -0.06575 0.00432
            18  2222u0d2   0.07239 0.00524
            68  2u22u2dd  -0.06395 0.00409
            73  2u222d02  -0.07239 0.00524
            81  u22222d0   0.08876 0.00788
            83  u222d220  -0.21455 0.04603
           177  2022u2d2  -0.08748 0.00765
 
      printout of CI-coefficients larger than  0.05 for root  5
      energy=    -453.636717
      conf/sym  11111111     Coeff  Weight
             1  22222200   0.05143 0.00264
             2  22222ud0   0.76041 0.57823
             3  2222u2d0  -0.33920 0.11506
             7  22222u0d  -0.38547 0.14859
            15  22222002  -0.08976 0.00806
            21  222u22d0  -0.07870 0.00619
            41  22u222d0  -0.20770 0.04314
            65  2u222dud   0.11812 0.01395
            67  2u222udd  -0.15678 0.02458
            73  2u222d02  -0.09831 0.00967
            83  u222d220   0.10207 0.01042
           176  20222ud2  -0.10411 0.01084
 
      printout of CI-coefficients larger than  0.05 for root  6
      energy=    -453.619496
      conf/sym  11111111     Coeff  Weight
             1  22222200  -0.09351 0.00874
             2  22222ud0   0.44120 0.19466
             3  2222u2d0   0.17002 0.02891
             7  22222u0d   0.74889 0.56084
            14  22220u2d   0.07020 0.00493
            15  22222002   0.15065 0.02270
            21  222u22d0  -0.26411 0.06975
            25  222u2dud   0.06265 0.00393
            27  222u2udd  -0.09102 0.00828
            41  22u222d0  -0.06023 0.00363
            65  2u222dud   0.07140 0.00510
            67  2u222udd  -0.11343 0.01287
            73  2u222d02   0.19074 0.03638
            87  u2222udd  -0.07300 0.00533
           175  20222202  -0.08407 0.00707
           176  20222ud2  -0.07130 0.00508
           193  02222u2d   0.05605 0.00314
 
      printout of CI-coefficients larger than  0.05 for root  7
      energy=    -453.602620
      conf/sym  11111111     Coeff  Weight
             2  22222ud0  -0.17976 0.03231
             7  22222u0d  -0.20370 0.04149
            21  222u22d0  -0.84530 0.71453
            24  222u220d  -0.10921 0.01193
            25  222u2dud   0.21677 0.04699
            27  222u2udd  -0.30726 0.09441
            41  22u222d0   0.09575 0.00917
            73  2u222d02  -0.05141 0.00264
           112  22ud22ud   0.07088 0.00502
           201  22uu22dd   0.07430 0.00552
           210  2u2u2dd2   0.07665 0.00588
           262  202u22d2   0.07687 0.00591
 
      Natural orbitals and occupation numbers for root  1
      sym 1:   1.970853   1.995535   1.999867   1.999824   1.994031   1.956509   0.035245   0.048136
 
      Natural orbitals and occupation numbers for root  2
      sym 1:   1.970784   1.999744   1.999046   1.005407   1.994516   1.999398   0.035760   0.995345
 
      Natural orbitals and occupation numbers for root  3
      sym 1:   1.999835   1.994082   1.003636   1.998709   1.999050   1.955767   0.998787   0.050133
 
      Natural orbitals and occupation numbers for root  4
      sym 1:   1.970229   1.962489   1.999406   1.999698   1.122400   1.876733   0.916531   0.152514
 
      Natural orbitals and occupation numbers for root  5
      sym 1:   1.988814   1.920935   1.997805   1.998516   1.944786   1.060460   0.965664   0.123021
 
      Natural orbitals and occupation numbers for root  6
      sym 1:   1.989953   1.947645   1.997585   1.921063   1.982097   1.078261   0.145525   0.937870
 
      Natural orbitals and occupation numbers for root  7
      sym 1:   1.999288   1.984477   1.990865   1.149178   1.995983   1.896252   0.862080   0.121877
 
      ************************************************************************************************************************
      *                                                                                                                      *
      *                                                    Final results                                                     *
      *                                                                                                                      *
      ************************************************************************************************************************
 
 
++    Wave function specifications:
      -----------------------------
 
      Number of closed shell electrons          58
      Number of electrons in active shells      12
      Max number of holes in RAS1 space          0
      Max nr of electrons in RAS3 space          0
      Number of inactive orbitals               29
      Number of active orbitals                  8
      Number of secondary orbitals             172
      Spin quantum number                      0.0
      State symmetry                             1
--
 
++    Orbital specifications:
      -----------------------
 
      Symmetry species                           1
                                                 a
      Frozen orbitals                            0
      Inactive orbitals                         29
      Active orbitals                            8
      RAS1 orbitals                              0
      RAS2 orbitals                              8
      RAS3 orbitals                              0
      Secondary orbitals                       172
      Deleted orbitals                           3
      Number of basis functions                212
--
 
++    CI expansion specifications:
      ----------------------------
 
      Number of CSFs                           336
      Number of determinants                   406
      Number of root(s) required                 7
      CI roots used                              1     2     3     4     5     6     7
      weights                                0.143 0.143 0.143 0.143 0.143 0.143 0.143
      highest root included in the CI            7
      Root passed to geometry opt.               7
--
 
++    Final optimization conditions:
      ------------------------------
 
      Average CI energy                            -453.70620301
      RASSCF energy for state  7                   -453.60262014
      Super-CI energy                                -0.00000000
      RASSCF energy change                            0.00000000
      Max change in MO coefficients              -0.123E-04
      Max non-diagonal density matrix element    -0.141E-04
      Maximum BLB matrix element                 -0.641E-06
      (orbital pair  34,  50 in symmetry   1)
      Norm of electronic gradient            0.350E+00
--
 
 
      Final state energy(ies):
      ------------------------
 
::    RASSCF root number  1 Total energy:   -453.95905038
::    RASSCF root number  2 Total energy:   -453.74540406
::    RASSCF root number  3 Total energy:   -453.73623094
::    RASSCF root number  4 Total energy:   -453.64390278
::    RASSCF root number  5 Total energy:   -453.63671663
::    RASSCF root number  6 Total energy:   -453.61949616
::    RASSCF root number  7 Total energy:   -453.60262014
 
++    Molecular orbitals:
      -------------------
 
      Pseudonatural active orbitals and approximate occupation numbers
 
 
 
 
      Molecular orbitals for symmetry species 1: a  
 
 
      Orbital                 1         2         3         4         5         6         7         8         9        10
      Energy           -20.6081  -20.5139  -15.6365  -15.5794  -11.3429  -11.2886  -11.2813  -11.2605  -11.2587   -1.4273
      Occ. No.           2.0000    2.0000    2.0000    2.0000    2.0000    2.0000    2.0000    2.0000    2.0000    2.0000
 
     1 C1     1s         0.0003   -0.0001   -0.0003   -0.0001    0.9999    0.0001   -0.0000   -0.0001   -0.0037   -0.0388
     2 C1     2s         0.0011   -0.0004   -0.0013   -0.0005    0.0020   -0.0005   -0.0000   -0.0005   -0.0007    0.3545
     3 C1     3s        -0.0003   -0.0003   -0.0006   -0.0004   -0.0003   -0.0005   -0.0001   -0.0004   -0.0009   -0.0036
     4 C1     4s        -0.0003   -0.0001   -0.0001   -0.0001    0.0012   -0.0002   -0.0000   -0.0001   -0.0003    0.0039
     5 C1     2px       -0.0013   -0.0000   -0.0017   -0.0004    0.0011   -0.0000   -0.0003   -0.0002   -0.0005   -0.0410
     6 C1     3px       -0.0008    0.0000   -0.0013   -0.0005    0.0011   -0.0004   -0.0005   -0.0002    0.0000    0.0290
     7 C1     4px        0.0001    0.0000    0.0001   -0.0001    0.0004   -0.0003   -0.0002   -0.0000    0.0002   -0.0128
     8 C1     2py        0.0031   -0.0002   -0.0002   -0.0000    0.0011    0.0000   -0.0005   -0.0001   -0.0006    0.0956
     9 C1     3py        0.0020   -0.0002   -0.0002   -0.0001    0.0009   -0.0005   -0.0006   -0.0002    0.0001   -0.0696
    10 C1     4py       -0.0004   -0.0000   -0.0000   -0.0000    0.0007   -0.0004   -0.0000   -0.0000    0.0003    0.0233
    11 C1     2pz       -0.0003   -0.0002   -0.0001   -0.0001   -0.0001   -0.0000    0.0001    0.0000   -0.0000   -0.0064
    12 C1     3pz       -0.0002   -0.0003   -0.0001   -0.0002   -0.0000   -0.0000    0.0001    0.0000   -0.0001    0.0066
    13 C1     4pz        0.0000   -0.0001   -0.0000   -0.0000   -0.0000    0.0000    0.0000    0.0000   -0.0000   -0.0028
    14 C1     3d2-       0.0001    0.0000   -0.0001    0.0000   -0.0004    0.0000   -0.0000   -0.0000    0.0001   -0.0327
    15 C1     3d1-      -0.0000    0.0000   -0.0000   -0.0000   -0.0001    0.0000    0.0000    0.0000    0.0000   -0.0056
    16 C1     3d0       -0.0000   -0.0000   -0.0001    0.0000   -0.0004   -0.0001    0.0000    0.0000    0.0001   -0.0276
    17 C1     3d1+      -0.0000   -0.0000   -0.0000   -0.0000    0.0000    0.0000    0.0000   -0.0000   -0.0000    0.0034
    18 C1     3d2+       0.0001    0.0000    0.0002    0.0000   -0.0000    0.0000    0.0000    0.0000   -0.0000   -0.0110
    19 C3     1s         0.0001    0.0001   -0.0003    0.0001   -0.0001    0.9986   -0.0410    0.0000    0.0001   -0.0092
    20 C3     2s         0.0007    0.0008   -0.0018    0.0007    0.0006   -0.0015   -0.0008    0.0006    0.0007    0.0166
    21 C3     3s         0.0004    0.0004   -0.0009    0.0005    0.0003   -0.0027   -0.0007    0.0003    0.0004   -0.0177
    22 C3     4s         0.0001   -0.0000   -0.0001    0.0001   -0.0000    0.0007   -0.0002    0.0000    0.0000   -0.0017
    23 C3     2px        0.0000   -0.0002    0.0002    0.0002    0.0007   -0.0008   -0.0001    0.0001    0.0001   -0.0219
    24 C3     3px        0.0003   -0.0004   -0.0003    0.0002    0.0013   -0.0008   -0.0007   -0.0003    0.0003   -0.0127
    25 C3     4px        0.0002   -0.0001   -0.0002   -0.0001    0.0004   -0.0005   -0.0002   -0.0002    0.0001   -0.0070
    26 C3     2py       -0.0002    0.0005    0.0004   -0.0006    0.0004    0.0000    0.0002    0.0001   -0.0000   -0.0203
    27 C3     3py       -0.0001    0.0006   -0.0002   -0.0005    0.0006    0.0002    0.0001    0.0001    0.0001   -0.0064
    28 C3     4py        0.0001    0.0000   -0.0002    0.0001    0.0001   -0.0008   -0.0001    0.0000    0.0001   -0.0049
    29 C3     2pz       -0.0001   -0.0008    0.0001    0.0005   -0.0001    0.0000   -0.0000   -0.0004   -0.0001    0.0066
    30 C3     3pz       -0.0000   -0.0006    0.0003    0.0005   -0.0002   -0.0001    0.0002   -0.0005   -0.0001    0.0105
    31 C3     4pz        0.0000    0.0002    0.0001    0.0001   -0.0001   -0.0001    0.0000   -0.0000   -0.0000    0.0016
    32 C3     3d2-       0.0000    0.0001   -0.0000   -0.0000    0.0000   -0.0001   -0.0000   -0.0000    0.0000    0.0034
    33 C3     3d1-      -0.0000   -0.0001    0.0000   -0.0000   -0.0000   -0.0000    0.0001    0.0000   -0.0000    0.0001
    34 C3     3d0       -0.0000    0.0000   -0.0001   -0.0000   -0.0000    0.0001    0.0000   -0.0000   -0.0000   -0.0024
    35 C3     3d1+       0.0000   -0.0001    0.0000   -0.0000    0.0000    0.0001    0.0000   -0.0001    0.0000   -0.0007
    36 C3     3d2+      -0.0000   -0.0000   -0.0001    0.0000    0.0000    0.0000    0.0000    0.0001   -0.0000   -0.0003
    37 C4     1s        -0.0000    0.0004    0.0001    0.0002   -0.0001    0.0410    0.9992    0.0004   -0.0000    0.0002
    38 C4     2s        -0.0001    0.0013    0.0004    0.0010   -0.0010    0.0009    0.0029   -0.0004   -0.0004    0.0278
    39 C4     3s        -0.0001   -0.0001    0.0003    0.0004   -0.0009    0.0003    0.0004   -0.0003   -0.0003    0.0084
    40 C4     4s        -0.0001   -0.0002    0.0001    0.0001   -0.0003    0.0001    0.0015   -0.0001   -0.0001    0.0030
    41 C4     2px       -0.0001    0.0020   -0.0001    0.0004    0.0001   -0.0009    0.0001    0.0000    0.0002   -0.0033
    42 C4     3px       -0.0000    0.0011   -0.0001    0.0002    0.0003   -0.0002    0.0000   -0.0005    0.0003   -0.0038
    43 C4     4px        0.0000   -0.0004   -0.0001   -0.0001    0.0001    0.0002    0.0003   -0.0004    0.0001   -0.0018
    44 C4     2py       -0.0000   -0.0025   -0.0001    0.0008   -0.0002    0.0003    0.0004   -0.0003   -0.0002    0.0012
    45 C4     3py       -0.0001   -0.0018   -0.0001    0.0005   -0.0004    0.0004    0.0003   -0.0003   -0.0003    0.0078
    46 C4     4py       -0.0001    0.0003   -0.0000   -0.0001   -0.0001    0.0001   -0.0001   -0.0000   -0.0001    0.0017
    47 C4     2pz       -0.0002    0.0011   -0.0001   -0.0014   -0.0001    0.0007   -0.0007    0.0004   -0.0001    0.0035
    48 C4     3pz       -0.0003    0.0008   -0.0002   -0.0010   -0.0002    0.0005   -0.0003    0.0009   -0.0001    0.0029
    49 C4     4pz       -0.0001   -0.0001   -0.0000    0.0001   -0.0000   -0.0000   -0.0002    0.0004   -0.0000    0.0017
    50 C4     3d2-       0.0000    0.0001   -0.0001    0.0000    0.0000    0.0000   -0.0003   -0.0000    0.0000   -0.0011
    51 C4     3d1-       0.0000   -0.0000   -0.0000    0.0002    0.0000    0.0001   -0.0004   -0.0001    0.0000   -0.0013
    52 C4     3d0        0.0000    0.0000    0.0001   -0.0001   -0.0000   -0.0000   -0.0000    0.0000   -0.0000   -0.0001
    53 C4     3d1+      -0.0000   -0.0001    0.0000   -0.0000   -0.0000   -0.0000    0.0001   -0.0000   -0.0000    0.0004
    54 C4     3d2+       0.0000    0.0000    0.0000    0.0001    0.0000    0.0001   -0.0001   -0.0000    0.0000    0.0001
    55 C6     1s         0.0000    0.0001    0.0001    0.0003   -0.0000    0.0001   -0.0005    0.9997    0.0000    0.0006
    56 C6     2s         0.0000    0.0005    0.0008    0.0014   -0.0004    0.0001   -0.0003    0.0001    0.0000    0.0076
    57 C6     3s         0.0000    0.0004    0.0006    0.0003   -0.0004    0.0001   -0.0004   -0.0016   -0.0000    0.0062
    58 C6     4s        -0.0000    0.0001    0.0002   -0.0001   -0.0001   -0.0000   -0.0002    0.0009   -0.0000    0.0022
    59 C6     2px        0.0000   -0.0002   -0.0002   -0.0004    0.0003   -0.0002    0.0002   -0.0001    0.0001   -0.0056
    60 C6     3px        0.0000   -0.0002   -0.0001    0.0002    0.0003   -0.0002    0.0002    0.0002    0.0001   -0.0050
    61 C6     4px       -0.0000   -0.0000    0.0000    0.0002    0.0000    0.0000    0.0000   -0.0005   -0.0000   -0.0002
    62 C6     2py        0.0000   -0.0001    0.0002    0.0002   -0.0001   -0.0001    0.0002    0.0001    0.0000    0.0003
    63 C6     3py        0.0001   -0.0000    0.0002    0.0001   -0.0000   -0.0001    0.0003   -0.0001    0.0001   -0.0004
    64 C6     4py        0.0000    0.0000   -0.0000    0.0000    0.0000   -0.0000    0.0001    0.0000    0.0000   -0.0005
    65 C6     2pz        0.0000    0.0003    0.0002    0.0002   -0.0001   -0.0001   -0.0003   -0.0001    0.0000    0.0016
    66 C6     3pz        0.0000    0.0003    0.0002   -0.0002   -0.0001   -0.0001   -0.0005   -0.0001    0.0000    0.0019
    67 C6     4pz       -0.0000   -0.0000    0.0000   -0.0002   -0.0000   -0.0000   -0.0001    0.0004   -0.0000    0.0009
    68 C6     3d2-       0.0000   -0.0000    0.0000    0.0001   -0.0000   -0.0000    0.0000    0.0001   -0.0000    0.0001
    69 C6     3d1-      -0.0000   -0.0000    0.0000    0.0000   -0.0000    0.0000   -0.0001   -0.0000   -0.0000    0.0002
    70 C6     3d0       -0.0000    0.0000   -0.0000    0.0000   -0.0000    0.0000    0.0000    0.0000   -0.0000    0.0001
    71 C6     3d1+       0.0000   -0.0000   -0.0000    0.0001    0.0000   -0.0000   -0.0000    0.0001    0.0000   -0.0003
    72 C6     3d2+      -0.0000    0.0000    0.0000   -0.0001   -0.0000    0.0000   -0.0000   -0.0001   -0.0000    0.0003
    73 C19    1s         0.0002   -0.0000    0.0000    0.0000    0.0036    0.0002   -0.0000   -0.0000    1.0000   -0.0145
    74 C19    2s         0.0012   -0.0003    0.0001   -0.0000    0.0006    0.0008   -0.0001   -0.0002    0.0019   -0.0133
    75 C19    3s         0.0007   -0.0002   -0.0001   -0.0001    0.0002    0.0004   -0.0001   -0.0002   -0.0005   -0.0390
    76 C19    4s         0.0001   -0.0001    0.0000   -0.0001    0.0001   -0.0000   -0.0000   -0.0001    0.0012   -0.0036
    77 C19    2px        0.0008   -0.0001    0.0003   -0.0000   -0.0002    0.0002    0.0001   -0.0000   -0.0002   -0.0101
    78 C19    3px        0.0005   -0.0001    0.0002   -0.0000   -0.0003    0.0002    0.0001   -0.0000   -0.0001   -0.0079
    79 C19    4px       -0.0002    0.0000   -0.0000    0.0000   -0.0000   -0.0000    0.0000    0.0000    0.0002    0.0078
    80 C19    2py       -0.0001   -0.0001   -0.0004   -0.0001    0.0004    0.0002   -0.0001   -0.0001   -0.0003    0.0214
    81 C19    3py       -0.0002   -0.0000   -0.0003   -0.0001   -0.0001    0.0001   -0.0001   -0.0001   -0.0000   -0.0052
    82 C19    4py       -0.0002    0.0000    0.0001   -0.0000   -0.0001   -0.0001   -0.0000   -0.0000    0.0004    0.0056
    83 C19    2pz       -0.0000   -0.0001    0.0000    0.0000   -0.0001   -0.0000   -0.0000   -0.0000    0.0000   -0.0011
    84 C19    3pz        0.0000   -0.0000    0.0000    0.0000   -0.0000    0.0000   -0.0000   -0.0000    0.0000    0.0013
    85 C19    4pz        0.0000    0.0000   -0.0000    0.0000    0.0000    0.0000    0.0000    0.0000   -0.0000   -0.0004
    86 C19    3d2-       0.0001   -0.0000    0.0000   -0.0000    0.0000    0.0001    0.0000   -0.0000   -0.0001    0.0007
    87 C19    3d1-       0.0000    0.0000    0.0000   -0.0000    0.0000   -0.0000    0.0000    0.0000    0.0000   -0.0006
    88 C19    3d0       -0.0001    0.0000    0.0001    0.0000    0.0001   -0.0000   -0.0000    0.0000    0.0001    0.0015
    89 C19    3d1+       0.0000    0.0000   -0.0000    0.0000   -0.0000   -0.0000    0.0000    0.0000    0.0000   -0.0000
    90 C19    3d2+       0.0001    0.0000    0.0000    0.0000   -0.0001   -0.0000   -0.0000    0.0000    0.0001   -0.0069
    91 N2     1s         0.0000    0.0000   -0.9999   -0.0000   -0.0002    0.0001    0.0001    0.0000    0.0001   -0.0180
    92 N2     2s         0.0003    0.0000   -0.0001   -0.0002    0.0000    0.0016    0.0004    0.0001    0.0007    0.1110
    93 N2     3s         0.0002    0.0000    0.0013   -0.0001   -0.0001    0.0008    0.0004    0.0001    0.0005   -0.0488
    94 N2     4s         0.0001    0.0000   -0.0005   -0.0000    0.0001    0.0003    0.0001    0.0000    0.0001   -0.0115
    95 N2     2px        0.0002   -0.0005   -0.0006   -0.0005   -0.0004    0.0009    0.0004   -0.0002   -0.0005   -0.0272
    96 N2     3px        0.0003   -0.0007   -0.0008   -0.0007   -0.0003    0.0009    0.0004   -0.0004   -0.0006    0.0208
    97 N2     4px        0.0001   -0.0001    0.0001   -0.0001   -0.0003    0.0001   -0.0001   -0.0001    0.0001   -0.0049
    98 N2     2py       -0.0016    0.0000    0.0008   -0.0002    0.0001    0.0008    0.0004   -0.0001   -0.0004    0.0396
    99 N2     3py       -0.0018    0.0000    0.0002   -0.0003    0.0001    0.0008    0.0004   -0.0001   -0.0003    0.0170
   100 N2     4py        0.0000    0.0000   -0.0005   -0.0001   -0.0000    0.0002   -0.0000   -0.0000    0.0001   -0.0055
   101 N2     2pz        0.0002    0.0003   -0.0002   -0.0000    0.0000   -0.0000    0.0001    0.0001    0.0001   -0.0033
   102 N2     3pz        0.0003    0.0004    0.0001    0.0000    0.0001   -0.0001    0.0001    0.0001    0.0002   -0.0081
   103 N2     4pz        0.0000    0.0001   -0.0001    0.0000    0.0000   -0.0000    0.0001    0.0000    0.0000   -0.0006
   104 N2     3d2-       0.0001   -0.0000    0.0002   -0.0000   -0.0001   -0.0000    0.0000   -0.0000   -0.0000   -0.0029
   105 N2     3d1-      -0.0000    0.0000    0.0001   -0.0000    0.0000    0.0000    0.0000    0.0000   -0.0000    0.0004
   106 N2     3d0       -0.0000    0.0000    0.0000    0.0000    0.0002    0.0001   -0.0000   -0.0000   -0.0001   -0.0027
   107 N2     3d1+      -0.0000    0.0000   -0.0000   -0.0000   -0.0000    0.0000   -0.0000    0.0000    0.0000    0.0003
   108 N2     3d2+      -0.0000   -0.0000    0.0000   -0.0000    0.0001   -0.0000    0.0000   -0.0000    0.0000    0.0046
   109 N5     1s         0.0000    0.0001   -0.0001    0.9999    0.0001    0.0000   -0.0003    0.0001    0.0000   -0.0017
   110 N5     2s         0.0001    0.0008   -0.0003    0.0006    0.0005    0.0002   -0.0003    0.0017    0.0002   -0.0019
   111 N5     3s         0.0001    0.0006   -0.0002   -0.0011    0.0004    0.0001   -0.0004    0.0010    0.0001   -0.0057
   112 N5     4s         0.0000    0.0001   -0.0000    0.0006    0.0001    0.0000    0.0000    0.0004    0.0000   -0.0013
   113 N5     2px       -0.0001   -0.0013   -0.0005   -0.0008    0.0002   -0.0000    0.0003    0.0008   -0.0001   -0.0039
   114 N5     3px       -0.0002   -0.0015   -0.0007   -0.0004    0.0004    0.0001    0.0003    0.0008   -0.0001   -0.0061
   115 N5     4px       -0.0000    0.0000   -0.0001    0.0003    0.0001    0.0001   -0.0001    0.0002   -0.0000   -0.0015
   116 N5     2py        0.0001    0.0008    0.0001    0.0006    0.0001   -0.0001   -0.0003    0.0000    0.0000   -0.0022
   117 N5     3py        0.0001    0.0009    0.0000    0.0003    0.0001   -0.0000   -0.0001   -0.0002    0.0000   -0.0008
   118 N5     4py       -0.0000    0.0000   -0.0000   -0.0003    0.0000    0.0001   -0.0001   -0.0001   -0.0000   -0.0002
   119 N5     2pz        0.0000    0.0002    0.0003   -0.0001   -0.0002    0.0002   -0.0001   -0.0006    0.0000    0.0050
   120 N5     3pz        0.0000    0.0003    0.0005   -0.0001   -0.0004    0.0002   -0.0001   -0.0004   -0.0000    0.0074
   121 N5     4pz        0.0000   -0.0000    0.0001    0.0001   -0.0001   -0.0001    0.0002    0.0000   -0.0000    0.0019
   122 N5     3d2-      -0.0000   -0.0000   -0.0000   -0.0001    0.0000   -0.0000    0.0001    0.0000   -0.0000    0.0001
   123 N5     3d1-      -0.0000    0.0000   -0.0000   -0.0000   -0.0000   -0.0000    0.0001    0.0001   -0.0000   -0.0001
   124 N5     3d0       -0.0000    0.0000    0.0000   -0.0001    0.0000    0.0000   -0.0000   -0.0000   -0.0000    0.0001
   125 N5     3d1+       0.0000   -0.0001    0.0000    0.0002    0.0000   -0.0000    0.0001    0.0001    0.0000   -0.0002
   126 N5     3d2+      -0.0000    0.0001    0.0000   -0.0001   -0.0000    0.0000   -0.0001   -0.0000   -0.0000    0.0001
   127 O7     1s         0.9997    0.0000   -0.0000   -0.0000   -0.0003   -0.0000    0.0000    0.0000    0.0001   -0.0238
   128 O7     2s        -0.0016   -0.0000   -0.0002   -0.0000    0.0004   -0.0001    0.0002    0.0000    0.0003    0.6942
   129 O7     3s        -0.0014   -0.0000   -0.0001    0.0000   -0.0000   -0.0000    0.0001    0.0000    0.0003   -0.0342
   130 O7     4s         0.0000   -0.0000   -0.0000    0.0000    0.0000    0.0000    0.0000   -0.0000    0.0001   -0.0138
   131 O7     2px        0.0001   -0.0001    0.0003    0.0001    0.0004   -0.0001    0.0001   -0.0000    0.0001    0.0851
   132 O7     3px       -0.0003   -0.0001    0.0004    0.0001   -0.0001   -0.0000    0.0001   -0.0000    0.0001   -0.0259
   133 O7     4px        0.0008   -0.0000    0.0001    0.0000    0.0001    0.0000    0.0000   -0.0000   -0.0000   -0.0017
   134 O7     2py       -0.0001   -0.0000    0.0002    0.0000   -0.0006    0.0000    0.0000   -0.0000   -0.0001   -0.1208
   135 O7     3py        0.0006   -0.0000    0.0002    0.0000   -0.0003   -0.0000    0.0000   -0.0001   -0.0001    0.0371
   136 O7     4py       -0.0011   -0.0000   -0.0001    0.0000   -0.0003   -0.0000    0.0000   -0.0000    0.0000    0.0001
   137 O7     2pz        0.0000    0.0000   -0.0000    0.0000    0.0001    0.0000   -0.0000    0.0000    0.0000    0.0138
   138 O7     3pz       -0.0001    0.0001    0.0000    0.0000    0.0000    0.0001   -0.0001    0.0000    0.0000   -0.0041
   139 O7     4pz        0.0001    0.0000    0.0000    0.0000    0.0000    0.0000   -0.0000    0.0000   -0.0000   -0.0001
   140 O7     3d2-       0.0001    0.0000   -0.0000   -0.0000   -0.0002    0.0000   -0.0000    0.0000   -0.0000   -0.0179
   141 O7     3d1-       0.0000   -0.0000    0.0000   -0.0000   -0.0000    0.0000   -0.0000    0.0000   -0.0000   -0.0026
   142 O7     3d0       -0.0000    0.0000    0.0001   -0.0000   -0.0001   -0.0000    0.0000    0.0000   -0.0000   -0.0104
   143 O7     3d1+      -0.0000   -0.0000    0.0000   -0.0000    0.0000    0.0000   -0.0000    0.0000    0.0000    0.0018
   144 O7     3d2+       0.0000   -0.0000    0.0001    0.0000   -0.0001   -0.0000    0.0000   -0.0000   -0.0000   -0.0070
   145 O8     1s         0.0000    0.9997    0.0000    0.0000    0.0000    0.0000   -0.0002   -0.0000    0.0000   -0.0011
   146 O8     2s         0.0000   -0.0016    0.0001    0.0002    0.0002    0.0003    0.0007   -0.0003    0.0000    0.0157
   147 O8     3s        -0.0000   -0.0015    0.0001    0.0002    0.0002    0.0002    0.0002   -0.0002    0.0000   -0.0025
   148 O8     4s        -0.0000    0.0000    0.0001    0.0000    0.0001    0.0001    0.0000   -0.0000    0.0000   -0.0008
   149 O8     2px        0.0000   -0.0001   -0.0001   -0.0002   -0.0001   -0.0001   -0.0005   -0.0000   -0.0001   -0.0027
   150 O8     3px        0.0001    0.0003   -0.0002   -0.0001   -0.0002   -0.0000   -0.0002   -0.0000   -0.0001    0.0024
   151 O8     4px        0.0000   -0.0009   -0.0000    0.0001   -0.0000    0.0000   -0.0002   -0.0000   -0.0000    0.0003
   152 O8     2py        0.0000    0.0001   -0.0000   -0.0001    0.0001    0.0001    0.0005   -0.0001    0.0000    0.0003
   153 O8     3py        0.0001   -0.0004    0.0000   -0.0001    0.0001    0.0001    0.0002   -0.0000   -0.0000   -0.0029
   154 O8     4py        0.0000    0.0010    0.0000   -0.0001   -0.0000   -0.0001    0.0001    0.0000   -0.0000   -0.0001
   155 O8     2pz        0.0000   -0.0001    0.0001    0.0003   -0.0000   -0.0001   -0.0004    0.0001    0.0000   -0.0013
   156 O8     3pz        0.0000    0.0002    0.0001    0.0003   -0.0000   -0.0002   -0.0000   -0.0000    0.0000    0.0007
   157 O8     4pz        0.0000   -0.0005    0.0000    0.0001   -0.0000   -0.0000    0.0000   -0.0000    0.0000   -0.0001
   158 O8     3d2-      -0.0000    0.0001    0.0000   -0.0000   -0.0000   -0.0000   -0.0002   -0.0000   -0.0000   -0.0003
   159 O8     3d1-      -0.0000    0.0000    0.0000    0.0000   -0.0000   -0.0000   -0.0001    0.0000   -0.0000   -0.0001
   160 O8     3d0        0.0000    0.0000   -0.0000   -0.0000   -0.0000   -0.0000   -0.0001   -0.0000   -0.0000   -0.0001
   161 O8     3d1+       0.0000   -0.0001   -0.0000   -0.0000    0.0000   -0.0000    0.0001   -0.0000   -0.0000    0.0002
   162 O8     3d2+      -0.0000    0.0000    0.0000    0.0000    0.0000    0.0000   -0.0001    0.0000    0.0000    0.0001
   163 H9     1s         0.0002    0.0002   -0.0001   -0.0001    0.0000   -0.0002   -0.0001    0.0000    0.0003    0.0136
   164 H9     2s         0.0001    0.0001   -0.0001   -0.0000    0.0001   -0.0002   -0.0001    0.0000   -0.0003    0.0034
   165 H9     2px       -0.0000    0.0000   -0.0000   -0.0000    0.0000   -0.0000   -0.0000   -0.0000   -0.0000    0.0009
   166 H9     2py       -0.0001    0.0000    0.0000    0.0000    0.0000   -0.0000   -0.0000    0.0000    0.0000    0.0011
   167 H9     2pz       -0.0000   -0.0000    0.0000    0.0000   -0.0000    0.0000    0.0000    0.0000    0.0001   -0.0007
   168 H10    1s         0.0001   -0.0001   -0.0002   -0.0002   -0.0000   -0.0002   -0.0001   -0.0001    0.0003    0.0154
   169 H10    2s         0.0001   -0.0001   -0.0001   -0.0001    0.0000   -0.0002   -0.0001   -0.0000   -0.0003    0.0040
   170 H10    2px       -0.0000   -0.0000   -0.0000   -0.0000    0.0000   -0.0000   -0.0000   -0.0000   -0.0000    0.0010
   171 H10    2py       -0.0001   -0.0000    0.0000   -0.0000    0.0001   -0.0000   -0.0000   -0.0000    0.0000    0.0011
   172 H10    2pz        0.0000   -0.0000    0.0000   -0.0000    0.0000   -0.0000   -0.0000   -0.0000   -0.0001    0.0006
   173 H11    1s        -0.0004    0.0000   -0.0004   -0.0001    0.0003   -0.0001   -0.0001   -0.0001    0.0003    0.0212
   174 H11    2s        -0.0002    0.0000   -0.0003   -0.0001    0.0001   -0.0001   -0.0001   -0.0001   -0.0002    0.0066
   175 H11    2px       -0.0000    0.0000    0.0001    0.0000   -0.0000    0.0000    0.0000    0.0000    0.0001   -0.0001
   176 H11    2py       -0.0000   -0.0000   -0.0000   -0.0000    0.0001    0.0000    0.0000   -0.0000   -0.0000    0.0020
   177 H11    2pz       -0.0000    0.0000   -0.0000   -0.0000    0.0000   -0.0000    0.0000    0.0000   -0.0000    0.0001
   178 H12    1s        -0.0011    0.0001    0.0010    0.0003    0.0001   -0.0002   -0.0000   -0.0001   -0.0005    0.0377
   179 H12    2s        -0.0006    0.0000    0.0007    0.0002   -0.0000   -0.0001    0.0000   -0.0001   -0.0003   -0.0012
   180 H12    2px        0.0000   -0.0000   -0.0002    0.0000   -0.0001    0.0000   -0.0000    0.0000    0.0001   -0.0045
   181 H12    2py       -0.0000    0.0000    0.0004    0.0000    0.0000    0.0000   -0.0000   -0.0000   -0.0000    0.0043
   182 H12    2pz        0.0000    0.0000   -0.0001   -0.0000   -0.0000    0.0000    0.0000   -0.0000    0.0000   -0.0007
   183 H13    1s         0.0002   -0.0006    0.0004    0.0005   -0.0003    0.0007   -0.0002   -0.0001   -0.0000    0.0160
   184 H13    2s         0.0002   -0.0003    0.0002    0.0004   -0.0001   -0.0000   -0.0002   -0.0001   -0.0000   -0.0003
   185 H13    2px        0.0000   -0.0000   -0.0000    0.0000   -0.0000    0.0000    0.0000    0.0000   -0.0000   -0.0003
   186 H13    2py        0.0000    0.0000    0.0000   -0.0000    0.0000   -0.0001   -0.0000   -0.0000   -0.0000   -0.0013
   187 H13    2pz        0.0000    0.0000   -0.0000    0.0000   -0.0000   -0.0000   -0.0000   -0.0000   -0.0000    0.0007
   188 H14    1s         0.0003    0.0003    0.0007   -0.0001   -0.0006    0.0010   -0.0000   -0.0000    0.0000    0.0057
   189 H14    2s         0.0002    0.0001    0.0003   -0.0001   -0.0004    0.0002    0.0000   -0.0000    0.0000   -0.0011
   190 H14    2px       -0.0000   -0.0001   -0.0000   -0.0000    0.0001   -0.0000    0.0001   -0.0000   -0.0000   -0.0004
   191 H14    2py       -0.0000   -0.0000   -0.0000    0.0000    0.0000   -0.0001   -0.0000   -0.0000   -0.0000   -0.0003
   192 H14    2pz       -0.0000   -0.0000   -0.0000   -0.0000    0.0001   -0.0000   -0.0000    0.0000    0.0000   -0.0008
   193 H15    1s        -0.0002   -0.0012   -0.0003   -0.0009   -0.0000   -0.0000    0.0003   -0.0001   -0.0001    0.0033
   194 H15    2s        -0.0002   -0.0007   -0.0002   -0.0006   -0.0000    0.0000    0.0001   -0.0000   -0.0001    0.0012
   195 H15    2px       -0.0000   -0.0000    0.0000   -0.0003   -0.0000    0.0000    0.0000    0.0000   -0.0000    0.0007
   196 H15    2py        0.0000    0.0000    0.0000    0.0003    0.0000   -0.0000   -0.0001    0.0000    0.0000   -0.0004
   197 H15    2pz       -0.0000   -0.0000   -0.0000   -0.0001    0.0000   -0.0000    0.0001   -0.0000   -0.0000   -0.0000
   198 H16    1s         0.0000    0.0004    0.0001   -0.0005   -0.0000   -0.0002   -0.0004    0.0005    0.0001    0.0009
   199 H16    2s         0.0000    0.0003    0.0001   -0.0002   -0.0000   -0.0001   -0.0003   -0.0001    0.0000    0.0010
   200 H16    2px        0.0000   -0.0000    0.0000    0.0000   -0.0000   -0.0000   -0.0000   -0.0000    0.0000    0.0001
   201 H16    2py       -0.0000    0.0000   -0.0000   -0.0000    0.0000    0.0000   -0.0000   -0.0000   -0.0000   -0.0000
   202 H16    2pz        0.0000    0.0000    0.0000   -0.0000   -0.0000   -0.0000   -0.0001    0.0000    0.0000    0.0001
   203 H17    1s        -0.0000    0.0003   -0.0001   -0.0006   -0.0001    0.0002   -0.0003    0.0005   -0.0001    0.0034
   204 H17    2s        -0.0000    0.0002   -0.0001   -0.0003   -0.0001    0.0001   -0.0003   -0.0001   -0.0001    0.0024
   205 H17    2px        0.0000   -0.0000    0.0000    0.0000    0.0000    0.0000    0.0000   -0.0000    0.0000   -0.0001
   206 H17    2py        0.0000   -0.0000    0.0000    0.0000    0.0000   -0.0000    0.0001    0.0000    0.0000   -0.0003
   207 H17    2pz        0.0000    0.0000   -0.0000   -0.0000   -0.0000    0.0000   -0.0000    0.0000   -0.0000    0.0001
   208 H18    1s        -0.0000    0.0001    0.0002   -0.0001   -0.0003    0.0001   -0.0000    0.0010   -0.0000    0.0047
   209 H18    2s        -0.0000    0.0001    0.0001   -0.0000   -0.0002    0.0001    0.0001    0.0001   -0.0000    0.0029
   210 H18    2px       -0.0000   -0.0000   -0.0000   -0.0000    0.0000   -0.0000   -0.0000   -0.0001    0.0000   -0.0003
   211 H18    2py       -0.0000    0.0000    0.0000    0.0000   -0.0000    0.0000   -0.0000    0.0001   -0.0000    0.0005
   212 H18    2pz       -0.0000   -0.0000   -0.0000   -0.0000    0.0000    0.0000    0.0000   -0.0000    0.0000   -0.0003
 
 
      Orbital                11        12        13        14        15        16        17        18        19        20
      Energy            -1.3571   -1.2552   -1.2102   -1.0300   -0.9710   -0.9142   -0.8191   -0.7752   -0.7185   -0.6939
      Occ. No.           2.0000    2.0000    2.0000    2.0000    2.0000    2.0000    2.0000    2.0000    2.0000    2.0000
 
     1 C1     1s         0.0052   -0.0083    0.0037   -0.0155   -0.0014    0.0070   -0.0131    0.0011    0.0072    0.0026
     2 C1     2s         0.0247    0.1377    0.0068    0.2843   -0.0324   -0.0804    0.3838   -0.0826   -0.2577   -0.0405
     3 C1     3s         0.0248    0.0036    0.0176   -0.0120   -0.0052    0.0140   -0.0014   -0.0060    0.0096    0.0171
     4 C1     4s         0.0068    0.0019    0.0052   -0.0035   -0.0023    0.0052   -0.0021   -0.0009    0.0044    0.0025
     5 C1     2px        0.0339    0.1537    0.0109   -0.0094    0.1071   -0.0901    0.1309   -0.0086    0.1724    0.2472
     6 C1     3px        0.0202   -0.0353    0.0313   -0.0434   -0.0340    0.0361   -0.0272   -0.0098   -0.0752   -0.0487
     7 C1     4px        0.0079    0.0284    0.0037   -0.0093    0.0109   -0.0062    0.0084   -0.0019    0.0061    0.0174
     8 C1     2py        0.0062   -0.0379    0.0229   -0.1556    0.0563    0.0042    0.0541    0.0294    0.0468   -0.1718
     9 C1     3py        0.0226    0.0454    0.0223    0.0188   -0.0505    0.0367   -0.0094    0.0003   -0.0016    0.0671
    10 C1     4py        0.0007   -0.0063    0.0049   -0.0239    0.0057    0.0031    0.0072    0.0021   -0.0031   -0.0093
    11 C1     2pz        0.0032    0.0052   -0.0040    0.0170   -0.0020   -0.0033   -0.0045   -0.0041    0.0022    0.0131
    12 C1     3pz        0.0018   -0.0115   -0.0048    0.0024    0.0043   -0.0067    0.0043   -0.0044    0.0022   -0.0060
    13 C1     4pz        0.0002   -0.0011   -0.0018    0.0031    0.0003   -0.0019   -0.0005   -0.0004    0.0013    0.0002
    14 C1     3d2-       0.0026    0.0134   -0.0007    0.0082   -0.0096    0.0068    0.0126    0.0063    0.0172    0.0049
    15 C1     3d1-       0.0002    0.0016   -0.0000   -0.0015    0.0014   -0.0005   -0.0012    0.0004    0.0026    0.0021
    16 C1     3d0        0.0005   -0.0069    0.0004   -0.0115   -0.0008    0.0046   -0.0133    0.0021    0.0058    0.0018
    17 C1     3d1+       0.0001   -0.0004    0.0002   -0.0005    0.0014   -0.0003   -0.0021    0.0000   -0.0014   -0.0019
    18 C1     3d2+       0.0028    0.0278   -0.0022    0.0024    0.0153   -0.0120    0.0104   -0.0001    0.0170    0.0159
    19 C3     1s        -0.0174   -0.0287   -0.0048    0.0326    0.0278   -0.0197   -0.0091   -0.0049    0.0010   -0.0008
    20 C3     2s         0.0191    0.1776    0.0050   -0.2903   -0.2569    0.3156    0.1069    0.0621   -0.0315    0.0446
    21 C3     3s        -0.0470   -0.0454   -0.0157    0.0555    0.0469   -0.0113   -0.0199   -0.0091    0.0050   -0.0028
    22 C3     4s        -0.0070   -0.0097   -0.0017    0.0158    0.0112   -0.0044   -0.0055   -0.0035    0.0024   -0.0024
    23 C3     2px        0.0253   -0.0540    0.0273   -0.0202   -0.0604    0.0119   -0.0583   -0.1379   -0.2543    0.1343
    24 C3     3px        0.0035    0.0054    0.0210   -0.0182    0.0279    0.0290    0.0064    0.0222    0.0345   -0.0187
    25 C3     4px        0.0073   -0.0082    0.0071   -0.0027    0.0030   -0.0003   -0.0039   -0.0081   -0.0030    0.0034
    26 C3     2py       -0.0265   -0.0947    0.0165    0.0079   -0.0275   -0.0218    0.1407   -0.0033   -0.0121    0.2172
    27 C3     3py        0.0022    0.0091    0.0010   -0.0366    0.0129   -0.0143   -0.0101   -0.0001    0.0073   -0.0358
    28 C3     4py        0.0031   -0.0021    0.0019   -0.0129   -0.0075    0.0069    0.0082    0.0065   -0.0017    0.0087
    29 C3     2pz        0.0102    0.0030   -0.0194    0.0164    0.0311    0.0566   -0.0112    0.0616    0.0050   -0.0527
    30 C3     3pz        0.0195    0.0160    0.0054   -0.0080   -0.0163    0.0379    0.0026   -0.0147   -0.0049    0.0067
    31 C3     4pz       -0.0048    0.0089    0.0007   -0.0068   -0.0050    0.0157    0.0011    0.0005   -0.0025    0.0002
    32 C3     3d2-      -0.0001    0.0184    0.0028   -0.0023    0.0081   -0.0017   -0.0039    0.0060    0.0179   -0.0235
    33 C3     3d1-       0.0052   -0.0008   -0.0007   -0.0005   -0.0017    0.0009   -0.0023   -0.0038   -0.0067   -0.0006
    34 C3     3d0       -0.0043   -0.0111    0.0034    0.0053   -0.0022   -0.0023    0.0048   -0.0033   -0.0077    0.0120
    35 C3     3d1+      -0.0008   -0.0032   -0.0039    0.0042    0.0084    0.0029    0.0065    0.0115    0.0115   -0.0018
    36 C3     3d2+       0.0017   -0.0079    0.0009   -0.0002   -0.0085   -0.0024    0.0158   -0.0085   -0.0074    0.0183
    37 C4     1s        -0.0408    0.0049   -0.0060    0.0091    0.0138    0.0078   -0.0018    0.0164    0.0025   -0.0024
    38 C4     2s         0.3562    0.0060    0.1146   -0.0926   -0.2262   -0.0674   -0.0029   -0.4059   -0.0658    0.0632
    39 C4     3s        -0.0132    0.0099    0.0045    0.0213    0.0090    0.0145   -0.0091    0.0095    0.0033   -0.0022
    40 C4     4s         0.0002    0.0030    0.0013    0.0065    0.0035    0.0046   -0.0024    0.0055    0.0028   -0.0024
    41 C4     2px        0.0828   -0.0401    0.0049    0.0614    0.1220   -0.0037    0.0095   -0.0178    0.1356   -0.0861
    42 C4     3px       -0.0234    0.0203    0.0600   -0.0449    0.0153    0.0838    0.0083   -0.0144   -0.0519    0.0345
    43 C4     4px        0.0225   -0.0088    0.0064    0.0050    0.0186    0.0083    0.0026   -0.0062    0.0029    0.0006
    44 C4     2py       -0.0586    0.0099    0.1169   -0.0199   -0.0691   -0.0506    0.0159   -0.0687    0.0183    0.0247
    45 C4     3py        0.0567   -0.0243   -0.0312    0.0208    0.0159    0.0162    0.0147    0.0100   -0.0107   -0.0004
    46 C4     4py       -0.0155   -0.0002    0.0219   -0.0011   -0.0089   -0.0039    0.0083   -0.0037    0.0017    0.0015
    47 C4     2pz        0.0020   -0.0019   -0.1441   -0.0211   -0.0161    0.0561   -0.0076    0.0960   -0.1457    0.0600
    48 C4     3pz       -0.0326   -0.0061   -0.0107    0.0097   -0.0304   -0.1030   -0.0071   -0.0126    0.0551   -0.0332
    49 C4     4pz        0.0021    0.0004   -0.0305   -0.0034   -0.0063   -0.0034   -0.0019    0.0074   -0.0060    0.0013
    50 C4     3d2-      -0.0316    0.0063    0.0162    0.0008    0.0029   -0.0020   -0.0061   -0.0035    0.0065   -0.0113
    51 C4     3d1-      -0.0241    0.0023   -0.0129   -0.0009    0.0062    0.0166    0.0023    0.0089   -0.0064    0.0050
    52 C4     3d0       -0.0102    0.0032    0.0182    0.0005   -0.0020   -0.0086   -0.0022   -0.0087    0.0063   -0.0052
    53 C4     3d1+       0.0093   -0.0054   -0.0124    0.0076    0.0084   -0.0064    0.0014    0.0177    0.0006    0.0027
    54 C4     3d2+      -0.0043    0.0042   -0.0038   -0.0062   -0.0029    0.0113    0.0015   -0.0051   -0.0023   -0.0001
    55 C6     1s        -0.0090    0.0050   -0.0346   -0.0149   -0.0357   -0.0435   -0.0034    0.0084    0.0044   -0.0058
    56 C6     2s         0.0305    0.0251    0.1593    0.0654    0.2371    0.3858    0.0237   -0.1072   -0.0385    0.0401
    57 C6     3s        -0.0134    0.0250   -0.0604   -0.0303   -0.0681   -0.0698   -0.0097    0.0175    0.0114   -0.0171
    58 C6     4s        -0.0006    0.0070   -0.0101   -0.0058   -0.0147   -0.0144   -0.0029    0.0049    0.0029   -0.0045
    59 C6     2px       -0.0176   -0.0091   -0.0872   -0.0179   -0.0143    0.0263    0.0200   -0.1227   -0.0252    0.0816
    60 C6     3px        0.0030   -0.0109    0.0159    0.0047    0.0159    0.0016    0.0008    0.0083    0.0066   -0.0127
    61 C6     4px       -0.0031   -0.0008   -0.0017    0.0034    0.0103    0.0167    0.0025   -0.0101   -0.0009    0.0035
    62 C6     2py       -0.0042    0.0069    0.0079    0.0010    0.0052    0.0104   -0.0032    0.0966   -0.0663    0.0385
    63 C6     3py       -0.0027    0.0064   -0.0006   -0.0015    0.0033    0.0117    0.0008   -0.0020    0.0061   -0.0022
    64 C6     4py       -0.0004    0.0001    0.0017   -0.0004    0.0008   -0.0006   -0.0011    0.0058   -0.0038    0.0018
    65 C6     2pz        0.0173    0.0056    0.0592    0.0073    0.0041   -0.0272   -0.0095   -0.0150    0.0973   -0.1029
    66 C6     3pz       -0.0028    0.0089   -0.0138   -0.0073   -0.0171   -0.0078   -0.0023    0.0005   -0.0121    0.0133
    67 C6     4pz        0.0018    0.0012   -0.0012   -0.0015   -0.0096   -0.0125   -0.0009    0.0020    0.0052   -0.0047
    68 C6     3d2-      -0.0006    0.0003   -0.0034   -0.0011   -0.0028   -0.0013    0.0008   -0.0062   -0.0010    0.0031
    69 C6     3d1-      -0.0002    0.0005    0.0029    0.0000   -0.0004   -0.0008   -0.0009    0.0101   -0.0056    0.0021
    70 C6     3d0        0.0001   -0.0002   -0.0013   -0.0002   -0.0010   -0.0009   -0.0001   -0.0075    0.0032   -0.0017
    71 C6     3d1+      -0.0044    0.0000   -0.0187   -0.0036   -0.0046    0.0027    0.0020   -0.0065   -0.0088    0.0126
    72 C6     3d2+       0.0028   -0.0000    0.0141    0.0030    0.0038   -0.0015   -0.0016    0.0107    0.0034   -0.0076
    73 C19    1s         0.0009   -0.0104    0.0022   -0.0567    0.0430   -0.0198    0.0132   -0.0044   -0.0091    0.0030
    74 C19    2s         0.0077   -0.0005    0.0084    0.3050   -0.2764    0.1479   -0.0706    0.0448    0.0965   -0.0071
    75 C19    3s         0.0091   -0.0291    0.0135   -0.1105    0.0803   -0.0333    0.0362   -0.0091   -0.0165    0.0140
    76 C19    4s         0.0035   -0.0034    0.0045   -0.0233    0.0180   -0.0073    0.0098   -0.0029   -0.0050    0.0038
    77 C19    2px        0.0043    0.0236   -0.0013    0.0563    0.0029   -0.0269    0.0438   -0.0301   -0.0545    0.1437
    78 C19    3px        0.0012   -0.0025   -0.0001    0.0047    0.0059   -0.0025   -0.0023    0.0042    0.0136   -0.0145
    79 C19    4px       -0.0011    0.0004   -0.0007   -0.0081    0.0128   -0.0082    0.0015   -0.0035   -0.0058    0.0033
    80 C19    2py        0.0059    0.0094    0.0074    0.0466   -0.0107   -0.0141    0.0608   -0.0467   -0.2139   -0.0318
    81 C19    3py        0.0075   -0.0012    0.0091   -0.0300    0.0168   -0.0007   -0.0117    0.0000    0.0223    0.0098
    82 C19    4py        0.0005    0.0015    0.0003   -0.0125    0.0140   -0.0084    0.0127   -0.0031   -0.0087   -0.0007
    83 C19    2pz        0.0031    0.0015    0.0004   -0.0060    0.0014    0.0042   -0.0079    0.0031    0.0187    0.0002
    84 C19    3pz        0.0027    0.0031    0.0007   -0.0005   -0.0014    0.0031   -0.0013   -0.0013   -0.0038   -0.0006
    85 C19    4pz       -0.0001    0.0006    0.0003    0.0007   -0.0014    0.0008   -0.0015    0.0007    0.0004    0.0001
    86 C19    3d2-       0.0005    0.0059   -0.0004    0.0111   -0.0021   -0.0025    0.0073   -0.0040   -0.0146    0.0012
    87 C19    3d1-      -0.0001    0.0003   -0.0001   -0.0017    0.0010   -0.0000   -0.0008    0.0008    0.0027   -0.0005
    88 C19    3d0       -0.0002   -0.0008    0.0001   -0.0088    0.0035    0.0007   -0.0033    0.0029    0.0078   -0.0096
    89 C19    3d1+      -0.0004   -0.0005   -0.0000   -0.0010    0.0001    0.0001   -0.0008    0.0005    0.0008   -0.0012
    90 C19    3d2+       0.0004    0.0024   -0.0002   -0.0069    0.0047   -0.0010   -0.0029    0.0026    0.0139    0.0032
    91 N2     1s        -0.0057   -0.0412    0.0025   -0.0048   -0.0044    0.0017    0.0041    0.0001    0.0028   -0.0015
    92 N2     2s         0.0620    0.5860   -0.0408   -0.0292    0.2089   -0.1060   -0.1542    0.0113    0.1220   -0.0707
    93 N2     3s        -0.0103   -0.0779    0.0052   -0.0146    0.0023   -0.0013    0.0072   -0.0006    0.0133   -0.0046
    94 N2     4s        -0.0028   -0.0250    0.0019   -0.0019   -0.0018    0.0010    0.0029   -0.0008    0.0006   -0.0003
    95 N2     2px        0.0290   -0.0369    0.0163   -0.1471   -0.0534    0.1163   -0.3542    0.0162   -0.1116   -0.2752
    96 N2     3px        0.0278   -0.0168    0.0188    0.0288    0.0450   -0.0570    0.1172   -0.0256    0.0049    0.0648
    97 N2     4px        0.0063    0.0009    0.0028   -0.0054    0.0067   -0.0044   -0.0003   -0.0027   -0.0016    0.0069
    98 N2     2py        0.0044   -0.0029    0.0051   -0.1133   -0.0517    0.1093    0.2290    0.1229    0.2400   -0.2275
    99 N2     3py       -0.0050   -0.0456   -0.0013    0.0444    0.0517   -0.0507   -0.0367   -0.0352   -0.0549    0.0318
   100 N2     4py       -0.0004   -0.0133   -0.0001    0.0002    0.0050   -0.0052    0.0088   -0.0025   -0.0014    0.0054
   101 N2     2pz       -0.0071    0.0170   -0.0032    0.0067    0.0171   -0.0116   -0.0450    0.0123   -0.0135   -0.0121
   102 N2     3pz       -0.0114    0.0011    0.0005   -0.0045   -0.0010   -0.0088    0.0042    0.0088    0.0045    0.0025
   103 N2     4pz       -0.0018    0.0020    0.0003   -0.0000    0.0013   -0.0009   -0.0026    0.0023   -0.0006    0.0005
   104 N2     3d2-       0.0015    0.0068    0.0001   -0.0024   -0.0089    0.0089    0.0061    0.0036    0.0063   -0.0037
   105 N2     3d1-      -0.0006   -0.0014   -0.0001   -0.0003   -0.0007    0.0017    0.0044    0.0023    0.0025   -0.0019
   106 N2     3d0       -0.0022   -0.0164    0.0013    0.0016   -0.0038    0.0013   -0.0005   -0.0006   -0.0020   -0.0003
   107 N2     3d1+      -0.0003    0.0006   -0.0002   -0.0011    0.0005    0.0002   -0.0034    0.0004   -0.0012   -0.0020
   108 N2     3d2+       0.0012    0.0058   -0.0000    0.0100    0.0061   -0.0103    0.0188   -0.0059   -0.0018    0.0150
   109 N5     1s        -0.0201   -0.0013   -0.0426   -0.0020    0.0017    0.0024    0.0009   -0.0026    0.0021   -0.0020
   110 N5     2s         0.1363   -0.0148    0.5748    0.0403   -0.0102   -0.2257   -0.0395    0.1767    0.0671   -0.0990
   111 N5     3s        -0.0498   -0.0039   -0.0800   -0.0063   -0.0007   -0.0166   -0.0007    0.0031    0.0112   -0.0117
   112 N5     4s        -0.0119   -0.0001   -0.0265   -0.0028   -0.0015   -0.0020   -0.0002   -0.0013    0.0012   -0.0011
   113 N5     2px        0.0184   -0.0300   -0.0090    0.0554    0.1154    0.1167    0.0032   -0.1031    0.1240   -0.1340
   114 N5     3px        0.0068   -0.0361   -0.0333    0.0061   -0.0399   -0.0889    0.0003    0.0266   -0.0221    0.0298
   115 N5     4px       -0.0066   -0.0055   -0.0085    0.0027    0.0016   -0.0053    0.0002   -0.0060    0.0012    0.0005
   116 N5     2py       -0.0322    0.0072   -0.0040    0.0043    0.0274    0.0166   -0.0254    0.2908   -0.1641    0.0806
   117 N5     3py        0.0057    0.0008    0.0222    0.0016    0.0099    0.0078   -0.0030   -0.0735    0.0275   -0.0173
   118 N5     4py       -0.0007   -0.0011    0.0077    0.0027    0.0031   -0.0007   -0.0004    0.0048   -0.0014    0.0012
   119 N5     2pz        0.0153    0.0169    0.0136   -0.0415   -0.1242   -0.1183    0.0045   -0.2592    0.1028   -0.0146
   120 N5     3pz       -0.0202    0.0281   -0.0039    0.0102    0.0229    0.0517   -0.0073    0.0680   -0.0149   -0.0052
   121 N5     4pz        0.0052    0.0053   -0.0035   -0.0012   -0.0045    0.0020   -0.0021   -0.0015   -0.0000   -0.0010
   122 N5     3d2-      -0.0004    0.0004   -0.0031   -0.0019   -0.0029    0.0016    0.0008   -0.0130    0.0027   -0.0007
   123 N5     3d1-      -0.0059    0.0010   -0.0120    0.0005    0.0051    0.0099   -0.0003    0.0080   -0.0041    0.0005
   124 N5     3d0        0.0019   -0.0000    0.0053   -0.0014   -0.0042   -0.0031    0.0009   -0.0125    0.0038   -0.0006
   125 N5     3d1+       0.0004   -0.0012   -0.0129   -0.0005   -0.0025   -0.0063   -0.0003    0.0041   -0.0011    0.0020
   126 N5     3d2+      -0.0023    0.0010    0.0043    0.0013    0.0050    0.0075   -0.0001    0.0058   -0.0019   -0.0008
   127 O7     1s         0.0009    0.0024   -0.0006   -0.0044    0.0022    0.0004   -0.0135    0.0015    0.0155    0.0210
   128 O7     2s        -0.0590   -0.3029    0.0147   -0.2085    0.0527    0.0274   -0.3499    0.0224    0.2587    0.3384
   129 O7     3s        -0.0004   -0.0096   -0.0012   -0.0204    0.0098    0.0002   -0.0425    0.0034    0.0432    0.0596
   130 O7     4s         0.0005   -0.0003   -0.0005   -0.0035    0.0025   -0.0005   -0.0083    0.0003    0.0086    0.0127
   131 O7     2px       -0.0060   -0.0014   -0.0028   -0.0030    0.0304   -0.0294    0.1736   -0.0060   -0.1071   -0.2194
   132 O7     3px       -0.0015   -0.0012   -0.0023   -0.0072    0.0044    0.0028   -0.0221    0.0003    0.0093    0.0186
   133 O7     4px       -0.0001   -0.0001   -0.0003   -0.0007    0.0002    0.0012   -0.0018    0.0002    0.0005    0.0009
   134 O7     2py        0.0090    0.0397   -0.0025   -0.0333    0.0246    0.0045   -0.1614    0.0256    0.2978    0.3986
   135 O7     3py       -0.0032   -0.0004   -0.0011    0.0138    0.0014   -0.0014    0.0238   -0.0071   -0.0348   -0.0422
   136 O7     4py       -0.0008   -0.0017   -0.0001   -0.0003    0.0011    0.0010    0.0026   -0.0010   -0.0043   -0.0064
   137 O7     2pz       -0.0017    0.0000    0.0002    0.0035    0.0009   -0.0023    0.0159   -0.0015   -0.0258   -0.0378
   138 O7     3pz       -0.0009    0.0004    0.0010   -0.0008    0.0006   -0.0008   -0.0036    0.0014    0.0022    0.0041
   139 O7     4pz       -0.0003    0.0001    0.0003    0.0004    0.0002   -0.0005   -0.0007    0.0002    0.0001    0.0006
   140 O7     3d2-       0.0011    0.0034   -0.0001    0.0009   -0.0024    0.0025   -0.0121    0.0011    0.0104    0.0174
   141 O7     3d1-       0.0002    0.0010   -0.0000    0.0000    0.0003   -0.0002   -0.0007    0.0001    0.0021    0.0031
   142 O7     3d0        0.0008    0.0042   -0.0004    0.0014    0.0001   -0.0002   -0.0051    0.0003    0.0069    0.0115
   143 O7     3d1+      -0.0001   -0.0002    0.0000   -0.0001    0.0004   -0.0003    0.0011   -0.0001   -0.0009   -0.0018
   144 O7     3d2+       0.0007    0.0051   -0.0004   -0.0025    0.0045   -0.0025    0.0007    0.0012    0.0124    0.0117
   145 O8     1s        -0.0232    0.0026    0.0043    0.0009    0.0026    0.0004    0.0002    0.0123    0.0020    0.0001
   146 O8     2s         0.6663   -0.1484   -0.3258    0.1083    0.1563    0.0094    0.0278    0.3498    0.0421    0.0139
   147 O8     3s        -0.0271   -0.0024   -0.0087    0.0069    0.0128    0.0011    0.0039    0.0457    0.0075    0.0006
   148 O8     4s        -0.0122    0.0001    0.0001    0.0005    0.0013   -0.0001    0.0017    0.0094    0.0018    0.0001
   149 O8     2px       -0.0846    0.0063    0.0381    0.0190    0.0185   -0.0212    0.0120    0.0909    0.0801   -0.0253
   150 O8     3px        0.0257   -0.0048   -0.0047    0.0040   -0.0112   -0.0096   -0.0002   -0.0177   -0.0056    0.0007
   151 O8     4px        0.0006   -0.0007   -0.0022    0.0023   -0.0002   -0.0009    0.0000   -0.0022   -0.0014    0.0007
   152 O8     2py        0.1001   -0.0218   -0.0267    0.0020   -0.0101   -0.0128    0.0007   -0.1375    0.0091   -0.0208
   153 O8     3py       -0.0320    0.0021    0.0014    0.0033    0.0074    0.0009    0.0015    0.0211    0.0037    0.0003
   154 O8     4py       -0.0008   -0.0002    0.0008    0.0001   -0.0004    0.0005    0.0016    0.0026    0.0008    0.0003
   155 O8     2pz       -0.0523    0.0160   -0.0008   -0.0146   -0.0043    0.0376   -0.0089    0.0918   -0.0710    0.0369
   156 O8     3pz        0.0167    0.0047    0.0045   -0.0047   -0.0013    0.0090   -0.0009   -0.0092    0.0023   -0.0020
   157 O8     4pz        0.0017    0.0018    0.0015   -0.0012   -0.0001    0.0008   -0.0007   -0.0006    0.0010   -0.0006
[...]
AIVX     1  Mu1.0001  In1.026 Se1.047               0.22430014     -0.00097402      0.00152772     -0.00000149
AIVX     1  Mu1.0001  In1.027 Se1.047               0.24997072      0.00104719     -0.00235410     -0.00000247
AIVX     1  Mu1.0001  In1.028 Se1.047               0.03816908     -0.00052181      0.00070584     -0.00000037
AIVX     1  Mu1.0001  In1.029 Se1.047               0.08000013      0.00054736     -0.00109526     -0.00000060
AIVX     1  Mu1.0001  In1.018 Se1.048               0.28517419     -0.00013906      0.00034426     -0.00000005
AIVX     1  Mu1.0001  In1.021 Se1.048               0.21830311     -0.00011694      0.00038852     -0.00000005
AIVX     1  Mu1.0001  In1.022 Se1.048               0.12570876     -0.00017861      0.00004502     -0.00000001
AIVX     1  Mu1.0001  In1.024 Se1.048               0.14703131      0.00016873     -0.00035613     -0.00000006
AIVX     1  Mu1.0001  In1.025 Se1.048               0.28221069      0.00024019     -0.00035922     -0.00000009
AIVX     1  Mu1.0001  In1.026 Se1.048               0.23573695      0.00055639     -0.00090074     -0.00000050
AIVX     1  Mu1.0001  In1.027 Se1.048               0.26140752      0.00064259     -0.00119261     -0.00000077
AIVX     1  Mu1.0001  In1.028 Se1.048               0.04960589     -0.00012931      0.00053165     -0.00000007
AIVX     1  Mu1.0001  In1.029 Se1.048               0.09143694     -0.00011676      0.00003096     -0.00000000
AIVX     1  Mu1.0001  In1.018 Se1.049               0.26405959     -0.00036082      0.00055952     -0.00000020
AIVX     1  Mu1.0001  In1.021 Se1.049               0.19718851      0.00000497     -0.00005137     -0.00000000
AIVX     1  Mu1.0001  In1.022 Se1.049               0.10459416      0.00019828     -0.00033899     -0.00000007
AIVX     1  Mu1.0001  In1.023 Se1.049               0.29703137      0.00012981     -0.00099081     -0.00000013
AIVX     1  Mu1.0001  In1.024 Se1.049               0.12591671      0.00036140     -0.00093066     -0.00000034
AIVX     1  Mu1.0001  In1.025 Se1.049               0.26109609     -0.00057605      0.00109994     -0.00000063
AIVX     1  Mu1.0001  In1.026 Se1.049               0.21462235     -0.00007268      0.00013797     -0.00000001
AIVX     1  Mu1.0001  In1.027 Se1.049               0.24029292     -0.00045445      0.00106962     -0.00000049
AIVX     1  Mu1.0001  In1.028 Se1.049               0.02849128      0.00021898     -0.00042716     -0.00000009
AIVX     1  Mu1.0001  In1.029 Se1.049               0.07032234     -0.00014874      0.00042616     -0.00000006
AIVX     1  Mu1.0001  In1.021 Se1.050               0.25139712      0.00068269     -0.00085161     -0.00000058
AIVX     1  Mu1.0001  In1.022 Se1.050               0.15880277     -0.00018846     -0.00005679      0.00000001
AIVX     1  Mu1.0001  In1.024 Se1.050               0.18012532     -0.00006003      0.00016985     -0.00000001
AIVX     1  Mu1.0001  In1.026 Se1.050               0.26883095     -0.00128531      0.00267241     -0.00000343
AIVX     1  Mu1.0001  In1.027 Se1.050               0.29450153     -0.00012109      0.00020012     -0.00000002
AIVX     1  Mu1.0001  In1.028 Se1.050               0.08269989      0.00050383     -0.00105017     -0.00000053
AIVX     1  Mu1.0001  In1.029 Se1.050               0.12453095     -0.00002917     -0.00058308      0.00000002
AIVX     1  Mu1.0001  In1.021 Se1.051               0.27087989     -0.00094342      0.00155734     -0.00000147
AIVX     1  Mu1.0001  In1.022 Se1.051               0.17828555      0.00020929     -0.00074822     -0.00000016
AIVX     1  Mu1.0001  In1.024 Se1.051               0.19960809      0.00005040     -0.00007478     -0.00000000
AIVX     1  Mu1.0001  In1.026 Se1.051               0.28831373      0.00026589     -0.00026667     -0.00000007
AIVX     1  Mu1.0001  In1.028 Se1.051               0.10218267     -0.00071043      0.00154200     -0.00000110
AIVX     1  Mu1.0001  In1.029 Se1.051               0.14401372      0.00053514     -0.00121532     -0.00000065
AIVX     1  Mu1.0001  In1.022 Se1.052               0.21687093     -0.00020149      0.00033877     -0.00000007
AIVX     1  Mu1.0001  In1.024 Se1.052               0.23819347      0.00016244     -0.00028959     -0.00000005
AIVX     1  Mu1.0001  In1.028 Se1.052               0.14076805      0.00036931     -0.00078928     -0.00000029
AIVX     1  Mu1.0001  In1.029 Se1.052               0.18259910      0.00000740     -0.00033876     -0.00000000
AIVX     1  Mu1.0001  In1.022 Se1.053               0.22969890      0.00017621     -0.00044070     -0.00000008
AIVX     1  Mu1.0001  In1.024 Se1.053               0.25102144     -0.00030308      0.00076604     -0.00000023
AIVX     1  Mu1.0001  In1.028 Se1.053               0.15359602     -0.00043997      0.00081653     -0.00000036
AIVX     1  Mu1.0001  In1.029 Se1.053               0.19542708      0.00024451     -0.00045321     -0.00000011
AIVX     1  Mu1.0001  In1.022 Se1.054               0.24075254     -0.00040686      0.00073702     -0.00000030
AIVX     1  Mu1.0001  In1.024 Se1.054               0.26207508      0.00008895     -0.00028922     -0.00000003
AIVX     1  Mu1.0001  In1.028 Se1.054               0.16464966      0.00009390      0.00011625      0.00000001
AIVX     1  Mu1.0001  In1.029 Se1.054               0.20648071     -0.00059517      0.00107256     -0.00000064
AIVX     1  Mu1.0001  In1.022 Se1.055               0.25337730      0.00014520     -0.00025398     -0.00000004
AIVX     1  Mu1.0001  In1.024 Se1.055               0.27469985      0.00021138     -0.00044328     -0.00000009
AIVX     1  Mu1.0001  In1.028 Se1.055               0.17727442     -0.00027766      0.00078896     -0.00000022
AIVX     1  Mu1.0001  In1.029 Se1.055               0.21910548     -0.00019408      0.00033227     -0.00000006
AIVX     1  Mu1.0001  In1.028 Se1.056               0.23925951     -0.00061502      0.00092176     -0.00000057
AIVX     1  Mu1.0001  In1.029 Se1.056               0.28109057      0.00072444     -0.00094393     -0.00000068
AIVX     1  Mu1.0001  In1.022 Se1.057               0.26214479      0.00021614      0.00009958      0.00000002
AIVX     1  Mu1.0001  In1.024 Se1.057               0.28346734     -0.00006556      0.00017495     -0.00000001
AIVX     1  Mu1.0001  In1.028 Se1.057               0.18604191     -0.00045696      0.00080408     -0.00000037
AIVX     1  Mu1.0001  In1.029 Se1.057               0.22787297      0.00057641     -0.00086279     -0.00000050
AIVX     1  Mu1.0001  In1.022 Se1.058               0.27296059      0.00024709     -0.00049196     -0.00000012
AIVX     1  Mu1.0001  In1.024 Se1.058               0.29428314     -0.00024526      0.00046603     -0.00000011
AIVX     1  Mu1.0001  In1.028 Se1.058               0.19685772     -0.00022918      0.00067738     -0.00000016
AIVX     1  Mu1.0001  In1.029 Se1.058               0.23868877     -0.00058926      0.00107417     -0.00000063
AIVX     1  Mu1.0001  In1.028 Se1.059               0.22507801     -0.00071075      0.00128071     -0.00000091
AIVX     1  Mu1.0001  In1.029 Se1.059               0.26690907      0.00033778     -0.00050435     -0.00000017
AIVX     1  Mu1.0001  In1.028 Se1.060               0.25715290     -0.00012824      0.00055086     -0.00000007
AIVX     1  Mu1.0001  In1.029 Se1.060               0.29898396     -0.00036194      0.00062223     -0.00000023
AIVX     1  Mu1.0001  In1.028 Se1.062               0.28795829     -0.00011801     -0.00005406      0.00000001
AIVX     1  Mu1.0001  In1.028 Se1.063               0.27857772      0.00015637     -0.00035552     -0.00000006
AIVX     1  Mu1.0001  In1.028 Se1.208               0.29856422      0.00024012     -0.00039263     -0.00000009
AIVX     1  Mu1.0001  In1.022 Se1.209               0.21901575     -0.00020032      0.00026289     -0.00000005
AIVX     1  Mu1.0001  In1.024 Se1.209               0.24033830      0.00018209     -0.00045227     -0.00000008
AIVX     1  Mu1.0001  In1.028 Se1.209               0.14291287      0.00020663     -0.00068707     -0.00000014
AIVX     1  Mu1.0001  In1.029 Se1.209               0.18474393     -0.00007493      0.00021703     -0.00000002
--
 
   (Skipping property calculation,
    use PROP keyword to activate)
--
 
  Total CASPT2 energies:
::    CASPT2 Root  1     Total energy:   -455.23113901
::    CASPT2 Root  2     Total energy:   -455.03601294
::    CASPT2 Root  3     Total energy:   -455.03919796
::    CASPT2 Root  4     Total energy:   -454.96985252
::    CASPT2 Root  5     Total energy:   -454.95777073
::    CASPT2 Root  6     Total energy:   -454.95770024
::    CASPT2 Root  7     Total energy:   -454.93008401
 
++ Multi-State CASPT2 section:
********************************************************************************
  MULTI-STATE CASPT2 SECTION
--------------------------------------------------------------------------------
 
  Output diagonal energies have been shifted. Add   -455.000000000000     
 
  Effective Hamiltonian matrix (Symmetric):
 
                1               2               3               4               5
   1        -0.23113901
   2        -0.00026505     -0.03601294
   3        -0.00067242      0.00044784     -0.03919796
   4         0.01348192      0.00011523     -0.00052852      0.03014748
   5         0.00422141      0.00157816     -0.00018848      0.00169548      0.04222927
   6        -0.01121414     -0.00237267      0.00144846      0.00142262      0.00923883
   7         0.00586618      0.00041652     -0.00099383     -0.00130993     -0.00460608
 
                6               7
   6         0.04229976
   7         0.00230724      0.06991599
 
       Total MS-CASPT2 energies:
::    MS-CASPT2 Root  1     Total energy:   -455.23249470
::    MS-CASPT2 Root  2     Total energy:   -455.03931969
::    MS-CASPT2 Root  3     Total energy:   -455.03604900
::    MS-CASPT2 Root  4     Total energy:   -454.96953533
::    MS-CASPT2 Root  5     Total energy:   -454.96680022
::    MS-CASPT2 Root  6     Total energy:   -454.94837339
::    MS-CASPT2 Root  7     Total energy:   -454.92918508
 
       Eigenvectors:
            0.99745582     -0.00076764     -0.00415396      0.04035643      0.05529957
            0.00205008     -0.15633902      0.98685194     -0.00860356      0.03944486
            0.00289212      0.98729344      0.15719789     -0.00450987     -0.01915914
           -0.05141454      0.00839595      0.00026873      0.96104533      0.25480098
           -0.01675959      0.00844028     -0.02296948     -0.24707001      0.67567160
            0.04170655     -0.02357185      0.02920035      0.11631847     -0.67642158
           -0.02013819      0.01057421     -0.00380570     -0.00976233      0.12655898
 
           -0.01259065      0.01479310
           -0.00679957      0.00099901
            0.00871566     -0.00829107
            0.08781194     -0.03230148
            0.67723185     -0.15133272
            0.72474126      0.02293985
            0.09008589      0.98754251
 
--
 
  THE ORIGINAL CI ARRAYS ARE NOW MIXED AS LINEAR
  COMBINATIONS, GIVEN BY THE EIGENVECTORS.
  A NEW JOBIPH FILE NAMED 'JOBMIX' IS PREPARED.
********************************************************************************
 
++ Mixed CI coefficients:
  The CI coefficients for the MIXED state nr.   1
--------------------------------------------------------------------------------
 CI COEFFICIENTS LARGER THAN  0.50D-01
  Occupation of active orbitals, and spin coupling
  of open shells. (u,d: Spin up or down).
  SGUGA info is (Midvert:IsyUp:UpperWalk/LowerWalk)
        Conf  SGUGA info        Occupation    Coefficient         Weight
           1  ( 1:1:   1/   1)   22222200       -0.969180       0.939311
           6  ( 1:1:   6/   1)   22220220        0.090543       0.008198
           7  ( 1:1:   7/   1)   22222u0d       -0.075053       0.005633
          15  ( 1:1:  15/   1)   22222002        0.089225       0.007961
          64  ( 2:1:   4/   3)   2u22220d        0.078474       0.006158
          81  ( 2:1:   1/   4)   u22222d0       -0.105719       0.011176
         175  ( 3:1:   5/   8)   20222202        0.092469       0.008551
         191  ( 3:1:   1/  10)   02222220        0.076270       0.005817
 
  The CI coefficients for the MIXED state nr.   2
--------------------------------------------------------------------------------
 CI COEFFICIENTS LARGER THAN  0.50D-01
  Occupation of active orbitals, and spin coupling
  of open shells. (u,d: Spin up or down).
  SGUGA info is (Midvert:IsyUp:UpperWalk/LowerWalk)
        Conf  SGUGA info        Occupation    Coefficient         Weight
           2  ( 1:1:   2/   1)   22222ud0       -0.225345       0.050780
           3  ( 1:1:   3/   1)   2222u2d0        0.065743       0.004322
          21  ( 2:1:   1/   1)   222u22d0       -0.079696       0.006351
          24  ( 2:1:   4/   1)   222u220d        0.117575       0.013824
          41  ( 2:1:   1/   2)   22u222d0       -0.912276       0.832247
          43  ( 2:1:   3/   2)   22u2d220       -0.170147       0.028950
          45  ( 2:1:   5/   2)   22u22dud       -0.060777       0.003694
          47  ( 2:1:   7/   2)   22u22udd        0.103608       0.010735
          55  ( 2:1:  15/   2)   22u220d2       -0.077969       0.006079
         161  ( 3:1:   1/   7)   u2d22220        0.120645       0.014555
         219  ( 4:1:   1/   4)   2uu222dd        0.064634       0.004178
         294  ( 5:1:   2/  15)   20u222d2        0.093491       0.008741
 
  The CI coefficients for the MIXED state nr.   3
--------------------------------------------------------------------------------
 CI COEFFICIENTS LARGER THAN  0.50D-01
  Occupation of active orbitals, and spin coupling
  of open shells. (u,d: Spin up or down).
  SGUGA info is (Midvert:IsyUp:UpperWalk/LowerWalk)
        Conf  SGUGA info        Occupation    Coefficient         Weight
           7  ( 1:1:   7/   1)   22222u0d        0.071879       0.005167
          21  ( 2:1:   1/   1)   222u22d0        0.101341       0.010270
          24  ( 2:1:   4/   1)   222u220d       -0.946167       0.895232
          32  ( 2:1:  12/   1)   222u022d        0.083878       0.007035
          33  ( 2:1:  13/   1)   222u2d02        0.088735       0.007874
          41  ( 2:1:   1/   2)   22u222d0       -0.117342       0.013769
         115  ( 3:1:   5/   2)   22ud2202       -0.050441       0.002544
         125  ( 3:1:   5/   3)   2u2d2202       -0.180376       0.032535
         213  ( 4:1:   1/   3)   u22u22dd        0.080639       0.006503
         269  ( 5:1:   1/   9)   022u222d       -0.077142       0.005951
 
  The CI coefficients for the MIXED state nr.   4
--------------------------------------------------------------------------------
 CI COEFFICIENTS LARGER THAN  0.50D-01
  Occupation of active orbitals, and spin coupling
  of open shells. (u,d: Spin up or down).
  SGUGA info is (Midvert:IsyUp:UpperWalk/LowerWalk)
        Conf  SGUGA info        Occupation    Coefficient         Weight
           2  ( 1:1:   2/   1)   22222ud0        0.087648       0.007682
           3  ( 1:1:   3/   1)   2222u2d0        0.931744       0.868148
           7  ( 1:1:   7/   1)   22222u0d       -0.100355       0.010071
          10  ( 1:1:  10/   1)   2222udud        0.051296       0.002631
          12  ( 1:1:  12/   1)   2222uudd       -0.090581       0.008205
          18  ( 1:1:  18/   1)   2222u0d2        0.079810       0.006370
          68  ( 2:1:   8/   3)   2u22u2dd       -0.068474       0.004689
          81  ( 2:1:   1/   4)   u22222d0        0.073165       0.005353
          83  ( 2:1:   3/   4)   u222d220       -0.238447       0.056857
         177  ( 3:1:   7/   8)   2022u2d2       -0.093700       0.008780
 
  The CI coefficients for the MIXED state nr.   5
--------------------------------------------------------------------------------
 CI COEFFICIENTS LARGER THAN  0.50D-01
  Occupation of active orbitals, and spin coupling
  of open shells. (u,d: Spin up or down).
  SGUGA info is (Midvert:IsyUp:UpperWalk/LowerWalk)
        Conf  SGUGA info        Occupation    Coefficient         Weight
           1  ( 1:1:   1/   1)   22222200        0.064299       0.004134
           2  ( 1:1:   2/   1)   22222ud0        0.255986       0.065529
           3  ( 1:1:   3/   1)   2222u2d0       -0.124459       0.015490
           7  ( 1:1:   7/   1)   22222u0d       -0.872862       0.761889
          14  ( 1:1:  14/   1)   22220u2d       -0.082458       0.006799
          15  ( 1:1:  15/   1)   22222002       -0.180535       0.032593
          24  ( 2:1:   4/   1)   222u220d       -0.072438       0.005247
          41  ( 2:1:   1/   2)   22u222d0       -0.068268       0.004661
          73  ( 2:1:  13/   3)   2u222d02       -0.223419       0.049916
          81  ( 2:1:   1/   4)   u22222d0        0.059222       0.003507
          85  ( 2:1:   5/   4)   u2222dud       -0.055090       0.003035
          87  ( 2:1:   7/   4)   u2222udd        0.086708       0.007518
         175  ( 3:1:   5/   8)   20222202        0.106792       0.011405
         193  ( 3:1:   3/  10)   02222u2d       -0.069113       0.004777
 
  The CI coefficients for the MIXED state nr.   6
--------------------------------------------------------------------------------
 CI COEFFICIENTS LARGER THAN  0.50D-01
  Occupation of active orbitals, and spin coupling
  of open shells. (u,d: Spin up or down).
  SGUGA info is (Midvert:IsyUp:UpperWalk/LowerWalk)
        Conf  SGUGA info        Occupation    Coefficient         Weight
           2  ( 1:1:   2/   1)   22222ud0        0.836642       0.699970
           7  ( 1:1:   7/   1)   22222u0d        0.239402       0.057313
          21  ( 2:1:   1/   1)   222u22d0       -0.319239       0.101914
          25  ( 2:1:   5/   1)   222u2dud        0.069555       0.004838
          27  ( 2:1:   7/   1)   222u2udd       -0.103107       0.010631
          41  ( 2:1:   1/   2)   22u222d0       -0.183948       0.033837
          65  ( 2:1:   5/   3)   2u222dud        0.131871       0.017390
          67  ( 2:1:   7/   3)   2u222udd       -0.188232       0.035431
          73  ( 2:1:  13/   3)   2u222d02        0.061400       0.003770
         176  ( 3:1:   6/   8)   20222ud2       -0.122129       0.014915
 
  The CI coefficients for the MIXED state nr.   7
--------------------------------------------------------------------------------
 CI COEFFICIENTS LARGER THAN  0.50D-01
  Occupation of active orbitals, and spin coupling
  of open shells. (u,d: Spin up or down).
  SGUGA info is (Midvert:IsyUp:UpperWalk/LowerWalk)
        Conf  SGUGA info        Occupation    Coefficient         Weight
           2  ( 1:1:   2/   1)   22222ud0       -0.287871       0.082870
           7  ( 1:1:   7/   1)   22222u0d       -0.118315       0.013998
          21  ( 2:1:   1/   1)   222u22d0       -0.829362       0.687841
          24  ( 2:1:   4/   1)   222u220d       -0.103393       0.010690
          25  ( 2:1:   5/   1)   222u2dud        0.214563       0.046037
          27  ( 2:1:   7/   1)   222u2udd       -0.303514       0.092121
          41  ( 2:1:   1/   2)   22u222d0        0.132373       0.017523
          67  ( 2:1:   7/   3)   2u222udd        0.064226       0.004125
         112  ( 3:1:   2/   2)   22ud22ud        0.070345       0.004948
         201  ( 4:1:   1/   1)   22uu22dd        0.073504       0.005403
         210  ( 4:1:   4/   2)   2u2u2dd2        0.075674       0.005727
         262  ( 5:1:   2/   7)   202u22d2        0.075616       0.005718
 
--
 
--- Stop Module: caspt2 at Wed Nov 13 20:56:53 2024 /rc=_RC_ALL_IS_WELL_ ---
*** files: xmldump
    saved to directory /home/pcaah4
--- Module caspt2 spent 6 minutes 59 seconds ---

.##################.
.# Happy landing! #.
.##################.

    Timing: Wall=675.43 User=588.85 System=77.42
******************************************************
*** WorkDir at /srv/COMMUNAL_SCRATCH/10403 cleaned ***
******************************************************
