   This run of MOLCAS is using the pymolcas driver

                             OPE
                             OPE          NMOL  CASOP  ENMOLC A   SO
                 OPE        NMOLC        AS  OP EN  MO LC     AS  OP
                OPENM       OL CA        SO  PE NM  OL CA     SOP EN
                OP EN      MO   LC       AS  OP ENMOL  CASO   PENMOL
                OP  EN     MO   LC       AS  OP EN     MO     LC ASO
               OP   E  NMOL  C  AS       OP  EN MO     LC     AS  OP
               OP  E   NMO   LC AS        OPEN  MO     LCASOP EN   M
               O  PEN   MO  LCA  SO
            OPE   NMO   L   CAS    OP
        OPENMOL  CASOP     ENMOL   CASOPE
     OPENMOLCA   SOPENMOLCASOPEN   MOLCASOPE
    OPENMOLCAS   OP           EN   MOL    CAS
    OPENMOLCAS       OP  ENM        O     LCA
    OPENMOLCAS    OPEN  MOLCASO     P  E  NMO
    OPENMOLCAS     OP               E  N  MOL
    OPENMOLCA   SO           PENM   O  L  CAS    OPEN    MO    LCAS
    OPENMOLCA   SOP           ENM   O  L  CAS   OP  EN  MOLC  AS   O
    OPENMOLCA   SOPE           NM      O  LCA   S      OP  EN MO
    OPENMOLC                AS         O  PEN   M      OL  CA  SOPE
    OPENMO        LCASOPE  NMOL        C  ASO   P      ENMOLC     AS
    OPE     NMO      LCA  SO     P     E   NM   OL  CA SO  PE N   MO
          OPENMOLCA            SOPE   NMO        LCAS  O    P  ENMO
     OPENMOLCASOPENMOLCASOPENMOLCASOPENMOLCA
        OPENMOLCASOPENMOLCASOPENMOLCASOPE
            OPENMOLCASOPENMOLCASOPENM
               OPENMOLCASOPENMOLCA        version: v23.06
                   OPENMOLCASO
                       OPE                tag:

 OpenMolcas is free software; you can redistribute it and/or modify it
 under the terms of the GNU Lesser General Public License version 2.1.
 OpenMolcas is distributed in the hope that it will be useful, but it
 is provided "as is" and without any express or implied warranties.
 For more details see the full text of the license in the file
 LICENSE or in <http://www.gnu.org/licenses/>.

                 Copyright (C) The OpenMolcas Authors
           For the author list and the recommended citation,
                   consult the file CONTRIBUTORS.md

           *************************************************
           * pymolcas version py2.24                       *
           *   build 4567b286dd94b1984b333a4ddf893180      *
           *   (after the EMIL interpreter by V. Veryazov) *
           *************************************************

configuration info
------------------
Host name: loginchem01.nottingham.ac.uk (Linux)
C Compiler ID: Intel
C flags: -std=gnu99 -gcc-sys -qopenmp
Fortran Compiler ID: Intel
Fortran flags: -fpp -i8 -heap-arrays -qopenmp
Definitions: _MOLCAS_;_I8_;_LINUX_
Parallel: OFF (GA=OFF)


   ------------------------------------------------------------------------------------------------------------
  |
  |              Project: orca_geometry_optimisation_210_105_BP86_def2-SVP_def2J_scf_cas1_ras12i11_cas2_ras12i8
  |       Submitted from: /home/pcaah4
  |         Scratch area: /srv/COMMUNAL_SCRATCH/10404
  |      Save outputs to: /home/pcaah4
  |               Molcas: /software/chemistry/openmolcas/openmolcas-23.06-openmp
  |
  | Scratch area is empty
  |
  |       MOLCAS_DRIVER = /software/chemistry/openmolcas/openmolcas-23.06-openmp/sbin/pymolcas
  | MOLCAS_KEEP_WORKDIR = NO
  |       MOLCAS_NPROCS = 1
  |       MOLCAS_SOURCE = /software/chemistry/openmolcas/openmolcas-23.06-openmp
  |    MOLCAS_STRUCTURE = 0
  |
   ------------------------------------------------------------------------------------------------------------

++ ---------   Input file   ---------

&SEWARD
TITLE
orca_geometry_optimisation_210_105_BP86_def2-SVP_def2J_scf_cas1_ras12i11
MULTIPOLES
2
SDIPOLE
ANGMOM
0 0 0
BASIS SET
C.ANO-S...4S3P1D.
C1            0.002298   -0.045384   -0.035826 /Angstrom
C3            2.157704    1.171192   -0.019118 /Angstrom
C4            3.489655    0.924462   -0.740176 /Angstrom
C6            4.748280    1.277965   -2.842111 /Angstrom
C19          -0.657400   -1.412657    0.111519 /Angstrom
END OF BASIS
BASIS SET
N.ANO-S...4S3P1D.
N2            1.380015   -0.057557   -0.029663 /Angstrom
N5            3.582211    1.460779   -1.998187 /Angstrom
END OF BASIS
BASIS SET
O.ANO-S...4S3P1D.
O7           -0.648025    0.991074   -0.165054 /Angstrom
O8            4.366438    0.228308   -0.225465 /Angstrom
END OF BASIS
BASIS SET
H.ANO-S...2S1P.
H9           -1.217453   -1.437044    1.068282 /Angstrom
H10          -1.400720   -1.536386   -0.700055 /Angstrom
H11           0.052534   -2.262696    0.089102 /Angstrom
H12           1.884076   -0.916682    0.202131 /Angstrom
H13           1.526765    1.956737   -0.481148 /Angstrom
H14           2.398485    1.497215    1.018399 /Angstrom
H15           2.797238    2.011938   -2.347702 /Angstrom
H16           4.491230    0.753530   -3.787182 /Angstrom
H17           5.228974    2.246748   -3.095935 /Angstrom
H18           5.467518    0.659046   -2.272731 /Angstrom
END OF BASIS
END OF INPUT

&RASSCF
TITLE
orca_geometry_optimisation_210_105_BP86_def2-SVP_def2J_scf_cas1_ras12i11
LUMORB
SPIN
1
SYMMETRY
1
NACTEL
12  0  0
INACTIVE
29
DELETED  ! delete Rydberg orbitals from an initial CAS(12,11) if done
3
FROZEN
0
RAS2
8
ITERATIONS
64 25
CIROOT
7 7
1 2 3 4 5 6 7
1 1 1 1 1 1 1
LEVSHFT
0.3
CIMX
20
FILEorb = /home/pcaah4/outputs/cas1_ras12i11_rasorb_files/orca_geometry_optimisation_210_105_BP86_def2-SVP_def2J_scf_cas1_ras12i11.RasOrb
ALTEr
4
 1 36 38
 1 38 210
 1 39 211
 1 40 212
END OF INPUT

&RASSI
NROF JOBIPH
    1 7
    1 2 3 5 4 6 7
TOFILE
TRDI
TDMN
1.0D-6
END OF INPUT

&CASPT2
TITLE
orca_geometry_optimisation_210_105_BP86_def2-SVP_def2J_scf_cas1_ras12i11
MULTISTATE
7 1 2 3 4 5 6 7
SHIFT
0.35
MAXITER
50
END OF INPUT

-- ----------------------------------

--- Start Module: seward at Wed Nov 13 21:00:34 2024 ---
 
()()()()()()()()()()()()()()()()()()()()()()()()()()()()()()()()()()()()()()()()()()()()()()()()()()

                                              &SEWARD

                                   only a single process is used
                       available to each process: 2.0 GB of memory, 1 thread
                                            pid: 1804057
()()()()()()()()()()()()()()()()()()()()()()()()()()()()()()()()()()()()()()()()()()()()()()()()()()
 
               SEWARD will generate:
                  Multipole Moment integrals up to order  2
                  Kinetic Energy integrals
                  Nuclear Attraction integrals (point charge)
                  One-Electron Hamiltonian integrals
                  Velocity integrals
                  Orbital angular momentum around ( 0.0000  0.0000  0.0000 )
                  Velocity quadrupole around ( 3.8825  0.9463 -1.2689 )
                  Two-Electron Repulsion integrals
 
 Title:
            orca_geometry_optimisation_210_105_BP86_def2-SVP_def2J_scf_cas1_ras12i11    
 
 
                   Integrals are discarded if absolute value <: 0.10E-13
                   Integral cutoff threshold is set to       <: 0.10E-15
 
++    Symmetry information:
      ---------------------
 
                    Character Table for C1 
 
                             E  
                    a        1  x, y, xy, Rz, z, xz, Ry, yz, Rx, I
--
 
 
++    Basis set information:
      ----------------------
 
 
      Basis set label: C.ANO-S...4S3P1D......
 
      Electronic valence basis set:
      ------------------
      Associated Effective Charge   6.000000 au
      Associated Actual Charge      6.000000 au
      Nuclear Model: Point charge
 
      Shell  nPrim  nBasis  Cartesian Spherical Contaminant
         s      10       4        X                  
         p       6       3        X                  
         d       3       1                 X         
 
 
      Basis set label: N.ANO-S...4S3P1D......
 
      Electronic valence basis set:
      ------------------
      Associated Effective Charge   7.000000 au
      Associated Actual Charge      7.000000 au
      Nuclear Model: Point charge
 
      Shell  nPrim  nBasis  Cartesian Spherical Contaminant
         s      10       4        X                  
         p       6       3        X                  
         d       3       1                 X         
 
 
      Basis set label: O.ANO-S...4S3P1D......
 
      Electronic valence basis set:
      ------------------
      Associated Effective Charge   8.000000 au
      Associated Actual Charge      8.000000 au
      Nuclear Model: Point charge
 
      Shell  nPrim  nBasis  Cartesian Spherical Contaminant
         s      10       4        X                  
         p       6       3        X                  
         d       3       1                 X         
 
 
      Basis set label: H.ANO-S...2S1P......
 
      Electronic valence basis set:
      ------------------
      Associated Effective Charge   1.000000 au
      Associated Actual Charge      1.000000 au
      Nuclear Model: Point charge
 
      Shell  nPrim  nBasis  Cartesian Spherical Contaminant
         s       7       2        X                  
         p       3       1        X                  
--
 
 
++    Molecular structure info:
      -------------------------
 
                    ************************************************ 
                    **** Cartesian Coordinates / Bohr, Angstrom **** 
                    ************************************************ 
 
     Center  Label                x              y              z                     x              y              z
        1      C1               0.004343      -0.085763      -0.067701              0.002298      -0.045384      -0.035826
        2      C3               4.077470       2.213232      -0.036128              2.157704       1.171192      -0.019118
        3      C4               6.594492       1.746980      -1.398730              3.489655       0.924462      -0.740176
        4      C6               8.972949       2.415004      -5.370811              4.748280       1.277965      -2.842111
        5      C19             -1.242306      -2.669535       0.210740             -0.657400      -1.412657       0.111519
        6      N2               2.607850      -0.108767      -0.056055              1.380015      -0.057557      -0.029663
        7      N5               6.769398       2.760472      -3.776026              3.582211       1.460779      -1.998187
        8      O7              -1.224590       1.872858      -0.311907             -0.648025       0.991074      -0.165054
        9      O8               8.251372       0.431440      -0.426067              4.366438       0.228308      -0.225465
       10      H9              -2.300653      -2.715620       2.018760             -1.217453      -1.437044       1.068282
       11      H10             -2.646977      -2.903349      -1.322912             -1.400720      -1.536386      -0.700055
       12      H11              0.099275      -4.275876       0.168378              0.052534      -2.262696       0.089102
       13      H12              3.560388      -1.732278       0.381972              1.884076      -0.916682       0.202131
       14      H13              2.885168       3.697697      -0.909238              1.526765       1.956737      -0.481148
       15      H14              4.532480       2.829326       1.924495              2.398485       1.497215       1.018399
       16      H15              5.286014       3.802012      -4.436514              2.797238       2.011938      -2.347702
       17      H16              8.487195       1.423965      -7.156737              4.491230       0.753530      -3.787182
       18      H17              9.881329       4.245738      -5.850469              5.228974       2.246748      -3.095935
       19      H18             10.332112       1.245416      -4.294839              5.467518       0.659046      -2.272731
 
                    ************************************************* 
                    **** InterNuclear Distances / Bohr, Angstrom **** 
                    ************************************************* 
 
     Atom centers         Bohr        Angstrom
   16 H15       7 N5      1.929113        1.020843
   13 H12       6 N2      1.932610        1.022693
   19 H18       4 C6      2.091166        1.106597
   11 H10       5 C19     2.092812        1.107468
   12 H11       5 C19     2.093314        1.107734
   14 H13       2 C3      2.094646        1.108439
   10 H9        5 C19     2.095509        1.108896
   18 H17       4 C6      2.099241        1.110871
   17 H16       4 C6      2.099439        1.110975
   15 H14       2 C3      2.104911        1.113871
    8 O7        1 C1      2.325104        1.230392
    9 O8        3 C4      2.328512        1.232196
    7 N5        3 C4      2.590231        1.370691
    6 N2        1 C1      2.603635        1.377785
    7 N5        4 C6      2.741957        1.450981
    6 N2        2 C3      2.748064        1.454213
    5 C19       1 C1      2.882280        1.525237
    3 C4        2 C3      2.899910        1.534566
   11 H10      10 H9      3.364812        1.780582
   15 H14      14 H13     3.390833        1.794352
   18 H17      17 H16     3.407690        1.803272
   12 H11      10 H9      3.408514        1.803708
   19 H18      18 H17     3.409563        1.804263
   19 H18      17 H16     3.409700        1.804336
   12 H11      11 H10     3.413163        1.806168
   16 H15       3 C4      3.894021        2.060627
   19 H18       7 N5      3.906084        2.067011
   14 H13       6 N2      3.910754        2.069482
   13 H12       1 C1      3.944448        2.087312
   13 H12       2 C3      4.001154        2.117319
   17 H16       7 N5      4.020731        2.127679
   18 H17       7 N5      4.024108        2.129466
   15 H14       6 N2      4.032266        2.133783
   16 H15       4 C6      4.048480        2.142364
   15 H14       3 C4      4.057979        2.147390
   11 H10       1 C1      4.067412        2.152382
   10 H9        1 C1      4.072158        2.154893
   12 H11       1 C1      4.197831        2.221397
   14 H13       3 C4      4.219477        2.232851
   16 H15      14 H13     4.268093        2.258578
   13 H12      12 H11     4.300560        2.275758
    8 O7        6 N2      4.322025        2.287117
    9 O8        7 N5      4.340837        2.297072
   19 H18       9 O8      4.467598        2.364151
   14 H13       8 O7      4.536182        2.400444
    9 O8        2 C3      4.555030        2.410418
    8 O7        5 C19     4.572397        2.419608
    6 N2        3 C4      4.597813        2.433058
    6 N2        5 C19     4.631675        2.450977
    7 N5        2 C3      4.640344        2.455564
    2 C3        1 C1      4.677258        2.475098
    4 C6        3 C4      4.677686        2.475325
   19 H18       3 C4      4.754873        2.516170
   17 H16      16 H15     4.827243        2.554467
   18 H17      16 H15     4.828362        2.555059
   14 H13       1 C1      4.829276        2.555543
   16 H15       2 C3      4.831997        2.556983
   12 H11       6 N2      4.869098        2.576616
   13 H12       5 C19     4.896288        2.591004
   15 H14      13 H12     4.912492        2.599579
   14 H13       7 N5      4.917734        2.602353
   13 H12       3 C4      4.947921        2.618327
   15 H14       9 O8      5.010505        2.651445
   11 H10       8 O7      5.085024        2.690879
   13 H12       9 O8      5.228760        2.766941
   10 H9        8 O7      5.257761        2.782287
    8 O7        2 C3      5.320126        2.815290
    9 O8        4 C6      5.376402        2.845069
   14 H13      13 H12     5.622079        2.975076
   19 H18      16 H15     5.658565        2.994384
--
 
 
            Nuclear Potential Energy            447.43682337 au
 
 
      Basis set specifications :
      Symmetry species         a  
      Basis functions          212
 
 
      Input file to MOLDEN was generated!
 
--- Stop Module: seward at Wed Nov 13 21:02:22 2024 /rc=_RC_ALL_IS_WELL_ ---
*** files: orca_geometry_optimisation_210_105_BP86_def2-SVP_def2J_scf_cas1_ras12i11_cas2_ras12i8.GssOrb
           orca_geometry_optimisation_210_105_BP86_def2-SVP_def2J_scf_cas1_ras12i11_cas2_ras12i8.guessorb.molden xmldump
    saved to directory /home/pcaah4
--- Module seward spent 1 minute 47 seconds ---

*** symbolic link created: INPORB -> orca_geometry_optimisation_210_105_BP86_def2-SVP_def2J_scf_cas1_ras12i11_cas2_ras12i8.GssOrb
--- Start Module: rasscf at Wed Nov 13 21:02:22 2024 ---
 
()()()()()()()()()()()()()()()()()()()()()()()()()()()()()()()()()()()()()()()()()()()()()()()()()()

                                              &RASSCF

                                   only a single process is used
                       available to each process: 2.0 GB of memory, 1 thread
                                            pid: 1804545
()()()()()()()()()()()()()()()()()()()()()()()()()()()()()()()()()()()()()()()()()()()()()()()()()()
 
 
      Header of the ONEINT file:
      --------------------------
      orca_geometry_optimisation_210_105_BP86_def2-SVP_def2J_scf_cas1_ras12i11
      Integrals generated by Gateway/Seward, Wed Nov 13 21:00:34 2024
 
 
      OrdInt status: non-squared
 
 
      Cartesian coordinates in Angstrom:
      -----------------------------------------------------
      No.  Label        X            Y            Z        
      -----------------------------------------------------
       1   C1         0.00229800  -0.04538400  -0.03582600
       2   C3         2.15770400   1.17119200  -0.01911800
       3   C4         3.48965500   0.92446200  -0.74017600
       4   C6         4.74828000   1.27796500  -2.84211100
       5   C19       -0.65740000  -1.41265700   0.11151900
       6   N2         1.38001500  -0.05755700  -0.02966300
       7   N5         3.58221100   1.46077900  -1.99818700
       8   O7        -0.64802500   0.99107400  -0.16505400
       9   O8         4.36643800   0.22830800  -0.22546500
      10   H9        -1.21745300  -1.43704400   1.06828200
      11   H10       -1.40072000  -1.53638600  -0.70005500
      12   H11        0.05253400  -2.26269600   0.08910200
      13   H12        1.88407600  -0.91668200   0.20213100
      14   H13        1.52676500   1.95673700  -0.48114800
      15   H14        2.39848500   1.49721500   1.01839900
      16   H15        2.79723800   2.01193800  -2.34770200
      17   H16        4.49123000   0.75353000  -3.78718200
      18   H17        5.22897400   2.24674800  -3.09593500
      19   H18        5.46751800   0.65904600  -2.27273100
      -----------------------------------------------------
      Nuclear repulsion energy =  447.43682337
 
++    Wave function specifications:
      -----------------------------
 
      Number of closed shell electrons          58
      Number of electrons in active shells      12
      Max number of holes in RAS1 space          0
      Max nr of electrons in RAS3 space          0
      Number of inactive orbitals               29
      Number of active orbitals                  8
      Number of secondary orbitals             172
      Spin quantum number                      0.0
      State symmetry                             1
--
 
++    Orbital specifications:
      -----------------------
 
      Symmetry species                           1
                                                 a
      Frozen orbitals                            0
      Inactive orbitals                         29
      Active orbitals                            8
      RAS1 orbitals                              0
      RAS2 orbitals                              8
      RAS3 orbitals                              0
      Secondary orbitals                       172
      Deleted orbitals                           3
      Number of basis functions                212
--
 
++    CI expansion specifications:
      ----------------------------
 
      Number of CSFs                           336
      Number of determinants                   406
      Number of root(s) required                 7
      Root chosen for geometry opt.              7
      CI roots used                              1     2     3     4     5     6     7
      weights                                0.143 0.143 0.143 0.143 0.143 0.143 0.143
      highest root included in the CI            7
      max. size of the explicit Hamiltonian    200
--
 
++    Optimization specifications:
      ----------------------------
 
      RASSCF algorithm: Conventional
      Maximum number of macro iterations        64
      Maximum number of SX iterations           25
      Threshold for RASSCF energy            0.100E-07
      Threshold for max MO rotation          0.100E+00
      Threshold for max BLB element          0.100E-03
      Level shift parameter                  0.300E+00
      Make Quasi-Newton update
--
 
      The MO-coefficients are taken from the file:
      /home/pcaah4/outputs/cas1_ras12i11_rasorb_files/orca_geometry_optimisation_210_105_BP86_def2-SVP_def2J_scf_cas1_ras12i11.RasOrb                                                                                                                                 
      Title: RASSCF average (pseudo-natural) orbitals                                      
 
      Total molecular charge    0.00
 
      Molecular orbitals exchanged:
        In symmetry  1 :  36  38
        In symmetry  1 :  38 210
        In symmetry  1 :  39 211
        In symmetry  1 :  40 212
 
 
      ************************************************************************************************************************
      *                                                                                                                      *
      *                                            Wave function control section                                             *
      *                                                                                                                      *
      ************************************************************************************************************************
 
 
                                         RASSCF iterations: Energy and convergence statistics
                                         ----------------------------------------------------
 
      Iter CI   SX   CI       RASSCF       Energy    max ROT     max BLB   max BLB  Level Ln srch  Step   QN   Walltime
          iter iter root      energy       change     param      element    value   shift minimum  type update hh:mm:ss
 Nr of preliminary CI iterations:   5
        1   1   15    0  -453.70327160    0.00E+00  -0.23E-01   34 144 1 -0.13E-01*  0.18   0.00    SX    NO    0:00:13
        2   3    8    0  -453.70622461   -0.30E-02* -0.14E-01   11  40 1  0.31E-02*  0.18   0.00    SX    NO    0:00:06
        3   1    8    0  -453.70646146   -0.24E-03*  0.60E-02   22  98 1 -0.19E-02*  0.18   0.00    SX    NO    0:00:06
        4   5    7    0  -453.70657688   -0.12E-03* -0.46E-02   28  32 1  0.38E-03*  0.19   0.00    SX    NO    0:00:06
        5   3    7    0  -453.70660052   -0.24E-04* -0.61E-02   22  98 1 -0.56E-03*  0.19   1.48    QN   YES    0:00:06
        6   4    7    0  -453.70661311   -0.13E-04* -0.59E-03   22  98 1  0.14E-03*  0.19   0.92    QN   YES    0:00:06
        7   3    6    0  -453.70661393   -0.82E-06*  0.73E-03   22  98 1 -0.16E-03*  0.19   1.14    QN   YES    0:00:06
        8   4    6    0  -453.70661438   -0.45E-06*  0.27E-03   22  98 1 -0.33E-04   0.19   1.22    QN   YES    0:00:06
        9   3    5    0  -453.70661447   -0.86E-07* -0.16E-03   22  98 1 -0.20E-04   0.19   1.42    QN   YES    0:00:06
       10   3    5    0  -453.70661449   -0.24E-07* -0.39E-04    1  39 1  0.41E-05   0.19   1.00    QN   YES    0:00:06
       11   1    4    0  -453.70661449   -0.18E-08  -0.41E-04   22  77 1 -0.30E-05   0.19   1.79    QN   YES    0:00:06
      Convergence after 11 iterations
       12   1    4    0  -453.70661449   -0.73E-09  -0.41E-04   33  70 1  0.12E-05   0.19   1.79    QN   YES    0:00:06
 
      ************************************************************************************************************************
                                                      Wave function printout:
                       occupation of active orbitals, and spin coupling of open shells (u,d: Spin up or down)
      ************************************************************************************************************************
 
      Note: transformation to natural orbitals
      has been made, which may change the order of the CSFs.
 
      printout of CI-coefficients larger than  0.05 for root  1
      energy=    -453.958152
      conf/sym  11111111     Coeff  Weight
             1  22222200   0.96248 0.92636
             6  22220220  -0.08700 0.00757
             7  22222u0d   0.13762 0.01894
            15  22222002  -0.07646 0.00585
            64  2u22220d  -0.07799 0.00608
            73  2u222d02   0.06384 0.00408
            81  u22222d0  -0.09509 0.00904
           175  20222202  -0.09986 0.00997
           191  02222220  -0.07797 0.00608
 
      printout of CI-coefficients larger than  0.05 for root  2
      energy=    -453.747212
      conf/sym  11111111     Coeff  Weight
            21  222u22d0   0.10998 0.01210
            24  222u220d   0.95498 0.91199
            32  222u022d  -0.08480 0.00719
            33  222u2d02  -0.09003 0.00811
           115  22ud2202   0.05219 0.00272
           125  2u2d2202   0.18492 0.03420
           213  u22u22dd   0.07837 0.00614
           269  022u222d   0.07824 0.00612
 
      printout of CI-coefficients larger than  0.05 for root  3
      energy=    -453.737154
      conf/sym  11111111     Coeff  Weight
             2  22222ud0  -0.22430 0.05031
            41  22u222d0  -0.92264 0.85127
            43  22u2d220   0.17238 0.02971
            45  22u22dud  -0.06231 0.00388
            47  22u22udd   0.10566 0.01116
            55  22u220d2  -0.07888 0.00622
           161  u2d22220  -0.12573 0.01581
           219  2uu222dd   0.06581 0.00433
           222  2uu22dd2  -0.05186 0.00269
           294  20u222d2   0.09475 0.00898
 
      printout of CI-coefficients larger than  0.05 for root  4
      energy=    -453.646194
      conf/sym  11111111     Coeff  Weight
             1  22222200   0.05793 0.00336
             2  22222ud0  -0.39415 0.15536
             3  2222u2d0  -0.79742 0.63588
             6  22220220  -0.05621 0.00316
             7  22222u0d  -0.26954 0.07265
            12  2222uudd   0.08460 0.00716
            15  22222002  -0.06195 0.00384
            18  2222u0d2  -0.06792 0.00461
            41  22u222d0   0.12616 0.01592
            65  2u222dud  -0.05583 0.00312
            67  2u222udd   0.07581 0.00575
            68  2u22u2dd   0.05871 0.00345
            73  2u222d02  -0.06767 0.00458
            81  u22222d0  -0.08706 0.00758
            83  u222d220  -0.19795 0.03919
           176  20222ud2   0.05230 0.00274
           177  2022u2d2   0.08060 0.00650
 
      printout of CI-coefficients larger than  0.05 for root  5
      energy=    -453.634627
      conf/sym  11111111     Coeff  Weight
             1  22222200  -0.05144 0.00265
             2  22222ud0   0.69401 0.48165
             3  2222u2d0  -0.49750 0.24750
             7  22222u0d   0.36728 0.13490
            15  22222002   0.08364 0.00700
            41  22u222d0  -0.15765 0.02485
            61  2u2222d0   0.05114 0.00262
            65  2u222dud   0.11250 0.01266
            67  2u222udd  -0.14732 0.02170
            73  2u222d02   0.09417 0.00887
            83  u222d220  -0.13399 0.01795
           176  20222ud2  -0.09620 0.00926
 
      printout of CI-coefficients larger than  0.05 for root  6
      energy=    -453.622636
      conf/sym  11111111     Coeff  Weight
             1  22222200  -0.09229 0.00852
             2  22222ud0  -0.42006 0.17645
             3  2222u2d0  -0.06610 0.00437
             7  22222u0d   0.69276 0.47992
            14  22220u2d   0.06421 0.00412
            15  22222002   0.13175 0.01736
            21  222u22d0   0.42971 0.18465
            25  222u2dud  -0.10727 0.01151
            27  222u2udd   0.15322 0.02348
            41  22u222d0   0.06118 0.00374
            65  2u222dud  -0.06674 0.00445
            67  2u222udd   0.10804 0.01167
            73  2u222d02   0.17781 0.03162
            87  u2222udd   0.06807 0.00463
           175  20222202  -0.07509 0.00564
           176  20222ud2   0.06746 0.00455
           193  02222u2d   0.05251 0.00276
 
      printout of CI-coefficients larger than  0.05 for root  7
      energy=    -453.600327
      conf/sym  11111111     Coeff  Weight
             2  22222ud0  -0.20755 0.04308
             7  22222u0d   0.38056 0.14482
            15  22222002   0.08994 0.00809
            21  222u22d0  -0.77728 0.60416
            24  222u220d   0.10744 0.01154
            25  222u2dud   0.19930 0.03972
            27  222u2udd  -0.28082 0.07886
            41  22u222d0   0.07995 0.00639
            67  2u222udd   0.05352 0.00286
            73  2u222d02   0.09409 0.00885
            81  u22222d0   0.06283 0.00395
           112  22ud22ud   0.06968 0.00486
           201  22uu22dd   0.07179 0.00515
           210  2u2u2dd2   0.06855 0.00470
           262  202u22d2   0.07002 0.00490
 
      Natural orbitals and occupation numbers for root  1
      sym 1:   1.970665   1.995827   1.999859   1.999693   1.994142   1.954900   0.035472   0.049444
 
      Natural orbitals and occupation numbers for root  2
      sym 1:   1.970697   1.999859   1.999636   1.007369   1.994586   1.999441   0.035164   0.993247
 
      Natural orbitals and occupation numbers for root  3
      sym 1:   1.999859   1.994161   1.004237   1.999383   1.999010   1.954600   0.998200   0.050551
 
      Natural orbitals and occupation numbers for root  4
      sym 1:   1.971200   1.959085   1.999103   1.999397   1.123253   1.892737   0.920741   0.134484
 
      Natural orbitals and occupation numbers for root  5
      sym 1:   1.983999   1.934733   1.998411   1.999289   1.909945   1.082080   0.955239   0.136304
 
      Natural orbitals and occupation numbers for root  6
      sym 1:   1.992261   1.947443   1.997541   1.861184   1.982648   1.170658   0.206952   0.841313
 
      Natural orbitals and occupation numbers for root  7
      sym 1:   1.997998   1.972935   1.992188   1.288520   1.988525   1.802701   0.727020   0.230113
 
      ************************************************************************************************************************
      *                                                                                                                      *
      *                                                    Final results                                                     *
      *                                                                                                                      *
      ************************************************************************************************************************
 
 
++    Wave function specifications:
      -----------------------------
 
      Number of closed shell electrons          58
      Number of electrons in active shells      12
      Max number of holes in RAS1 space          0
      Max nr of electrons in RAS3 space          0
      Number of inactive orbitals               29
      Number of active orbitals                  8
      Number of secondary orbitals             172
      Spin quantum number                      0.0
      State symmetry                             1
--
 
++    Orbital specifications:
      -----------------------
 
      Symmetry species                           1
                                                 a
      Frozen orbitals                            0
      Inactive orbitals                         29
      Active orbitals                            8
      RAS1 orbitals                              0
      RAS2 orbitals                              8
      RAS3 orbitals                              0
      Secondary orbitals                       172
      Deleted orbitals                           3
      Number of basis functions                212
--
 
++    CI expansion specifications:
      ----------------------------
 
      Number of CSFs                           336
      Number of determinants                   406
      Number of root(s) required                 7
      CI roots used                              1     2     3     4     5     6     7
      weights                                0.143 0.143 0.143 0.143 0.143 0.143 0.143
      highest root included in the CI            7
      Root passed to geometry opt.               7
--
 
++    Final optimization conditions:
      ------------------------------
 
      Average CI energy                            -453.70661449
      RASSCF energy for state  7                   -453.60032699
      Super-CI energy                                -0.00000000
      RASSCF energy change                            0.00000000
      Max change in MO coefficients              -0.460E-04
      Max non-diagonal density matrix element    -0.414E-04
      Maximum BLB matrix element                  0.118E-05
      (orbital pair  33,  70 in symmetry   1)
      Norm of electronic gradient            0.272E+00
--
 
 
      Final state energy(ies):
      ------------------------
 
::    RASSCF root number  1 Total energy:   -453.95815179
::    RASSCF root number  2 Total energy:   -453.74721207
::    RASSCF root number  3 Total energy:   -453.73715386
::    RASSCF root number  4 Total energy:   -453.64619413
::    RASSCF root number  5 Total energy:   -453.63462709
::    RASSCF root number  6 Total energy:   -453.62263553
::    RASSCF root number  7 Total energy:   -453.60032699
 
++    Molecular orbitals:
      -------------------
 
      Pseudonatural active orbitals and approximate occupation numbers
 
 
 
 
      Molecular orbitals for symmetry species 1: a  
 
 
      Orbital                 1         2         3         4         5         6         7         8         9        10
      Energy           -20.6056  -20.5171  -15.6386  -15.5814  -11.3425  -11.2883  -11.2856  -11.2608  -11.2604   -1.4272
      Occ. No.           2.0000    2.0000    2.0000    2.0000    2.0000    2.0000    2.0000    2.0000    2.0000    2.0000
 
     1 C1     1s         0.0003   -0.0001   -0.0003   -0.0001    0.9999    0.0001   -0.0000   -0.0001    0.0038   -0.0387
     2 C1     2s         0.0010   -0.0007   -0.0011   -0.0006    0.0020   -0.0005    0.0000   -0.0005    0.0006    0.3563
     3 C1     3s        -0.0004   -0.0005   -0.0004   -0.0004   -0.0003   -0.0005   -0.0000   -0.0004    0.0009   -0.0028
     4 C1     4s        -0.0004   -0.0001   -0.0001   -0.0001    0.0012   -0.0002   -0.0000   -0.0001    0.0003    0.0040
     5 C1     2px       -0.0012   -0.0002   -0.0017   -0.0004    0.0012    0.0000   -0.0002   -0.0002    0.0004   -0.0407
     6 C1     3px       -0.0008   -0.0001   -0.0012   -0.0005    0.0012   -0.0004   -0.0004   -0.0002   -0.0000    0.0274
     7 C1     4px        0.0001    0.0001    0.0001   -0.0001    0.0004   -0.0003   -0.0002   -0.0000   -0.0002   -0.0127
     8 C1     2py        0.0030   -0.0002   -0.0001   -0.0000    0.0011    0.0000   -0.0004   -0.0001    0.0006    0.0961
     9 C1     3py        0.0020   -0.0002   -0.0001   -0.0000    0.0009   -0.0005   -0.0004   -0.0002   -0.0001   -0.0696
    10 C1     4py       -0.0004   -0.0000   -0.0000   -0.0000    0.0007   -0.0004   -0.0000   -0.0000   -0.0003    0.0233
    11 C1     2pz       -0.0004   -0.0002   -0.0002   -0.0001   -0.0001   -0.0000    0.0000    0.0000   -0.0000   -0.0099
    12 C1     3pz       -0.0003   -0.0002   -0.0001   -0.0002   -0.0001   -0.0000    0.0000    0.0000    0.0001    0.0087
    13 C1     4pz        0.0001   -0.0001   -0.0000   -0.0000   -0.0001    0.0000   -0.0000    0.0000    0.0000   -0.0035
    14 C1     3d2-       0.0001    0.0000   -0.0001    0.0000   -0.0004    0.0000   -0.0000   -0.0000   -0.0001   -0.0324
    15 C1     3d1-      -0.0000   -0.0000   -0.0000   -0.0000   -0.0001    0.0000    0.0000    0.0000   -0.0000   -0.0074
    16 C1     3d0       -0.0000   -0.0000   -0.0001    0.0000   -0.0004   -0.0001    0.0000    0.0000   -0.0001   -0.0272
    17 C1     3d1+      -0.0000   -0.0000   -0.0000   -0.0000    0.0001    0.0000    0.0000   -0.0000    0.0000    0.0045
    18 C1     3d2+       0.0001   -0.0000    0.0002   -0.0000   -0.0000    0.0000    0.0000    0.0000    0.0000   -0.0116
    19 C3     1s         0.0001    0.0002   -0.0003    0.0001   -0.0001    0.9934   -0.1094    0.0000   -0.0000   -0.0090
    20 C3     2s         0.0008    0.0011   -0.0017    0.0008    0.0004   -0.0017   -0.0008    0.0005   -0.0006    0.0179
    21 C3     3s         0.0005    0.0007   -0.0009    0.0006    0.0002   -0.0029   -0.0006    0.0003   -0.0003   -0.0171
    22 C3     4s         0.0001    0.0001   -0.0002    0.0001   -0.0000    0.0006   -0.0003    0.0000   -0.0000   -0.0018
    23 C3     2px        0.0001   -0.0003    0.0003    0.0003    0.0008   -0.0009    0.0000   -0.0000   -0.0001   -0.0218
    24 C3     3px        0.0003   -0.0005   -0.0003    0.0003    0.0013   -0.0009   -0.0005   -0.0003   -0.0003   -0.0128
    25 C3     4px        0.0002   -0.0002   -0.0002   -0.0001    0.0004   -0.0005   -0.0001   -0.0002   -0.0001   -0.0071
    26 C3     2py       -0.0003    0.0002    0.0006   -0.0006    0.0004    0.0001    0.0003   -0.0000   -0.0000   -0.0192
    27 C3     3py       -0.0002    0.0003   -0.0000   -0.0004    0.0005    0.0002    0.0002    0.0000   -0.0002   -0.0054
    28 C3     4py        0.0001    0.0001   -0.0002    0.0001    0.0001   -0.0008   -0.0000    0.0000   -0.0001   -0.0047
    29 C3     2pz       -0.0001   -0.0006    0.0002    0.0004   -0.0001   -0.0001    0.0000   -0.0005    0.0002    0.0086
    30 C3     3pz       -0.0001   -0.0004    0.0004    0.0004   -0.0002   -0.0003    0.0003   -0.0006    0.0002    0.0128
    31 C3     4pz        0.0000    0.0002    0.0001    0.0001   -0.0001   -0.0002    0.0001   -0.0001    0.0000    0.0016
    32 C3     3d2-       0.0000    0.0001   -0.0000   -0.0000    0.0000   -0.0001   -0.0000   -0.0000   -0.0000    0.0035
    33 C3     3d1-      -0.0000   -0.0001    0.0000   -0.0000   -0.0000   -0.0000    0.0001    0.0000    0.0000    0.0002
    34 C3     3d0       -0.0000    0.0001   -0.0001   -0.0000   -0.0000    0.0001   -0.0000   -0.0000    0.0000   -0.0023
    35 C3     3d1+       0.0000   -0.0001    0.0000    0.0000    0.0000    0.0001    0.0000   -0.0001   -0.0000   -0.0005
    36 C3     3d2+      -0.0000   -0.0000   -0.0001    0.0000    0.0000    0.0000    0.0000    0.0001    0.0000   -0.0002
    37 C4     1s        -0.0000    0.0004    0.0000    0.0002   -0.0001    0.1094    0.9940    0.0004    0.0000    0.0001
    38 C4     2s        -0.0003    0.0015    0.0001    0.0010   -0.0009    0.0011    0.0026   -0.0003    0.0003    0.0262
    39 C4     3s        -0.0002    0.0001    0.0000    0.0004   -0.0008    0.0003    0.0002   -0.0003    0.0002    0.0075
    40 C4     4s        -0.0001   -0.0002    0.0000    0.0001   -0.0003    0.0002    0.0014   -0.0001    0.0001    0.0027
    41 C4     2px        0.0000    0.0022    0.0002    0.0002    0.0001   -0.0009    0.0001    0.0000   -0.0002   -0.0018
    42 C4     3px        0.0000    0.0013    0.0002    0.0001    0.0003   -0.0003    0.0001   -0.0005   -0.0003   -0.0018
    43 C4     4px        0.0000   -0.0004   -0.0000   -0.0001    0.0001    0.0002    0.0002   -0.0004   -0.0001   -0.0015
    44 C4     2py       -0.0000   -0.0020   -0.0002    0.0005   -0.0002    0.0004    0.0001   -0.0002    0.0002    0.0018
    45 C4     3py       -0.0001   -0.0015   -0.0001    0.0003   -0.0004    0.0005    0.0001   -0.0002    0.0003    0.0087
    46 C4     4py       -0.0000    0.0002    0.0000   -0.0000   -0.0001    0.0001   -0.0001    0.0000    0.0001    0.0021
    47 C4     2pz       -0.0002    0.0013   -0.0000   -0.0015   -0.0001    0.0008   -0.0008    0.0004    0.0000    0.0032
    48 C4     3pz       -0.0004    0.0010   -0.0001   -0.0011   -0.0002    0.0007   -0.0004    0.0010    0.0001    0.0025
    49 C4     4pz       -0.0001   -0.0001   -0.0001    0.0001   -0.0001   -0.0000   -0.0003    0.0004    0.0000    0.0016
    50 C4     3d2-       0.0000    0.0000   -0.0000    0.0000    0.0000    0.0000   -0.0003   -0.0000   -0.0000   -0.0010
    51 C4     3d1-       0.0000   -0.0000   -0.0000    0.0002    0.0000    0.0000   -0.0003   -0.0001   -0.0000   -0.0011
    52 C4     3d0        0.0000    0.0001    0.0000   -0.0001   -0.0000   -0.0000    0.0001    0.0001    0.0000    0.0002
    53 C4     3d1+      -0.0000   -0.0001    0.0000   -0.0001   -0.0000   -0.0000    0.0002   -0.0000    0.0000    0.0007
    54 C4     3d2+       0.0000    0.0000    0.0000    0.0000    0.0000    0.0000    0.0000    0.0000   -0.0000    0.0006
    55 C6     1s        -0.0000    0.0001    0.0001    0.0003   -0.0001    0.0000   -0.0004    0.9997    0.0000    0.0010
    56 C6     2s        -0.0000    0.0006    0.0009    0.0013   -0.0006   -0.0000   -0.0002    0.0000    0.0000    0.0100
    57 C6     3s        -0.0000    0.0005    0.0007    0.0003   -0.0005   -0.0000   -0.0003   -0.0016    0.0000    0.0078
    58 C6     4s        -0.0000    0.0001    0.0002   -0.0001   -0.0002   -0.0000   -0.0002    0.0009    0.0000    0.0026
    59 C6     2px        0.0000   -0.0002   -0.0002   -0.0004    0.0003   -0.0002    0.0002   -0.0001   -0.0001   -0.0059
    60 C6     3px        0.0000   -0.0002   -0.0002    0.0002    0.0002   -0.0002    0.0002    0.0002   -0.0001   -0.0052
    61 C6     4px       -0.0000   -0.0000    0.0000    0.0002    0.0000    0.0000    0.0000   -0.0005    0.0000   -0.0002
    62 C6     2py        0.0001    0.0000    0.0002    0.0002   -0.0001   -0.0001    0.0002    0.0001   -0.0001    0.0005
    63 C6     3py        0.0001    0.0001    0.0002    0.0002   -0.0000   -0.0002    0.0002   -0.0001   -0.0001   -0.0002
    64 C6     4py       -0.0000    0.0000   -0.0000   -0.0000    0.0000   -0.0000    0.0001    0.0001   -0.0000   -0.0004
    65 C6     2pz        0.0000    0.0004    0.0001    0.0002   -0.0001   -0.0001   -0.0004   -0.0001   -0.0000    0.0021
    66 C6     3pz       -0.0000    0.0003    0.0001   -0.0002   -0.0002   -0.0001   -0.0005   -0.0001   -0.0000    0.0023
    67 C6     4pz       -0.0000   -0.0000    0.0000   -0.0002   -0.0000   -0.0000   -0.0002    0.0004    0.0000    0.0009
    68 C6     3d2-       0.0000   -0.0000    0.0000    0.0001   -0.0000   -0.0000    0.0000    0.0001    0.0000    0.0001
    69 C6     3d1-      -0.0000   -0.0000    0.0000    0.0000   -0.0000    0.0000   -0.0000   -0.0000    0.0000    0.0002
    70 C6     3d0       -0.0000    0.0000   -0.0000    0.0000    0.0000    0.0000    0.0001    0.0000    0.0000   -0.0000
    71 C6     3d1+      -0.0000   -0.0000   -0.0000    0.0000    0.0000   -0.0000   -0.0000    0.0001   -0.0000   -0.0003
    72 C6     3d2+      -0.0000    0.0000    0.0000   -0.0001   -0.0000    0.0000   -0.0000   -0.0001    0.0000    0.0002
    73 C19    1s         0.0002   -0.0001    0.0000    0.0000    0.0037    0.0002   -0.0000    0.0000   -1.0000   -0.0145
    74 C19    2s         0.0012   -0.0005    0.0001   -0.0000    0.0006    0.0008   -0.0001   -0.0001   -0.0019   -0.0128
    75 C19    3s         0.0007   -0.0004   -0.0000   -0.0001    0.0002    0.0004   -0.0000   -0.0002    0.0005   -0.0390
    76 C19    4s         0.0001   -0.0001    0.0000   -0.0001    0.0001   -0.0000   -0.0000   -0.0001   -0.0012   -0.0036
    77 C19    2px        0.0008   -0.0001    0.0003   -0.0000   -0.0002    0.0002    0.0001   -0.0000    0.0002   -0.0096
    78 C19    3px        0.0005   -0.0001    0.0002   -0.0000   -0.0003    0.0002    0.0001   -0.0000    0.0001   -0.0077
    79 C19    4px       -0.0002    0.0000    0.0000    0.0000   -0.0000   -0.0000    0.0000    0.0000   -0.0002    0.0078
    80 C19    2py       -0.0001   -0.0001   -0.0003   -0.0001    0.0004    0.0002   -0.0001   -0.0001    0.0003    0.0214
    81 C19    3py       -0.0003   -0.0001   -0.0003   -0.0002   -0.0001    0.0001   -0.0001   -0.0001    0.0000   -0.0054
    82 C19    4py       -0.0001    0.0000    0.0001   -0.0000   -0.0001   -0.0001   -0.0000   -0.0000   -0.0004    0.0055
    83 C19    2pz       -0.0000   -0.0001    0.0000   -0.0000   -0.0001   -0.0000   -0.0000   -0.0000   -0.0000   -0.0020
    84 C19    3pz       -0.0000   -0.0000    0.0000    0.0000   -0.0000    0.0000   -0.0000   -0.0000   -0.0000    0.0011
    85 C19    4pz        0.0000    0.0000   -0.0000    0.0000    0.0000    0.0000    0.0000    0.0000    0.0000   -0.0006
    86 C19    3d2-       0.0001   -0.0000    0.0000   -0.0000    0.0000    0.0001    0.0000   -0.0000    0.0001    0.0008
    87 C19    3d1-       0.0000    0.0000    0.0000   -0.0000    0.0000   -0.0000    0.0000    0.0000   -0.0000   -0.0008
    88 C19    3d0       -0.0001    0.0000    0.0001    0.0000    0.0001   -0.0000   -0.0000    0.0000   -0.0001    0.0015
    89 C19    3d1+       0.0000    0.0000   -0.0000    0.0000   -0.0000   -0.0000    0.0000    0.0000   -0.0000    0.0000
    90 C19    3d2+       0.0001    0.0000    0.0000    0.0000   -0.0001   -0.0000   -0.0000    0.0000   -0.0001   -0.0069
    91 N2     1s         0.0001    0.0000   -0.9998   -0.0000   -0.0002    0.0001    0.0001    0.0000   -0.0001   -0.0179
    92 N2     2s         0.0004    0.0002    0.0000   -0.0003    0.0000    0.0016    0.0004    0.0001   -0.0007    0.1118
    93 N2     3s         0.0003    0.0001    0.0014   -0.0002   -0.0002    0.0008    0.0004    0.0001   -0.0005   -0.0484
    94 N2     4s         0.0001    0.0000   -0.0004   -0.0000    0.0001    0.0003    0.0001    0.0000   -0.0001   -0.0115
    95 N2     2px        0.0001   -0.0007   -0.0005   -0.0006   -0.0004    0.0010    0.0004   -0.0002    0.0005   -0.0263
    96 N2     3px        0.0001   -0.0010   -0.0005   -0.0009   -0.0003    0.0009    0.0004   -0.0004    0.0005    0.0221
    97 N2     4px        0.0000   -0.0001    0.0002   -0.0001   -0.0003    0.0000   -0.0001   -0.0001   -0.0001   -0.0047
    98 N2     2py       -0.0015   -0.0002    0.0008   -0.0002    0.0002    0.0009    0.0003   -0.0001    0.0003    0.0393
    99 N2     3py       -0.0018   -0.0003    0.0002   -0.0003    0.0001    0.0009    0.0004   -0.0001    0.0003    0.0161
   100 N2     4py       -0.0000   -0.0000   -0.0004   -0.0000   -0.0000    0.0002   -0.0000   -0.0000   -0.0001   -0.0057
   101 N2     2pz        0.0003    0.0002   -0.0003    0.0000    0.0000    0.0000    0.0001    0.0001   -0.0001   -0.0048
   102 N2     3pz        0.0004    0.0003    0.0001    0.0001    0.0001   -0.0000    0.0001    0.0001   -0.0002   -0.0094
   103 N2     4pz        0.0000    0.0001   -0.0001    0.0000    0.0001   -0.0000    0.0001    0.0000   -0.0000   -0.0003
   104 N2     3d2-       0.0001   -0.0000    0.0002   -0.0000   -0.0001   -0.0000    0.0000   -0.0000    0.0000   -0.0029
   105 N2     3d1-      -0.0000    0.0000    0.0001    0.0000    0.0000   -0.0000   -0.0000    0.0000    0.0000    0.0005
   106 N2     3d0       -0.0000    0.0000    0.0000    0.0000    0.0001    0.0001   -0.0000   -0.0000    0.0001   -0.0027
   107 N2     3d1+      -0.0000    0.0000   -0.0000    0.0000   -0.0000    0.0000   -0.0000    0.0000   -0.0000    0.0004
   108 N2     3d2+      -0.0000   -0.0000    0.0000   -0.0000    0.0001   -0.0000    0.0000   -0.0000   -0.0000    0.0045
   109 N5     1s         0.0000    0.0001   -0.0000    0.9999    0.0001    0.0000   -0.0002    0.0001   -0.0000   -0.0017
   110 N5     2s         0.0001    0.0007   -0.0001    0.0006    0.0006    0.0002   -0.0002    0.0017   -0.0002   -0.0018
   111 N5     3s         0.0001    0.0005   -0.0000   -0.0010    0.0004    0.0002   -0.0003    0.0010   -0.0002   -0.0057
   112 N5     4s         0.0000    0.0001   -0.0000    0.0006    0.0001    0.0000    0.0000    0.0004   -0.0000   -0.0013
   113 N5     2px       -0.0001   -0.0014   -0.0006   -0.0008    0.0002    0.0001    0.0002    0.0008    0.0001   -0.0056
   114 N5     3px       -0.0002   -0.0017   -0.0009   -0.0004    0.0005    0.0002    0.0002    0.0008    0.0001   -0.0086
   115 N5     4px       -0.0000   -0.0000   -0.0001    0.0003    0.0001    0.0001   -0.0001    0.0002    0.0000   -0.0018
   116 N5     2py        0.0000    0.0007   -0.0000    0.0005    0.0001   -0.0001   -0.0003   -0.0000   -0.0000   -0.0023
   117 N5     3py       -0.0000    0.0008   -0.0000    0.0002    0.0001   -0.0000   -0.0001   -0.0002   -0.0001   -0.0005
   118 N5     4py       -0.0000    0.0000   -0.0000   -0.0002    0.0000    0.0000   -0.0000   -0.0001   -0.0000   -0.0001
   119 N5     2pz       -0.0000    0.0001    0.0005   -0.0002   -0.0002    0.0002   -0.0000   -0.0006    0.0000    0.0061
   120 N5     3pz        0.0000    0.0002    0.0007   -0.0001   -0.0004    0.0001   -0.0000   -0.0004    0.0000    0.0089
   121 N5     4pz        0.0000    0.0000    0.0001    0.0001   -0.0001   -0.0001    0.0003    0.0000    0.0000    0.0020
   122 N5     3d2-      -0.0000   -0.0000    0.0000   -0.0001   -0.0000   -0.0000    0.0001    0.0000    0.0000    0.0001
   123 N5     3d1-      -0.0000    0.0000   -0.0000   -0.0000   -0.0000   -0.0000    0.0000    0.0000    0.0000   -0.0001
   124 N5     3d0       -0.0000   -0.0000    0.0000   -0.0001   -0.0000    0.0000   -0.0000   -0.0000   -0.0000    0.0001
   125 N5     3d1+       0.0000   -0.0001   -0.0000    0.0002    0.0000    0.0000    0.0001    0.0000   -0.0000   -0.0002
   126 N5     3d2+       0.0000    0.0001    0.0000   -0.0000    0.0000    0.0000   -0.0001   -0.0000    0.0000    0.0000
   127 O7     1s         0.9997   -0.0000   -0.0000   -0.0000   -0.0003   -0.0000    0.0000    0.0000   -0.0001   -0.0239
   128 O7     2s        -0.0015   -0.0000   -0.0002   -0.0000    0.0004   -0.0001    0.0002    0.0000   -0.0003    0.6931
   129 O7     3s        -0.0014   -0.0001   -0.0001    0.0000   -0.0000    0.0000    0.0001    0.0000   -0.0003   -0.0343
   130 O7     4s         0.0000   -0.0000   -0.0000    0.0000    0.0000    0.0000    0.0000   -0.0000   -0.0001   -0.0138
   131 O7     2px        0.0001   -0.0001    0.0003    0.0001    0.0003   -0.0001    0.0001   -0.0000   -0.0001    0.0838
   132 O7     3px       -0.0003   -0.0001    0.0004    0.0001   -0.0001   -0.0001    0.0001   -0.0000   -0.0001   -0.0251
   133 O7     4px        0.0008   -0.0001    0.0001    0.0000    0.0001    0.0000    0.0000   -0.0000    0.0000   -0.0015
   134 O7     2py       -0.0002    0.0000    0.0002    0.0000   -0.0006   -0.0000    0.0000   -0.0000    0.0001   -0.1215
   135 O7     3py        0.0006   -0.0000    0.0002    0.0000   -0.0003   -0.0001    0.0000   -0.0001    0.0001    0.0375
   136 O7     4py       -0.0011   -0.0000   -0.0001    0.0000   -0.0003   -0.0000    0.0000   -0.0000   -0.0000    0.0001
   137 O7     2pz        0.0000    0.0000   -0.0001    0.0000    0.0001    0.0000   -0.0000    0.0000   -0.0000    0.0155
   138 O7     3pz       -0.0001    0.0001    0.0000    0.0000    0.0001    0.0001   -0.0000    0.0000   -0.0000   -0.0053
   139 O7     4pz        0.0001    0.0000    0.0000    0.0000    0.0000    0.0000   -0.0000   -0.0000   -0.0000   -0.0002
   140 O7     3d2-       0.0001    0.0000   -0.0000   -0.0000   -0.0002    0.0000   -0.0000    0.0000    0.0000   -0.0177
   141 O7     3d1-       0.0000    0.0000    0.0000   -0.0000   -0.0000    0.0000   -0.0000    0.0000    0.0000   -0.0032
   142 O7     3d0       -0.0000    0.0000    0.0001   -0.0000   -0.0001   -0.0000    0.0000    0.0000    0.0000   -0.0103
   143 O7     3d1+      -0.0000   -0.0000    0.0000   -0.0000    0.0000    0.0000   -0.0000    0.0000   -0.0000    0.0021
   144 O7     3d2+       0.0000    0.0000    0.0001    0.0000   -0.0001   -0.0000    0.0000   -0.0000    0.0000   -0.0073
   145 O8     1s         0.0000    0.9997   -0.0000    0.0000    0.0000    0.0000   -0.0002   -0.0001    0.0000   -0.0011
   146 O8     2s         0.0001   -0.0016   -0.0001    0.0002    0.0002    0.0003    0.0006   -0.0003    0.0000    0.0142
   147 O8     3s         0.0000   -0.0015    0.0000    0.0002    0.0001    0.0002    0.0001   -0.0002    0.0000   -0.0024
   148 O8     4s        -0.0000   -0.0000    0.0001    0.0000    0.0001    0.0001    0.0000   -0.0000   -0.0000   -0.0007
   149 O8     2px        0.0000   -0.0001   -0.0001   -0.0002   -0.0001   -0.0001   -0.0006    0.0000    0.0001   -0.0030
   150 O8     3px        0.0001    0.0004   -0.0002   -0.0001   -0.0002   -0.0001   -0.0002   -0.0000    0.0001    0.0023
   151 O8     4px        0.0000   -0.0010   -0.0000    0.0001   -0.0000    0.0000   -0.0002   -0.0000    0.0000    0.0002
   152 O8     2py        0.0000    0.0001   -0.0000   -0.0000    0.0001    0.0001    0.0003   -0.0001   -0.0000   -0.0012
   153 O8     3py        0.0000   -0.0004    0.0000   -0.0001    0.0001    0.0000    0.0001   -0.0000   -0.0000   -0.0026
   154 O8     4py        0.0000    0.0007    0.0000   -0.0001    0.0000   -0.0000    0.0001    0.0000    0.0000   -0.0002
   155 O8     2pz        0.0000   -0.0001    0.0001    0.0003   -0.0000   -0.0002   -0.0005    0.0001   -0.0000   -0.0015
   156 O8     3pz        0.0000    0.0002    0.0001    0.0003   -0.0000   -0.0002   -0.0000   -0.0000   -0.0000    0.0010
   157 O8     4pz        0.0000   -0.0006    0.0000    0.0001   -0.0000   -0.0000   -0.0000   -0.0000   -0.0000   -0.0001
   158 O8     3d2-      -0.0000    0.0001    0.0000   -0.0000   -0.0000   -0.0001   -0.0002   -0.0000    0.0000   -0.0002
   159 O8     3d1-       0.0000    0.0000    0.0000    0.0000   -0.0000   -0.0000   -0.0001    0.0000    0.0000   -0.0000
   160 O8     3d0        0.0000    0.0000   -0.0000   -0.0000   -0.0000   -0.0000   -0.0001   -0.0000    0.0000   -0.0001
   161 O8     3d1+       0.0000   -0.0001   -0.0000   -0.0000    0.0000    0.0000    0.0002   -0.0000   -0.0000    0.0002
   162 O8     3d2+       0.0000    0.0000    0.0000    0.0000    0.0000    0.0000    0.0000    0.0000   -0.0000    0.0002
   163 H9     1s         0.0002    0.0002   -0.0001   -0.0000    0.0001   -0.0002   -0.0001    0.0000   -0.0003    0.0142
   164 H9     2s         0.0001    0.0001   -0.0000   -0.0000    0.0001   -0.0002   -0.0001    0.0000    0.0003    0.0037
   165 H9     2px       -0.0000    0.0000   -0.0000   -0.0000    0.0000   -0.0000   -0.0000    0.0000    0.0000    0.0010
   166 H9     2py       -0.0001    0.0000    0.0000    0.0000    0.0000   -0.0000   -0.0000    0.0000   -0.0000    0.0011
   167 H9     2pz       -0.0000   -0.0000    0.0000    0.0000   -0.0000    0.0000    0.0000    0.0000   -0.0001   -0.0007
   168 H10    1s         0.0001   -0.0001   -0.0001   -0.0002   -0.0000   -0.0002   -0.0001   -0.0001   -0.0003    0.0149
   169 H10    2s         0.0001   -0.0001   -0.0001   -0.0001    0.0000   -0.0002   -0.0001   -0.0001    0.0003    0.0034
   170 H10    2px       -0.0000   -0.0000   -0.0000   -0.0000    0.0000   -0.0000   -0.0000   -0.0000    0.0000    0.0010
   171 H10    2py       -0.0001   -0.0000    0.0000   -0.0000    0.0001   -0.0000   -0.0000   -0.0000   -0.0000    0.0011
   172 H10    2pz        0.0000   -0.0000    0.0000   -0.0000    0.0000   -0.0000   -0.0000   -0.0000    0.0001    0.0006
   173 H11    1s        -0.0004    0.0001   -0.0004   -0.0001    0.0003   -0.0001   -0.0001   -0.0001   -0.0003    0.0209
   174 H11    2s        -0.0002    0.0000   -0.0003   -0.0001    0.0001   -0.0000   -0.0000   -0.0000    0.0002    0.0064
   175 H11    2px       -0.0000   -0.0000    0.0001    0.0000   -0.0000    0.0000    0.0000    0.0000   -0.0001   -0.0001
   176 H11    2py       -0.0000    0.0000   -0.0000   -0.0000    0.0001    0.0000    0.0000   -0.0000    0.0000    0.0020
   177 H11    2pz       -0.0000    0.0000   -0.0000   -0.0000    0.0000    0.0000   -0.0000    0.0000    0.0000    0.0002
   178 H12    1s        -0.0011   -0.0002    0.0009    0.0004    0.0001   -0.0002   -0.0001   -0.0001    0.0005    0.0387
   179 H12    2s        -0.0006   -0.0001    0.0007    0.0002    0.0000   -0.0001   -0.0000   -0.0001    0.0003   -0.0011
   180 H12    2px        0.0000   -0.0000   -0.0002    0.0000   -0.0001    0.0000   -0.0000    0.0000   -0.0000   -0.0044
   181 H12    2py       -0.0000   -0.0000    0.0004    0.0001    0.0000    0.0000   -0.0000   -0.0000    0.0000    0.0046
   182 H12    2pz        0.0000    0.0000   -0.0002   -0.0000   -0.0000    0.0000    0.0000   -0.0000   -0.0000   -0.0011
   183 H13    1s         0.0002   -0.0003    0.0003    0.0004   -0.0002    0.0006   -0.0003   -0.0001    0.0001    0.0160
   184 H13    2s         0.0002   -0.0001    0.0001    0.0003   -0.0000   -0.0001   -0.0001   -0.0001    0.0000   -0.0004
   185 H13    2px        0.0000    0.0000   -0.0000    0.0000   -0.0000    0.0000    0.0000    0.0000    0.0000   -0.0003
   186 H13    2py       -0.0000   -0.0000    0.0000   -0.0000    0.0000   -0.0001   -0.0000   -0.0000   -0.0000   -0.0014
   187 H13    2pz        0.0000    0.0000   -0.0000    0.0001   -0.0000   -0.0000   -0.0000   -0.0000    0.0000    0.0005
   188 H14    1s         0.0003    0.0000    0.0005   -0.0000   -0.0005    0.0011   -0.0001    0.0000   -0.0000    0.0039
   189 H14    2s         0.0002   -0.0000    0.0002   -0.0000   -0.0003    0.0003    0.0000    0.0000   -0.0000   -0.0023
   190 H14    2px       -0.0000   -0.0001   -0.0000    0.0000    0.0000   -0.0000    0.0001   -0.0000    0.0000   -0.0003
   191 H14    2py       -0.0000    0.0000   -0.0001    0.0001    0.0000   -0.0001   -0.0000   -0.0000    0.0000   -0.0003
   192 H14    2pz       -0.0000    0.0000    0.0000   -0.0000    0.0001   -0.0000   -0.0000    0.0000    0.0000   -0.0007
   193 H15    1s        -0.0003   -0.0013   -0.0003   -0.0009   -0.0001   -0.0000    0.0003   -0.0002    0.0001    0.0025
   194 H15    2s        -0.0002   -0.0007   -0.0001   -0.0006   -0.0001    0.0000    0.0001   -0.0000    0.0001    0.0006
   195 H15    2px       -0.0000   -0.0001    0.0000   -0.0004   -0.0001    0.0000    0.0000    0.0000    0.0000    0.0007
   196 H15    2py        0.0000    0.0000    0.0000    0.0003    0.0000   -0.0000   -0.0001    0.0000   -0.0000   -0.0004
   197 H15    2pz       -0.0000   -0.0000   -0.0000   -0.0002    0.0000    0.0000    0.0001   -0.0000    0.0000    0.0000
   198 H16    1s         0.0000    0.0005    0.0001   -0.0004   -0.0000   -0.0002   -0.0003    0.0005   -0.0001    0.0006
   199 H16    2s         0.0000    0.0003    0.0001   -0.0002   -0.0000   -0.0001   -0.0002   -0.0001   -0.0001    0.0008
   200 H16    2px        0.0000   -0.0000    0.0000    0.0000   -0.0000    0.0000   -0.0000   -0.0000    0.0000    0.0001
   201 H16    2py        0.0000    0.0000   -0.0000   -0.0000   -0.0000   -0.0000   -0.0000   -0.0000   -0.0000   -0.0000
   202 H16    2pz        0.0000    0.0000    0.0000   -0.0000   -0.0000   -0.0000   -0.0001    0.0000   -0.0000    0.0000
   203 H17    1s        -0.0000    0.0003   -0.0001   -0.0006   -0.0001    0.0002   -0.0003    0.0005    0.0001    0.0037
   204 H17    2s        -0.0000    0.0002   -0.0001   -0.0003   -0.0001    0.0001   -0.0003   -0.0001    0.0001    0.0025
   205 H17    2px        0.0000   -0.0000    0.0000    0.0000    0.0000    0.0000    0.0000   -0.0000   -0.0000   -0.0001
   206 H17    2py        0.0000   -0.0000    0.0000    0.0000    0.0000   -0.0000    0.0001    0.0000   -0.0000   -0.0003
   207 H17    2pz       -0.0000    0.0000   -0.0000   -0.0000   -0.0000    0.0000   -0.0000    0.0000    0.0000    0.0002
   208 H18    1s        -0.0000    0.0001    0.0002   -0.0001   -0.0002    0.0001   -0.0000    0.0010    0.0001    0.0048
   209 H18    2s         0.0000    0.0001    0.0001    0.0000   -0.0001    0.0001    0.0001    0.0001    0.0000    0.0029
   210 H18    2px       -0.0000   -0.0000   -0.0000   -0.0000    0.0000   -0.0000   -0.0000   -0.0001   -0.0000   -0.0004
   211 H18    2py       -0.0000    0.0000   -0.0000    0.0000   -0.0000    0.0000   -0.0000    0.0001    0.0000    0.0004
   212 H18    2pz       -0.0000   -0.0000   -0.0000   -0.0000    0.0000    0.0000    0.0000   -0.0000   -0.0000   -0.0003
 
 
      Orbital                11        12        13        14        15        16        17        18        19        20
      Energy            -1.3588   -1.2565   -1.2108   -1.0308   -0.9715   -0.9146   -0.8192   -0.7759   -0.7189   -0.6941
      Occ. No.           2.0000    2.0000    2.0000    2.0000    2.0000    2.0000    2.0000    2.0000    2.0000    2.0000
 
     1 C1     1s         0.0057   -0.0074   -0.0045   -0.0157   -0.0020    0.0074    0.0135    0.0006    0.0071    0.0028
     2 C1     2s         0.0286    0.1406   -0.0039    0.2801   -0.0319   -0.0730   -0.3849   -0.1005   -0.2516   -0.0518
     3 C1     3s         0.0277    0.0070   -0.0197   -0.0134   -0.0074    0.0170    0.0030   -0.0100    0.0091    0.0173
     4 C1     4s         0.0075    0.0026   -0.0056   -0.0038   -0.0029    0.0058    0.0026   -0.0017    0.0043    0.0027
     5 C1     2px        0.0339    0.1525   -0.0063   -0.0125    0.1086   -0.0873   -0.1324   -0.0081    0.1645    0.2578
     6 C1     3px        0.0217   -0.0357   -0.0329   -0.0414   -0.0339    0.0333    0.0287   -0.0081   -0.0739   -0.0510
     7 C1     4px        0.0071    0.0277   -0.0027   -0.0092    0.0114   -0.0065   -0.0081   -0.0012    0.0051    0.0176
     8 C1     2py        0.0067   -0.0397   -0.0252   -0.1555    0.0542    0.0055   -0.0514    0.0303    0.0533   -0.1684
     9 C1     3py        0.0223    0.0451   -0.0222    0.0202   -0.0497    0.0335    0.0095    0.0049   -0.0062    0.0681
    10 C1     4py        0.0010   -0.0070   -0.0054   -0.0236    0.0054    0.0024   -0.0068    0.0028   -0.0031   -0.0093
    11 C1     2pz        0.0030    0.0088    0.0055    0.0199   -0.0028   -0.0018    0.0081   -0.0054    0.0022    0.0172
    12 C1     3pz        0.0010   -0.0122    0.0060    0.0012    0.0046   -0.0047   -0.0039   -0.0077    0.0030   -0.0079
    13 C1     4pz        0.0001   -0.0007    0.0024    0.0032    0.0002   -0.0011    0.0007   -0.0014    0.0016    0.0004
    14 C1     3d2-       0.0022    0.0127    0.0010    0.0082   -0.0100    0.0070   -0.0124    0.0061    0.0166    0.0051
    15 C1     3d1-       0.0003    0.0021    0.0001   -0.0018    0.0017   -0.0006    0.0016    0.0006    0.0033    0.0028
    16 C1     3d0        0.0004   -0.0069   -0.0007   -0.0113   -0.0011    0.0044    0.0132    0.0025    0.0054    0.0019
    17 C1     3d1+       0.0000   -0.0002   -0.0002   -0.0007    0.0018   -0.0004    0.0027    0.0000   -0.0020   -0.0025
    18 C1     3d2+       0.0027    0.0279    0.0030    0.0023    0.0151   -0.0114   -0.0106    0.0001    0.0166    0.0165
    19 C3     1s        -0.0173   -0.0282    0.0038    0.0320    0.0280   -0.0195    0.0088   -0.0051    0.0013   -0.0010
    20 C3     2s         0.0141    0.1793    0.0009   -0.2884   -0.2607    0.3208   -0.1058    0.0569   -0.0354    0.0394
    21 C3     3s        -0.0486   -0.0450    0.0146    0.0546    0.0471   -0.0105    0.0183   -0.0095    0.0068   -0.0041
    22 C3     4s        -0.0075   -0.0099    0.0016    0.0158    0.0114   -0.0046    0.0052   -0.0033    0.0028   -0.0025
    23 C3     2px        0.0288   -0.0521   -0.0297   -0.0190   -0.0569    0.0160    0.0588   -0.1322   -0.2655    0.1326
    24 C3     3px        0.0045    0.0064   -0.0227   -0.0171    0.0317    0.0333   -0.0050    0.0241    0.0327   -0.0183
    25 C3     4px        0.0064   -0.0081   -0.0074   -0.0025    0.0035    0.0004    0.0043   -0.0082   -0.0036    0.0035
    26 C3     2py       -0.0185   -0.0905   -0.0187    0.0065   -0.0240   -0.0128   -0.1356   -0.0110   -0.0225    0.2095
    27 C3     3py        0.0064    0.0128   -0.0039   -0.0389    0.0129   -0.0065    0.0105   -0.0043    0.0089   -0.0357
    28 C3     4py        0.0024   -0.0017   -0.0020   -0.0129   -0.0074    0.0085   -0.0087    0.0059   -0.0019    0.0086
    29 C3     2pz        0.0126    0.0057    0.0196    0.0181    0.0338    0.0648    0.0130    0.0627   -0.0109   -0.0472
    30 C3     3pz        0.0206    0.0225   -0.0081   -0.0078   -0.0147    0.0435   -0.0030   -0.0149   -0.0041    0.0055
    31 C3     4pz       -0.0049    0.0094   -0.0011   -0.0072   -0.0052    0.0166   -0.0012    0.0006   -0.0032    0.0001
    32 C3     3d2-       0.0001    0.0183   -0.0014   -0.0021    0.0083   -0.0013    0.0042    0.0067    0.0177   -0.0225
    33 C3     3d1-       0.0045   -0.0000    0.0002   -0.0009   -0.0018    0.0009    0.0023   -0.0035   -0.0060   -0.0013
    34 C3     3d0       -0.0049   -0.0105   -0.0039    0.0050   -0.0024   -0.0017   -0.0045   -0.0029   -0.0093    0.0116
    35 C3     3d1+      -0.0009   -0.0030    0.0043    0.0040    0.0086    0.0034   -0.0068    0.0121    0.0118   -0.0021
    36 C3     3d2+       0.0020   -0.0077   -0.0003   -0.0003   -0.0082   -0.0016   -0.0159   -0.0079   -0.0082    0.0188
    37 C4     1s        -0.0413    0.0033    0.0063    0.0095    0.0134    0.0076    0.0009    0.0165    0.0024   -0.0023
    38 C4     2s         0.3528    0.0091   -0.1120   -0.0895   -0.2285   -0.0705    0.0085   -0.4038   -0.0681    0.0742
    39 C4     3s        -0.0166    0.0056   -0.0026    0.0237    0.0085    0.0129    0.0076    0.0114    0.0030   -0.0014
    40 C4     4s        -0.0006    0.0020   -0.0007    0.0072    0.0035    0.0041    0.0023    0.0059    0.0026   -0.0023
    41 C4     2px        0.0927   -0.0370    0.0108    0.0612    0.1279    0.0063   -0.0065   -0.0031    0.1253   -0.0780
    42 C4     3px       -0.0279    0.0301   -0.0655   -0.0484    0.0072    0.0817   -0.0081   -0.0158   -0.0477    0.0300
    43 C4     4px        0.0247   -0.0072   -0.0033    0.0048    0.0184    0.0094   -0.0013   -0.0058    0.0025    0.0007
    44 C4     2py       -0.0490    0.0071   -0.0855   -0.0128   -0.0601   -0.0366   -0.0160   -0.0467    0.0055    0.0265
    45 C4     3py        0.0485   -0.0190    0.0233    0.0202    0.0052    0.0068   -0.0116    0.0035   -0.0059   -0.0012
    46 C4     4py       -0.0117    0.0002   -0.0162   -0.0002   -0.0090   -0.0033   -0.0078   -0.0031    0.0012    0.0019
    47 C4     2pz        0.0100   -0.0112    0.1658   -0.0175   -0.0089    0.0638    0.0015    0.1060   -0.1553    0.0646
    48 C4     3pz       -0.0383   -0.0072    0.0087    0.0086   -0.0342   -0.1113    0.0073   -0.0162    0.0614   -0.0346
    49 C4     4pz        0.0043   -0.0016    0.0345   -0.0031   -0.0059   -0.0034    0.0017    0.0079   -0.0069    0.0016
    50 C4     3d2-      -0.0298    0.0056   -0.0123    0.0008    0.0034   -0.0004    0.0051   -0.0007    0.0051   -0.0098
    51 C4     3d1-      -0.0228    0.0020    0.0085   -0.0011    0.0046    0.0140   -0.0019    0.0059   -0.0050    0.0037
    52 C4     3d0       -0.0034    0.0029   -0.0233    0.0005   -0.0048   -0.0135    0.0024   -0.0127    0.0087   -0.0057
    53 C4     3d1+       0.0179   -0.0067    0.0118    0.0077    0.0072   -0.0093   -0.0018    0.0163    0.0010    0.0027
    54 C4     3d2+       0.0082    0.0021    0.0053   -0.0058   -0.0046    0.0082   -0.0013   -0.0055   -0.0030    0.0011
    55 C6     1s        -0.0090    0.0047    0.0346   -0.0154   -0.0354   -0.0431    0.0023    0.0083    0.0044   -0.0056
    56 C6     2s         0.0304    0.0339   -0.1597    0.0626    0.2355    0.3902   -0.0211   -0.1108   -0.0346    0.0343
    57 C6     3s        -0.0132    0.0259    0.0605   -0.0325   -0.0674   -0.0681    0.0058    0.0177    0.0112   -0.0168
    58 C6     4s        -0.0006    0.0071    0.0102   -0.0063   -0.0146   -0.0141    0.0019    0.0052    0.0028   -0.0043
    59 C6     2px       -0.0167   -0.0122    0.0850   -0.0175   -0.0144    0.0241   -0.0149   -0.1356   -0.0070    0.0635
    60 C6     3px        0.0025   -0.0110   -0.0151    0.0046    0.0149    0.0005   -0.0006    0.0067    0.0056   -0.0108
    61 C6     4px       -0.0030   -0.0009    0.0020    0.0033    0.0099    0.0161   -0.0020   -0.0110    0.0001    0.0025
    62 C6     2py       -0.0034    0.0084   -0.0113    0.0026    0.0051    0.0069    0.0010    0.0815   -0.0486    0.0249
    63 C6     3py       -0.0044    0.0075    0.0026   -0.0011    0.0019    0.0098    0.0001    0.0006    0.0039   -0.0006
    64 C6     4py       -0.0004   -0.0000   -0.0013   -0.0007   -0.0000   -0.0017    0.0004    0.0055   -0.0028    0.0012
    65 C6     2pz        0.0196    0.0071   -0.0629    0.0077    0.0044   -0.0297    0.0082   -0.0231    0.1090   -0.1035
    66 C6     3pz       -0.0023    0.0078    0.0145   -0.0075   -0.0180   -0.0099    0.0016    0.0012   -0.0130    0.0132
    67 C6     4pz        0.0017    0.0011    0.0017   -0.0014   -0.0100   -0.0135    0.0010    0.0014    0.0059   -0.0048
    68 C6     3d2-      -0.0010    0.0002    0.0044   -0.0012   -0.0029   -0.0011   -0.0007   -0.0052   -0.0021    0.0039
    69 C6     3d1-       0.0001    0.0004   -0.0036    0.0004   -0.0001   -0.0010    0.0008    0.0086   -0.0040    0.0005
    70 C6     3d0        0.0006   -0.0005    0.0006    0.0000   -0.0004   -0.0009    0.0002   -0.0102    0.0059   -0.0033
    71 C6     3d1+      -0.0044   -0.0007    0.0191   -0.0037   -0.0043    0.0029   -0.0016   -0.0079   -0.0074    0.0107
    72 C6     3d2+       0.0028    0.0002   -0.0132    0.0029    0.0042   -0.0010    0.0011    0.0094    0.0040   -0.0073
    73 C19    1s         0.0011   -0.0102   -0.0026   -0.0572    0.0427   -0.0190   -0.0132   -0.0048   -0.0091    0.0027
    74 C19    2s         0.0091    0.0003   -0.0074    0.3072   -0.2761    0.1440    0.0705    0.0450    0.0969   -0.0029
    75 C19    3s         0.0105   -0.0284   -0.0147   -0.1116    0.0794   -0.0318   -0.0357   -0.0104   -0.0167    0.0135
    76 C19    4s         0.0039   -0.0032   -0.0047   -0.0235    0.0178   -0.0071   -0.0096   -0.0031   -0.0052    0.0037
    77 C19    2px        0.0052    0.0243    0.0014    0.0562    0.0037   -0.0264   -0.0448   -0.0319   -0.0619    0.1430
    78 C19    3px        0.0024   -0.0020   -0.0010    0.0038    0.0061   -0.0022    0.0028    0.0039    0.0145   -0.0140
    79 C19    4px       -0.0011    0.0005    0.0007   -0.0084    0.0129   -0.0081   -0.0017   -0.0036   -0.0061    0.0031
    80 C19    2py        0.0063    0.0092   -0.0070    0.0459   -0.0096   -0.0140   -0.0617   -0.0484   -0.2127   -0.0462
    81 C19    3py        0.0079   -0.0011   -0.0094   -0.0297    0.0166   -0.0007    0.0120    0.0012    0.0217    0.0120
    82 C19    4py        0.0006    0.0014   -0.0003   -0.0125    0.0138   -0.0080   -0.0125   -0.0035   -0.0086   -0.0012
    83 C19    2pz        0.0026    0.0011   -0.0003   -0.0076    0.0030    0.0029    0.0107    0.0056    0.0231    0.0021
    84 C19    3pz        0.0022    0.0028   -0.0006   -0.0004   -0.0003    0.0012    0.0019   -0.0003   -0.0052   -0.0008
    85 C19    4pz       -0.0001    0.0006   -0.0003    0.0010   -0.0017    0.0008    0.0017    0.0010    0.0005    0.0001
    86 C19    3d2-       0.0005    0.0059    0.0006    0.0112   -0.0020   -0.0024   -0.0076   -0.0043   -0.0149    0.0002
    87 C19    3d1-      -0.0001    0.0004    0.0001   -0.0022    0.0011   -0.0001    0.0010    0.0010    0.0036   -0.0000
    88 C19    3d0       -0.0003   -0.0009   -0.0001   -0.0087    0.0034    0.0007    0.0032    0.0030    0.0081   -0.0091
    89 C19    3d1+      -0.0004   -0.0006   -0.0000   -0.0013    0.0001    0.0003    0.0011    0.0006    0.0010   -0.0021
    90 C19    3d2+       0.0003    0.0025    0.0003   -0.0067    0.0046   -0.0010    0.0028    0.0027    0.0134    0.0039
    91 N2     1s        -0.0050   -0.0409   -0.0039   -0.0049   -0.0044    0.0020   -0.0040    0.0002    0.0028   -0.0018
    92 N2     2s         0.0553    0.5864    0.0562   -0.0337    0.2087   -0.1008    0.1525    0.0185    0.1228   -0.0700
    93 N2     3s        -0.0083   -0.0766   -0.0089   -0.0158    0.0017    0.0004   -0.0070   -0.0007    0.0134   -0.0057
    94 N2     4s        -0.0023   -0.0245   -0.0028   -0.0022   -0.0020    0.0015   -0.0028   -0.0010    0.0007   -0.0006
    95 N2     2px        0.0321   -0.0341   -0.0224   -0.1493   -0.0604    0.1147    0.3525    0.0202   -0.0985   -0.2869
    96 N2     3px        0.0343   -0.0130   -0.0225    0.0249    0.0414   -0.0528   -0.1139   -0.0359    0.0040    0.0646
    97 N2     4px        0.0067    0.0012   -0.0029   -0.0055    0.0063   -0.0040   -0.0000   -0.0040   -0.0016    0.0072
    98 N2     2py        0.0075   -0.0015   -0.0058   -0.1114   -0.0532    0.1097   -0.2305    0.1147    0.2541   -0.2138
    99 N2     3py       -0.0014   -0.0446    0.0006    0.0441    0.0531   -0.0498    0.0397   -0.0355   -0.0565    0.0281
   100 N2     4py       -0.0006   -0.0140    0.0000    0.0004    0.0050   -0.0055   -0.0089   -0.0029   -0.0014    0.0053
   101 N2     2pz       -0.0063    0.0207    0.0047    0.0045    0.0193   -0.0107    0.0612    0.0136   -0.0252   -0.0168
   102 N2     3pz       -0.0109   -0.0013   -0.0015   -0.0064   -0.0017   -0.0091   -0.0102    0.0090    0.0071    0.0037
   103 N2     4pz       -0.0015    0.0030   -0.0004   -0.0004    0.0013   -0.0006    0.0027    0.0023   -0.0005    0.0005
   104 N2     3d2-       0.0016    0.0069    0.0000   -0.0025   -0.0090    0.0089   -0.0052    0.0035    0.0061   -0.0035
   105 N2     3d1-      -0.0007   -0.0017    0.0001   -0.0006   -0.0013    0.0024   -0.0060    0.0027    0.0037   -0.0023
   106 N2     3d0       -0.0020   -0.0160   -0.0016    0.0016   -0.0035    0.0013    0.0014   -0.0005   -0.0024   -0.0007
   107 N2     3d1+      -0.0003    0.0009    0.0004   -0.0014    0.0007    0.0003    0.0043    0.0006   -0.0018   -0.0026
   108 N2     3d2+       0.0011    0.0058    0.0003    0.0099    0.0060   -0.0098   -0.0195   -0.0062   -0.0018    0.0154
   109 N5     1s        -0.0200   -0.0028    0.0427   -0.0023    0.0018    0.0024   -0.0006   -0.0039    0.0030   -0.0024
   110 N5     2s         0.1359    0.0037   -0.5735    0.0396   -0.0097   -0.2254    0.0296    0.1697    0.0694   -0.0934
   111 N5     3s        -0.0494   -0.0066    0.0807   -0.0077   -0.0004   -0.0162    0.0007   -0.0006    0.0136   -0.0126
   112 N5     4s        -0.0118   -0.0009    0.0266   -0.0032   -0.0015   -0.0019    0.0001   -0.0019    0.0016   -0.0014
   113 N5     2px        0.0225   -0.0361    0.0080    0.0552    0.1068    0.1063    0.0010   -0.1429    0.1431   -0.1284
   114 N5     3px        0.0053   -0.0429    0.0369    0.0083   -0.0384   -0.0913    0.0016    0.0333   -0.0253    0.0285
   115 N5     4px       -0.0062   -0.0064    0.0095    0.0023    0.0014   -0.0057    0.0007   -0.0078    0.0018   -0.0000
   116 N5     2py       -0.0282    0.0038    0.0045    0.0000    0.0144    0.0038    0.0142    0.2209   -0.1286    0.0579
   117 N5     3py        0.0025    0.0024   -0.0183   -0.0006    0.0119    0.0096    0.0044   -0.0545    0.0215   -0.0146
   118 N5     4py        0.0003   -0.0004   -0.0063    0.0015    0.0025   -0.0008    0.0003    0.0042   -0.0014    0.0010
   119 N5     2pz        0.0203    0.0198   -0.0136   -0.0451   -0.1324   -0.1283   -0.0014   -0.3022    0.1331   -0.0247
   120 N5     3pz       -0.0222    0.0322    0.0073    0.0084    0.0242    0.0555    0.0044    0.0807   -0.0198   -0.0041
   121 N5     4pz        0.0050    0.0060    0.0048   -0.0021   -0.0051    0.0026    0.0019   -0.0018   -0.0000   -0.0011
   122 N5     3d2-      -0.0008    0.0003    0.0048   -0.0018   -0.0024    0.0017   -0.0004   -0.0104    0.0021   -0.0004
   123 N5     3d1-      -0.0051    0.0002    0.0092    0.0005    0.0043    0.0088   -0.0003    0.0055   -0.0031    0.0004
   124 N5     3d0        0.0038    0.0001   -0.0102   -0.0014   -0.0054   -0.0056   -0.0005   -0.0149    0.0053   -0.0009
   125 N5     3d1+       0.0014   -0.0018    0.0106   -0.0004   -0.0031   -0.0085    0.0003    0.0044   -0.0009    0.0020
   126 N5     3d2+      -0.0011    0.0007   -0.0066    0.0016    0.0044    0.0047   -0.0000    0.0072   -0.0018   -0.0004
   127 O7     1s         0.0008    0.0024    0.0006   -0.0044    0.0021    0.0004    0.0136    0.0019    0.0145    0.0216
   128 O7     2s        -0.0541   -0.3030   -0.0234   -0.2080    0.0509    0.0255    0.3528    0.0337    0.2405    0.3494
   129 O7     3s        -0.0003   -0.0093    0.0010   -0.0205    0.0096    0.0005    0.0429    0.0042    0.0406    0.0615
   130 O7     4s         0.0005   -0.0001    0.0005   -0.0036    0.0025   -0.0002    0.0083    0.0003    0.0081    0.0131
   131 O7     2px       -0.0053   -0.0008    0.0027   -0.0044    0.0300   -0.0273   -0.1719   -0.0127   -0.0925   -0.2179
   132 O7     3px       -0.0013   -0.0004    0.0022   -0.0078    0.0039    0.0035    0.0207    0.0006    0.0084    0.0188
   133 O7     4px       -0.0000    0.0001    0.0002   -0.0009    0.0000    0.0013    0.0015    0.0001    0.0006    0.0010
   134 O7     2py        0.0081    0.0406    0.0035   -0.0329    0.0236    0.0053    0.1634    0.0333    0.2778    0.4124
   135 O7     3py       -0.0034    0.0000    0.0015    0.0135    0.0017   -0.0003   -0.0247   -0.0084   -0.0322   -0.0434
   136 O7     4py       -0.0008   -0.0016    0.0000   -0.0004    0.0011    0.0012   -0.0028   -0.0011   -0.0039   -0.0066
   137 O7     2pz       -0.0018   -0.0007   -0.0002    0.0041    0.0010   -0.0028   -0.0197   -0.0024   -0.0299   -0.0499
   138 O7     3pz       -0.0010   -0.0004   -0.0010   -0.0006    0.0009   -0.0013    0.0042    0.0021    0.0024    0.0051
   139 O7     4pz       -0.0004   -0.0001   -0.0003    0.0007    0.0004   -0.0006    0.0007    0.0004    0.0001    0.0007
   140 O7     3d2-       0.0010    0.0033    0.0002    0.0010   -0.0025    0.0024    0.0121    0.0015    0.0092    0.0174
   141 O7     3d1-       0.0002    0.0013    0.0001    0.0001    0.0004   -0.0003    0.0009    0.0002    0.0025    0.0042
   142 O7     3d0        0.0007    0.0042    0.0005    0.0014    0.0001   -0.0002    0.0050    0.0005    0.0062    0.0116
   143 O7     3d1+      -0.0002   -0.0003   -0.0000   -0.0001    0.0005   -0.0004   -0.0014   -0.0001   -0.0009   -0.0022
   144 O7     3d2+       0.0006    0.0051    0.0005   -0.0025    0.0045   -0.0023   -0.0005    0.0014    0.0121    0.0126
   145 O8     1s        -0.0233    0.0026   -0.0044    0.0009    0.0025    0.0005   -0.0002    0.0121    0.0023   -0.0009
   146 O8     2s         0.6679   -0.1456    0.3207    0.1054    0.1587    0.0105   -0.0252    0.3476    0.0467   -0.0090
   147 O8     3s        -0.0273   -0.0017    0.0079    0.0068    0.0127    0.0013   -0.0032    0.0444    0.0084   -0.0028
   148 O8     4s        -0.0121    0.0004   -0.0003    0.0005    0.0013   -0.0000   -0.0015    0.0091    0.0021   -0.0007
   149 O8     2px       -0.0991    0.0076   -0.0396    0.0193    0.0216   -0.0186   -0.0109    0.1116    0.0804   -0.0343
   150 O8     3px        0.0292   -0.0066    0.0051    0.0041   -0.0115   -0.0100   -0.0001   -0.0195   -0.0077    0.0025
   151 O8     4px        0.0004   -0.0010    0.0022    0.0023   -0.0002   -0.0010    0.0002   -0.0025   -0.0019    0.0008
   152 O8     2py        0.0762   -0.0195    0.0231    0.0026   -0.0060   -0.0081    0.0032   -0.1043   -0.0016   -0.0049
   153 O8     3py       -0.0260    0.0014   -0.0006    0.0024    0.0077    0.0005   -0.0010    0.0170    0.0041   -0.0020
   154 O8     4py       -0.0006   -0.0000   -0.0004    0.0003    0.0003   -0.0000   -0.0010    0.0021    0.0010   -0.0001
   155 O8     2pz       -0.0672    0.0166   -0.0018   -0.0141   -0.0037    0.0407    0.0017    0.1142   -0.0749    0.0365
   156 O8     3pz        0.0207    0.0044   -0.0044   -0.0045   -0.0023    0.0087   -0.0001   -0.0129    0.0045   -0.0020
   157 O8     4pz        0.0018    0.0016   -0.0014   -0.0010   -0.0002    0.0006    0.0005   -0.0011    0.0017   -0.0007
[...]
AIVX     1  Mu1.0001  In1.026 Se1.046               0.14755287      0.00011492      0.00033693      0.00000004
AIVX     1  Mu1.0001  In1.027 Se1.046               0.24670064      0.00042061     -0.00045391     -0.00000019
AIVX     1  Mu1.0001  In1.028 Se1.046               0.11160070      0.00084203     -0.00185050     -0.00000156
AIVX     1  Mu1.0001  In1.029 Se1.046               0.08064197      0.00038709     -0.00079161     -0.00000031
AIVX     1  Mu1.0001  In1.018 Se1.047               0.29655341     -0.00033767      0.00039662     -0.00000013
AIVX     1  Mu1.0001  In1.021 Se1.047               0.23058364     -0.00125572      0.00227414     -0.00000286
AIVX     1  Mu1.0001  In1.022 Se1.047               0.21384497     -0.00242843      0.00482925     -0.00001173
AIVX     1  Mu1.0001  In1.023 Se1.047               0.28196060      0.00223590     -0.00395580     -0.00000884
AIVX     1  Mu1.0001  In1.024 Se1.047               0.14423664      0.00023907     -0.00053621     -0.00000013
AIVX     1  Mu1.0001  In1.025 Se1.047               0.24578891      0.00029654     -0.00082680     -0.00000025
AIVX     1  Mu1.0001  In1.026 Se1.047               0.12998880      0.00030010     -0.00081391     -0.00000024
AIVX     1  Mu1.0001  In1.027 Se1.047               0.22913657      0.00048403     -0.00112938     -0.00000055
AIVX     1  Mu1.0001  In1.028 Se1.047               0.09403663     -0.00064774      0.00140110     -0.00000091
AIVX     1  Mu1.0001  In1.029 Se1.047               0.06307790     -0.00062558      0.00159644     -0.00000100
AIVX     1  Mu1.0001  In1.021 Se1.048               0.26777581     -0.00113314      0.00159161     -0.00000180
AIVX     1  Mu1.0001  In1.022 Se1.048               0.25103714     -0.00100471      0.00182152     -0.00000183
AIVX     1  Mu1.0001  In1.024 Se1.048               0.18142881     -0.00031885      0.00057282     -0.00000018
AIVX     1  Mu1.0001  In1.025 Se1.048               0.28298108     -0.00111948      0.00186599     -0.00000209
AIVX     1  Mu1.0001  In1.026 Se1.048               0.16718097      0.00095830     -0.00168619     -0.00000162
AIVX     1  Mu1.0001  In1.027 Se1.048               0.26632874      0.00151143     -0.00235023     -0.00000355
AIVX     1  Mu1.0001  In1.028 Se1.048               0.13122880      0.00059410     -0.00079572     -0.00000047
AIVX     1  Mu1.0001  In1.029 Se1.048               0.10027007      0.00006971      0.00023443      0.00000002
AIVX     1  Mu1.0001  In1.021 Se1.049               0.27540303      0.00047726     -0.00097544     -0.00000047
AIVX     1  Mu1.0001  In1.022 Se1.049               0.25866436      0.00030837     -0.00063217     -0.00000019
AIVX     1  Mu1.0001  In1.024 Se1.049               0.18905604     -0.00005937      0.00026560     -0.00000002
AIVX     1  Mu1.0001  In1.025 Se1.049               0.29060830      0.00085509     -0.00146442     -0.00000125
AIVX     1  Mu1.0001  In1.026 Se1.049               0.17480820      0.00002686      0.00045933      0.00000001
AIVX     1  Mu1.0001  In1.027 Se1.049               0.27395596     -0.00038234      0.00080463     -0.00000031
AIVX     1  Mu1.0001  In1.028 Se1.049               0.13885603     -0.00001209      0.00022836     -0.00000000
AIVX     1  Mu1.0001  In1.029 Se1.049               0.10789729     -0.00037370      0.00100810     -0.00000038
AIVX     1  Mu1.0001  In1.021 Se1.050               0.28776536      0.00257281     -0.00428118     -0.00001101
AIVX     1  Mu1.0001  In1.022 Se1.050               0.27102669     -0.00060430      0.00072583     -0.00000044
AIVX     1  Mu1.0001  In1.024 Se1.050               0.20141837      0.00033273     -0.00066872     -0.00000022
AIVX     1  Mu1.0001  In1.026 Se1.050               0.18717053      0.00042424     -0.00082673     -0.00000035
AIVX     1  Mu1.0001  In1.027 Se1.050               0.28631829      0.00227755     -0.00352741     -0.00000803
AIVX     1  Mu1.0001  In1.028 Se1.050               0.15121836     -0.00008385      0.00038424     -0.00000003
AIVX     1  Mu1.0001  In1.029 Se1.050               0.12025963      0.00003137      0.00000570      0.00000000
AIVX     1  Mu1.0001  In1.022 Se1.051               0.29251753      0.00254874     -0.00400236     -0.00001020
AIVX     1  Mu1.0001  In1.024 Se1.051               0.22290920     -0.00003189      0.00002503     -0.00000000
AIVX     1  Mu1.0001  In1.026 Se1.051               0.20866137      0.00001836      0.00058682      0.00000001
AIVX     1  Mu1.0001  In1.028 Se1.051               0.17270919      0.00055353     -0.00018495     -0.00000010
AIVX     1  Mu1.0001  In1.029 Se1.051               0.14175046      0.00115449     -0.00235007     -0.00000271
AIVX     1  Mu1.0001  In1.024 Se1.052               0.26548370      0.00021404     -0.00014782     -0.00000003
AIVX     1  Mu1.0001  In1.026 Se1.052               0.25123586     -0.00002449      0.00010167     -0.00000000
AIVX     1  Mu1.0001  In1.028 Se1.052               0.21528369      0.00012657     -0.00054642     -0.00000007
AIVX     1  Mu1.0001  In1.029 Se1.052               0.18432496     -0.00041979      0.00098661     -0.00000041
AIVX     1  Mu1.0001  In1.024 Se1.053               0.23486890      0.00003328     -0.00016063     -0.00000001
AIVX     1  Mu1.0001  In1.026 Se1.053               0.22062106     -0.00013459      0.00073801     -0.00000010
AIVX     1  Mu1.0001  In1.028 Se1.053               0.18466889     -0.00101051      0.00208616     -0.00000211
AIVX     1  Mu1.0001  In1.029 Se1.053               0.15371016     -0.00126973      0.00264737     -0.00000336
AIVX     1  Mu1.0001  In1.024 Se1.054               0.29459889      0.00001609     -0.00002781     -0.00000000
AIVX     1  Mu1.0001  In1.026 Se1.054               0.28035105      0.00023667     -0.00029253     -0.00000007
AIVX     1  Mu1.0001  In1.028 Se1.054               0.24439888      0.00061525     -0.00095259     -0.00000059
AIVX     1  Mu1.0001  In1.029 Se1.054               0.21344014     -0.00001302      0.00020147     -0.00000000
AIVX     1  Mu1.0001  In1.026 Se1.055               0.29415369      0.00051607     -0.00097703     -0.00000050
AIVX     1  Mu1.0001  In1.028 Se1.055               0.25820152     -0.00060593      0.00093096     -0.00000056
AIVX     1  Mu1.0001  In1.029 Se1.055               0.22724278      0.00072192     -0.00175601     -0.00000127
AIVX     1  Mu1.0001  In1.028 Se1.056               0.26500306      0.00063840     -0.00087472     -0.00000056
AIVX     1  Mu1.0001  In1.029 Se1.056               0.23404433      0.00036976     -0.00058081     -0.00000021
AIVX     1  Mu1.0001  In1.024 Se1.057               0.29093794     -0.00001766     -0.00002377      0.00000000
AIVX     1  Mu1.0001  In1.026 Se1.057               0.27669011     -0.00018826      0.00027311     -0.00000005
AIVX     1  Mu1.0001  In1.028 Se1.057               0.24073793      0.00003075      0.00017918      0.00000001
AIVX     1  Mu1.0001  In1.029 Se1.057               0.20977920     -0.00001046      0.00028125     -0.00000000
AIVX     1  Mu1.0001  In1.028 Se1.058               0.27942581      0.00105932     -0.00174926     -0.00000185
AIVX     1  Mu1.0001  In1.029 Se1.058               0.24846707     -0.00011705      0.00055341     -0.00000006
AIVX     1  Mu1.0001  In1.028 Se1.059               0.29403109     -0.00043448      0.00053102     -0.00000023
AIVX     1  Mu1.0001  In1.029 Se1.059               0.26307236      0.00000435     -0.00004009     -0.00000000
AIVX     1  Mu1.0001  In1.029 Se1.060               0.29256523      0.00139000     -0.00226605     -0.00000315
AIVX     1  Mu1.0001  In1.029 Se1.062               0.29722170     -0.00000141     -0.00013681      0.00000000
--
 
   (Skipping property calculation,
    use PROP keyword to activate)
--
 
  Total CASPT2 energies:
::    CASPT2 Root  1     Total energy:   -455.21101192
::    CASPT2 Root  2     Total energy:   -455.01760926
::    CASPT2 Root  3     Total energy:   -455.00815033
::    CASPT2 Root  4     Total energy:   -454.94829315
::    CASPT2 Root  5     Total energy:   -454.93130937
::    CASPT2 Root  6     Total energy:   -454.93748177
::    CASPT2 Root  7     Total energy:   -454.90809737
 
++ Multi-State CASPT2 section:
********************************************************************************
  MULTI-STATE CASPT2 SECTION
--------------------------------------------------------------------------------
 
  Output diagonal energies have been shifted. Add   -455.000000000000     
 
  Effective Hamiltonian matrix (Symmetric):
 
                1               2               3               4               5
   1        -0.21101192
   2        -0.00136136     -0.01760926
   3        -0.00060025      0.00010868     -0.00815033
   4        -0.00773013     -0.00000296      0.00006984      0.05170685
   5         0.00675502      0.00061852      0.00038726     -0.00335279      0.06869063
   6         0.01456385      0.00336684     -0.00155467      0.00413007     -0.01058997
   7         0.01171560     -0.00029420     -0.00131363      0.00476947     -0.00729160
 
                6               7
   6         0.06251823
   7        -0.00924520      0.09190263
 
       Total MS-CASPT2 energies:
::    MS-CASPT2 Root  1     Total energy:   -455.21273821
::    MS-CASPT2 Root  2     Total energy:   -455.01774509
::    MS-CASPT2 Root  3     Total energy:   -455.00820516
::    MS-CASPT2 Root  4     Total energy:   -454.95051050
::    MS-CASPT2 Root  5     Total energy:   -454.94631534
::    MS-CASPT2 Root  6     Total energy:   -454.92233645
::    MS-CASPT2 Root  7     Total energy:   -454.90410242
 
       Eigenvectors:
            0.99674463     -0.01061918     -0.00038518      0.06469059      0.04131284
            0.00793686      0.99882703      0.01941800      0.02285444      0.03166013
            0.00227320     -0.01842509      0.99941099     -0.01788587     -0.01482993
            0.03040814      0.00087487     -0.00409125     -0.83919966      0.50093388
           -0.02674366     -0.01140483     -0.00065476      0.16752453      0.60019173
           -0.05568843     -0.04196333      0.02329338      0.46879084      0.59374101
           -0.04112063     -0.00074082      0.01551502      0.20709297      0.18269567
 
            0.00660704      0.02125922
            0.01715501     -0.00924773
           -0.01379447     -0.01014403
            0.18553201      0.09718479
           -0.75749259     -0.19252187
            0.62336678     -0.18361895
           -0.05165725      0.95871484
 
--
 
  THE ORIGINAL CI ARRAYS ARE NOW MIXED AS LINEAR
  COMBINATIONS, GIVEN BY THE EIGENVECTORS.
  A NEW JOBIPH FILE NAMED 'JOBMIX' IS PREPARED.
********************************************************************************
 
++ Mixed CI coefficients:
  The CI coefficients for the MIXED state nr.   1
--------------------------------------------------------------------------------
 CI COEFFICIENTS LARGER THAN  0.50D-01
  Occupation of active orbitals, and spin coupling
  of open shells. (u,d: Spin up or down).
  SGUGA info is (Midvert:IsyUp:UpperWalk/LowerWalk)
        Conf  SGUGA info        Occupation    Coefficient         Weight
           1  ( 1:1:   1/   1)   22222200        0.969705       0.940327
           6  ( 1:1:   6/   1)   22220220       -0.090770       0.008239
           7  ( 1:1:   7/   1)   22222u0d        0.064521       0.004163
          15  ( 1:1:  15/   1)   22222002       -0.091416       0.008357
          64  ( 2:1:   4/   3)   2u22220d       -0.078369       0.006142
          81  ( 2:1:   1/   4)   u22222d0       -0.102588       0.010524
         175  ( 3:1:   5/   8)   20222202       -0.091139       0.008306
         191  ( 3:1:   1/  10)   02222220       -0.077786       0.006051
 
  The CI coefficients for the MIXED state nr.   2
--------------------------------------------------------------------------------
 CI COEFFICIENTS LARGER THAN  0.50D-01
  Occupation of active orbitals, and spin coupling
  of open shells. (u,d: Spin up or down).
  SGUGA info is (Midvert:IsyUp:UpperWalk/LowerWalk)
        Conf  SGUGA info        Occupation    Coefficient         Weight
           7  ( 1:1:   7/   1)   22222u0d       -0.080542       0.006487
          21  ( 2:1:   1/   1)   222u22d0        0.093432       0.008729
          24  ( 2:1:   4/   1)   222u220d        0.953975       0.910068
          32  ( 2:1:  12/   1)   222u022d       -0.084714       0.007176
          33  ( 2:1:  13/   1)   222u2d02       -0.089853       0.008074
         115  ( 3:1:   5/   2)   22ud2202        0.051980       0.002702
         125  ( 3:1:   5/   3)   2u2d2202        0.184342       0.033982
         213  ( 4:1:   1/   3)   u22u22dd        0.078349       0.006139
         269  ( 5:1:   1/   9)   022u222d        0.078103       0.006100
 
  The CI coefficients for the MIXED state nr.   3
--------------------------------------------------------------------------------
 CI COEFFICIENTS LARGER THAN  0.50D-01
  Occupation of active orbitals, and spin coupling
  of open shells. (u,d: Spin up or down).
  SGUGA info is (Midvert:IsyUp:UpperWalk/LowerWalk)
        Conf  SGUGA info        Occupation    Coefficient         Weight
           2  ( 1:1:   2/   1)   22222ud0       -0.236158       0.055771
          41  ( 2:1:   1/   2)   22u222d0       -0.919609       0.845681
          43  ( 2:1:   3/   2)   22u2d220        0.171886       0.029545
          45  ( 2:1:   5/   2)   22u22dud       -0.061626       0.003798
          47  ( 2:1:   7/   2)   22u22udd        0.106027       0.011242
          55  ( 2:1:  15/   2)   22u220d2       -0.078754       0.006202
         161  ( 3:1:   1/   7)   u2d22220       -0.125428       0.015732
         219  ( 4:1:   1/   4)   2uu222dd        0.065564       0.004299
         222  ( 4:1:   4/   4)   2uu22dd2       -0.051688       0.002672
         294  ( 5:1:   2/  15)   20u222d2        0.094362       0.008904
 
  The CI coefficients for the MIXED state nr.   4
--------------------------------------------------------------------------------
 CI COEFFICIENTS LARGER THAN  0.50D-01
  Occupation of active orbitals, and spin coupling
  of open shells. (u,d: Spin up or down).
  SGUGA info is (Midvert:IsyUp:UpperWalk/LowerWalk)
        Conf  SGUGA info        Occupation    Coefficient         Weight
           2  ( 1:1:   2/   1)   22222ud0        0.211871       0.044889
           3  ( 1:1:   3/   1)   2222u2d0        0.559321       0.312840
           6  ( 1:1:   6/   1)   22220220        0.054896       0.003014
           7  ( 1:1:   7/   1)   22222u0d        0.699512       0.489317
          12  ( 1:1:  12/   1)   2222uudd       -0.058799       0.003457
          14  ( 1:1:  14/   1)   22220u2d        0.063205       0.003995
          15  ( 1:1:  15/   1)   22222002        0.141478       0.020016
          21  ( 2:1:   1/   1)   222u22d0        0.077651       0.006030
          41  ( 2:1:   1/   2)   22u222d0       -0.069808       0.004873
          73  ( 2:1:  13/   3)   2u222d02        0.179338       0.032162
          81  ( 2:1:   1/   4)   u22222d0        0.101315       0.010265
          83  ( 2:1:   3/   4)   u222d220        0.134707       0.018146
          87  ( 2:1:   7/   4)   u2222udd        0.068735       0.004724
          90  ( 2:1:  10/   4)   u222du2d       -0.051815       0.002685
         175  ( 3:1:   5/   8)   20222202       -0.085027       0.007230
         177  ( 3:1:   7/   8)   2022u2d2       -0.057716       0.003331
         193  ( 3:1:   3/  10)   02222u2d        0.060518       0.003662
 
  The CI coefficients for the MIXED state nr.   5
--------------------------------------------------------------------------------
 CI COEFFICIENTS LARGER THAN  0.50D-01
  Occupation of active orbitals, and spin coupling
  of open shells. (u,d: Spin up or down).
  SGUGA info is (Midvert:IsyUp:UpperWalk/LowerWalk)
        Conf  SGUGA info        Occupation    Coefficient         Weight
           2  ( 1:1:   2/   1)   22222ud0       -0.064562       0.004168
           3  ( 1:1:   3/   1)   2222u2d0       -0.733566       0.538119
           7  ( 1:1:   7/   1)   22222u0d        0.570798       0.325810
          12  ( 1:1:  12/   1)   2222uudd        0.074095       0.005490
          14  ( 1:1:  14/   1)   22220u2d        0.056063       0.003143
          15  ( 1:1:  15/   1)   22222002        0.110648       0.012243
          18  ( 1:1:  18/   1)   2222u0d2       -0.064967       0.004221
          21  ( 2:1:   1/   1)   222u22d0        0.086137       0.007420
          68  ( 2:1:   8/   3)   2u22u2dd        0.052010       0.002705
          73  ( 2:1:  13/   3)   2u222d02        0.147687       0.021811
          83  ( 2:1:   3/   4)   u222d220       -0.191709       0.036752
          87  ( 2:1:   7/   4)   u2222udd        0.053484       0.002861
         175  ( 3:1:   5/   8)   20222202       -0.069385       0.004814
         177  ( 3:1:   7/   8)   2022u2d2        0.072514       0.005258
 
  The CI coefficients for the MIXED state nr.   6
--------------------------------------------------------------------------------
 CI COEFFICIENTS LARGER THAN  0.50D-01
  Occupation of active orbitals, and spin coupling
  of open shells. (u,d: Spin up or down).
  SGUGA info is (Midvert:IsyUp:UpperWalk/LowerWalk)
        Conf  SGUGA info        Occupation    Coefficient         Weight
           2  ( 1:1:   2/   1)   22222ud0       -0.846900       0.717239
           3  ( 1:1:   3/   1)   2222u2d0        0.187370       0.035107
           7  ( 1:1:   7/   1)   22222u0d        0.084364       0.007117
          21  ( 2:1:   1/   1)   222u22d0        0.314272       0.098767
          25  ( 2:1:   5/   1)   222u2dud       -0.069646       0.004851
          27  ( 2:1:   7/   1)   222u2udd        0.101394       0.010281
          41  ( 2:1:   1/   2)   22u222d0        0.189822       0.036032
          65  ( 2:1:   5/   3)   2u222dud       -0.135044       0.018237
          67  ( 2:1:   7/   3)   2u222udd        0.189909       0.036066
          83  ( 2:1:   3/   4)   u222d220        0.053630       0.002876
         176  ( 3:1:   6/   8)   20222ud2        0.122576       0.015025
 
  The CI coefficients for the MIXED state nr.   7
--------------------------------------------------------------------------------
 CI COEFFICIENTS LARGER THAN  0.50D-01
  Occupation of active orbitals, and spin coupling
  of open shells. (u,d: Spin up or down).
  SGUGA info is (Midvert:IsyUp:UpperWalk/LowerWalk)
        Conf  SGUGA info        Occupation    Coefficient         Weight
           2  ( 1:1:   2/   1)   22222ud0       -0.291133       0.084758
           7  ( 1:1:   7/   1)   22222u0d        0.144285       0.020818
          21  ( 2:1:   1/   1)   222u22d0       -0.825884       0.682084
          24  ( 2:1:   4/   1)   222u220d        0.091390       0.008352
          25  ( 2:1:   5/   1)   222u2dud        0.213472       0.045570
          27  ( 2:1:   7/   1)   222u2udd       -0.300612       0.090368
          41  ( 2:1:   1/   2)   22u222d0        0.117424       0.013788
          65  ( 2:1:   5/   3)   2u222dud       -0.052151       0.002720
          67  ( 2:1:   7/   3)   2u222udd        0.066849       0.004469
         112  ( 3:1:   2/   2)   22ud22ud        0.073162       0.005353
         201  ( 4:1:   1/   1)   22uu22dd        0.076187       0.005804
         210  ( 4:1:   4/   2)   2u2u2dd2        0.073680       0.005429
         262  ( 5:1:   2/   7)   202u22d2        0.075618       0.005718
 
--
 
--- Stop Module: caspt2 at Wed Nov 13 21:11:29 2024 /rc=_RC_ALL_IS_WELL_ ---
*** files: xmldump
    saved to directory /home/pcaah4
--- Module caspt2 spent 6 minutes 47 seconds ---

.##################.
.# Happy landing! #.
.##################.

    Timing: Wall=650.52 User=567.14 System=73.87
******************************************************
*** WorkDir at /srv/COMMUNAL_SCRATCH/10404 cleaned ***
******************************************************
