   This run of MOLCAS is using the pymolcas driver

                             OPE
                             OPE          NMOL  CASOP  ENMOLC A   SO
                 OPE        NMOLC        AS  OP EN  MO LC     AS  OP
                OPENM       OL CA        SO  PE NM  OL CA     SOP EN
                OP EN      MO   LC       AS  OP ENMOL  CASO   PENMOL
                OP  EN     MO   LC       AS  OP EN     MO     LC ASO
               OP   E  NMOL  C  AS       OP  EN MO     LC     AS  OP
               OP  E   NMO   LC AS        OPEN  MO     LCASOP EN   M
               O  PEN   MO  LCA  SO
            OPE   NMO   L   CAS    OP
        OPENMOL  CASOP     ENMOL   CASOPE
     OPENMOLCA   SOPENMOLCASOPEN   MOLCASOPE
    OPENMOLCAS   OP           EN   MOL    CAS
    OPENMOLCAS       OP  ENM        O     LCA
    OPENMOLCAS    OPEN  MOLCASO     P  E  NMO
    OPENMOLCAS     OP               E  N  MOL
    OPENMOLCA   SO           PENM   O  L  CAS    OPEN    MO    LCAS
    OPENMOLCA   SOP           ENM   O  L  CAS   OP  EN  MOLC  AS   O
    OPENMOLCA   SOPE           NM      O  LCA   S      OP  EN MO
    OPENMOLC                AS         O  PEN   M      OL  CA  SOPE
    OPENMO        LCASOPE  NMOL        C  ASO   P      ENMOLC     AS
    OPE     NMO      LCA  SO     P     E   NM   OL  CA SO  PE N   MO
          OPENMOLCA            SOPE   NMO        LCAS  O    P  ENMO
     OPENMOLCASOPENMOLCASOPENMOLCASOPENMOLCA
        OPENMOLCASOPENMOLCASOPENMOLCASOPE
            OPENMOLCASOPENMOLCASOPENM
               OPENMOLCASOPENMOLCA        version: v23.06
                   OPENMOLCASO
                       OPE                tag:

 OpenMolcas is free software; you can redistribute it and/or modify it
 under the terms of the GNU Lesser General Public License version 2.1.
 OpenMolcas is distributed in the hope that it will be useful, but it
 is provided "as is" and without any express or implied warranties.
 For more details see the full text of the license in the file
 LICENSE or in <http://www.gnu.org/licenses/>.

                 Copyright (C) The OpenMolcas Authors
           For the author list and the recommended citation,
                   consult the file CONTRIBUTORS.md

           *************************************************
           * pymolcas version py2.24                       *
           *   build 4567b286dd94b1984b333a4ddf893180      *
           *   (after the EMIL interpreter by V. Veryazov) *
           *************************************************

configuration info
------------------
Host name: loginchem01.nottingham.ac.uk (Linux)
C Compiler ID: Intel
C flags: -std=gnu99 -gcc-sys -qopenmp
Fortran Compiler ID: Intel
Fortran flags: -fpp -i8 -heap-arrays -qopenmp
Definitions: _MOLCAS_;_I8_;_LINUX_
Parallel: OFF (GA=OFF)


   ------------------------------------------------------------------------------------------------------------
  |
  |              Project: orca_geometry_optimisation_225_120_BP86_def2-SVP_def2J_scf_cas1_ras12i11_cas2_ras12i8
  |       Submitted from: /home/pcaah4
  |         Scratch area: /srv/COMMUNAL_SCRATCH/10392
  |      Save outputs to: /home/pcaah4
  |               Molcas: /software/chemistry/openmolcas/openmolcas-23.06-openmp
  |
  | Scratch area is empty
  |
  |       MOLCAS_DRIVER = /software/chemistry/openmolcas/openmolcas-23.06-openmp/sbin/pymolcas
  | MOLCAS_KEEP_WORKDIR = NO
  |       MOLCAS_NPROCS = 1
  |       MOLCAS_SOURCE = /software/chemistry/openmolcas/openmolcas-23.06-openmp
  |    MOLCAS_STRUCTURE = 0
  |
   ------------------------------------------------------------------------------------------------------------

++ ---------   Input file   ---------

&SEWARD
TITLE
orca_geometry_optimisation_225_120_BP86_def2-SVP_def2J_scf_cas1_ras12i11
MULTIPOLES
2
SDIPOLE
ANGMOM
0 0 0
BASIS SET
C.ANO-S...4S3P1D.
C1           -0.003950   -0.032207    0.009656 /Angstrom
C3            2.119358    1.242540   -0.028112 /Angstrom
C4            3.270265    1.093253   -1.033308 /Angstrom
C6            4.252730    1.953134   -3.136243 /Angstrom
C19          -0.617468   -1.426488    0.080847 /Angstrom
END OF BASIS
BASIS SET
N.ANO-S...4S3P1D.
N2            1.371267    0.000953    0.025245 /Angstrom
N5            3.250153    1.967871   -2.086893 /Angstrom
END OF BASIS
BASIS SET
O.ANO-S...4S3P1D.
O7           -0.691275    0.987234   -0.056035 /Angstrom
O8            4.111284    0.203059   -0.894002 /Angstrom
END OF BASIS
BASIS SET
H.ANO-S...2S1P.
H9           -1.240556   -1.494162    0.995092 /Angstrom
H10          -1.298412   -1.559201   -0.782994 /Angstrom
H11           0.125006   -2.248505    0.088644 /Angstrom
H12           1.921309   -0.859884    0.070227 /Angstrom
H13           1.392836    2.040786   -0.281244 /Angstrom
H14           2.569531    1.489198    0.961239 /Angstrom
H15           2.496084    2.654748   -2.128953 /Angstrom
H16           3.798586    1.757956   -4.130994 /Angstrom
H17           4.811793    2.911861   -3.185249 /Angstrom
H18           4.960783    1.136528   -2.899188 /Angstrom
END OF BASIS
END OF INPUT

&RASSCF
TITLE
orca_geometry_optimisation_225_120_BP86_def2-SVP_def2J_scf_cas1_ras12i11
LUMORB
SPIN
1
SYMMETRY
1
NACTEL
12  0  0
INACTIVE
29
DELETED  ! delete Rydberg orbitals from an initial CAS(12,11) if done
3
FROZEN
0
RAS2
8
ITERATIONS
64 25
CIROOT
7 7
1 2 3 4 5 6 7
1 1 1 1 1 1 1
LEVSHFT
0.3
CIMX
20
FILEorb = /home/pcaah4/outputs/cas1_ras12i11_rasorb_files/orca_geometry_optimisation_225_120_BP86_def2-SVP_def2J_scf_cas1_ras12i11.RasOrb
ALTEr
3
 1 38 210
 1 39 211
 1 40 212
END OF INPUT

&RASSI
NROF JOBIPH
    1 7
    1 2 3 5 4 6 7
TOFILE
TRDI
TDMN
1.0D-6
END OF INPUT

&CASPT2
TITLE
orca_geometry_optimisation_225_120_BP86_def2-SVP_def2J_scf_cas1_ras12i11
MULTISTATE
7 1 2 3 4 5 6 7
SHIFT
0.35
MAXITER
50
END OF INPUT

-- ----------------------------------

--- Start Module: seward at Wed Nov 13 20:15:36 2024 ---
 
()()()()()()()()()()()()()()()()()()()()()()()()()()()()()()()()()()()()()()()()()()()()()()()()()()

                                              &SEWARD

                                   only a single process is used
                       available to each process: 2.0 GB of memory, 1 thread
                                            pid: 1792042
()()()()()()()()()()()()()()()()()()()()()()()()()()()()()()()()()()()()()()()()()()()()()()()()()()
 
               SEWARD will generate:
                  Multipole Moment integrals up to order  2
                  Kinetic Energy integrals
                  Nuclear Attraction integrals (point charge)
                  One-Electron Hamiltonian integrals
                  Velocity integrals
                  Orbital angular momentum around ( 0.0000  0.0000  0.0000 )
                  Velocity quadrupole around ( 3.5936  1.2559 -1.5216 )
                  Two-Electron Repulsion integrals
 
 Title:
            orca_geometry_optimisation_225_120_BP86_def2-SVP_def2J_scf_cas1_ras12i11    
 
 
                   Integrals are discarded if absolute value <: 0.10E-13
                   Integral cutoff threshold is set to       <: 0.10E-15
 
++    Symmetry information:
      ---------------------
 
                    Character Table for C1 
 
                             E  
                    a        1  x, y, xy, Rz, z, xz, Ry, yz, Rx, I
--
 
 
++    Basis set information:
      ----------------------
 
 
      Basis set label: C.ANO-S...4S3P1D......
 
      Electronic valence basis set:
      ------------------
      Associated Effective Charge   6.000000 au
      Associated Actual Charge      6.000000 au
      Nuclear Model: Point charge
 
      Shell  nPrim  nBasis  Cartesian Spherical Contaminant
         s      10       4        X                  
         p       6       3        X                  
         d       3       1                 X         
 
 
      Basis set label: N.ANO-S...4S3P1D......
 
      Electronic valence basis set:
      ------------------
      Associated Effective Charge   7.000000 au
      Associated Actual Charge      7.000000 au
      Nuclear Model: Point charge
 
      Shell  nPrim  nBasis  Cartesian Spherical Contaminant
         s      10       4        X                  
         p       6       3        X                  
         d       3       1                 X         
 
 
      Basis set label: O.ANO-S...4S3P1D......
 
      Electronic valence basis set:
      ------------------
      Associated Effective Charge   8.000000 au
      Associated Actual Charge      8.000000 au
      Nuclear Model: Point charge
 
      Shell  nPrim  nBasis  Cartesian Spherical Contaminant
         s      10       4        X                  
         p       6       3        X                  
         d       3       1                 X         
 
 
      Basis set label: H.ANO-S...2S1P......
 
      Electronic valence basis set:
      ------------------
      Associated Effective Charge   1.000000 au
      Associated Actual Charge      1.000000 au
      Nuclear Model: Point charge
 
      Shell  nPrim  nBasis  Cartesian Spherical Contaminant
         s       7       2        X                  
         p       3       1        X                  
--
 
 
++    Molecular structure info:
      -------------------------
 
                    ************************************************ 
                    **** Cartesian Coordinates / Bohr, Angstrom **** 
                    ************************************************ 
 
     Center  Label                x              y              z                     x              y              z
        1      C1              -0.007464      -0.060862       0.018247             -0.003950      -0.032207       0.009656
        2      C3               4.005006       2.348060      -0.053124              2.119358       1.242540      -0.028112
        3      C4               6.179905       2.065949      -1.952669              3.270265       1.093253      -1.033308
        4      C6               8.036495       3.690888      -5.926640              4.252730       1.953134      -3.136243
        5      C19             -1.166845      -2.695672       0.152779             -0.617468      -1.426488       0.080847
        6      N2               2.591319       0.001801       0.047706              1.371267       0.000953       0.025245
        7      N5               6.141899       3.718737      -3.943656              3.250153       1.967871      -2.086893
        8      O7              -1.306320       1.865602      -0.105891             -0.691275       0.987234      -0.056035
        9      O8               7.769201       0.383726      -1.689419              4.111284       0.203059      -0.894002
       10      H9              -2.344311      -2.823557       1.880451             -1.240556      -1.494162       0.995092
       11      H10             -2.453643      -2.946463      -1.479644             -1.298412      -1.559201      -0.782994
       12      H11              0.236227      -4.249059       0.167513              0.125006      -2.248505       0.088644
       13      H12              3.630748      -1.624945       0.132710              1.921309      -0.859884       0.070227
       14      H13              2.632079       3.856527      -0.531474              1.392836       2.040786      -0.281244
       15      H14              4.855710       2.814176       1.816478              2.569531       1.489198       0.961239
       16      H15              4.716915       5.016747      -4.023138              2.496084       2.654748      -2.128953
       17      H16              7.178287       3.322055      -7.806447              3.798586       1.757956      -4.130994
       18      H17              9.092971       5.502620      -6.019248              4.811793       2.911861      -3.185249
       19      H18              9.374521       2.147727      -5.478671              4.960783       1.136528      -2.899188
 
                    ************************************************* 
                    **** InterNuclear Distances / Bohr, Angstrom **** 
                    ************************************************* 
 
     Atom centers         Bohr        Angstrom
   16 H15       7 N5      1.929177        1.020877
   13 H12       6 N2      1.932341        1.022551
   19 H18       4 C6      2.091014        1.106517
   12 H11       5 C19     2.093285        1.107719
   11 H10       5 C19     2.093693        1.107934
   10 H9        5 C19     2.094668        1.108450
   14 H13       2 C3      2.095046        1.108651
   17 H16       4 C6      2.099103        1.110797
   18 H17       4 C6      2.099307        1.110905
   15 H14       2 C3      2.106270        1.114590
    8 O7        1 C1      2.326736        1.231256
    9 O8        3 C4      2.329170        1.232544
    7 N5        3 C4      2.587892        1.369453
    6 N2        1 C1      2.599706        1.375705
    6 N2        2 C3      2.741097        1.450526
    7 N5        4 C6      2.742717        1.451383
    5 C19       1 C1      2.881750        1.524956
    3 C4        2 C3      2.901387        1.535348
   11 H10      10 H9      3.364120        1.780215
   15 H14      14 H13     3.397633        1.797950
   18 H17      17 H16     3.408072        1.803474
   19 H18      17 H16     3.408964        1.803946
   12 H11      10 H9      3.409603        1.804284
   19 H18      18 H17     3.409810        1.804394
   12 H11      11 H10     3.412519        1.805827
   16 H15       3 C4      3.890294        2.058655
   14 H13       6 N2      3.898207        2.062843
   19 H18       7 N5      3.908221        2.068142
   13 H12       1 C1      3.961823        2.096507
   13 H12       2 C3      3.994919        2.114020
   17 H16       7 N5      4.019031        2.126780
   15 H14       6 N2      4.020631        2.127627
   18 H17       7 N5      4.024816        2.129841
   16 H15       4 C6      4.049794        2.143059
   15 H14       3 C4      4.064457        2.150818
   11 H10       1 C1      4.068680        2.153053
   10 H9        1 C1      4.069538        2.153507
   12 H11       1 C1      4.197934        2.221451
   14 H13       3 C4      4.220549        2.233419
   16 H15      14 H13     4.228992        2.237886
   13 H12      12 H11     4.290682        2.270531
    8 O7        6 N2      4.323071        2.287670
    9 O8        7 N5      4.341889        2.297629
   14 H13       8 O7      4.433496        2.346105
   19 H18       9 O8      4.477408        2.369342
    9 O8        2 C3      4.550300        2.407915
    8 O7        5 C19     4.570731        2.418727
    6 N2        3 C4      4.597843        2.433074
    6 N2        5 C19     4.627224        2.448621
    7 N5        2 C3      4.645569        2.458329
    4 C6        3 C4      4.677585        2.475271
    2 C3        1 C1      4.680590        2.476862
   14 H13       1 C1      4.755556        2.516532
   19 H18       3 C4      4.758671        2.518180
   17 H16      16 H15     4.821178        2.551258
   18 H17      16 H15     4.834293        2.558198
   16 H15       2 C3      4.836291        2.559255
   12 H11       6 N2      4.861133        2.572401
   14 H13       7 N5      4.897021        2.591392
   15 H14      13 H12     4.903204        2.594664
   13 H12       5 C19     4.915665        2.601258
   13 H12       3 C4      4.946686        2.617674
   13 H12       9 O8      4.947899        2.618315
   11 H10       8 O7      5.134152        2.716876
   15 H14       9 O8      5.165930        2.733693
   10 H9        8 O7      5.197229        2.750255
    8 O7        2 C3      5.333455        2.822343
    9 O8        4 C6      5.381711        2.847879
    9 O8        6 N2      5.474845        2.897163
   14 H13      13 H12     5.611151        2.969293
   19 H18      16 H15     5.660667        2.995496
--
 
 
            Nuclear Potential Energy            448.48470215 au
 
 
      Basis set specifications :
      Symmetry species         a  
      Basis functions          212
 
 
      Input file to MOLDEN was generated!
 
--- Stop Module: seward at Wed Nov 13 20:17:28 2024 /rc=_RC_ALL_IS_WELL_ ---
*** files: orca_geometry_optimisation_225_120_BP86_def2-SVP_def2J_scf_cas1_ras12i11_cas2_ras12i8.GssOrb
           orca_geometry_optimisation_225_120_BP86_def2-SVP_def2J_scf_cas1_ras12i11_cas2_ras12i8.guessorb.molden xmldump
    saved to directory /home/pcaah4
--- Module seward spent 1 minute 52 seconds ---

*** symbolic link created: INPORB -> orca_geometry_optimisation_225_120_BP86_def2-SVP_def2J_scf_cas1_ras12i11_cas2_ras12i8.GssOrb
--- Start Module: rasscf at Wed Nov 13 20:17:28 2024 ---
 
()()()()()()()()()()()()()()()()()()()()()()()()()()()()()()()()()()()()()()()()()()()()()()()()()()

                                              &RASSCF

                                   only a single process is used
                       available to each process: 2.0 GB of memory, 1 thread
                                            pid: 1792354
()()()()()()()()()()()()()()()()()()()()()()()()()()()()()()()()()()()()()()()()()()()()()()()()()()
 
 
      Header of the ONEINT file:
      --------------------------
      orca_geometry_optimisation_225_120_BP86_def2-SVP_def2J_scf_cas1_ras12i11
      Integrals generated by Gateway/Seward, Wed Nov 13 20:15:40 2024
 
 
      OrdInt status: non-squared
 
 
      Cartesian coordinates in Angstrom:
      -----------------------------------------------------
      No.  Label        X            Y            Z        
      -----------------------------------------------------
       1   C1        -0.00395000  -0.03220700   0.00965600
       2   C3         2.11935800   1.24254000  -0.02811200
       3   C4         3.27026500   1.09325300  -1.03330800
       4   C6         4.25273000   1.95313400  -3.13624300
       5   C19       -0.61746800  -1.42648800   0.08084700
       6   N2         1.37126700   0.00095300   0.02524500
       7   N5         3.25015300   1.96787100  -2.08689300
       8   O7        -0.69127500   0.98723400  -0.05603500
       9   O8         4.11128400   0.20305900  -0.89400200
      10   H9        -1.24055600  -1.49416200   0.99509200
      11   H10       -1.29841200  -1.55920100  -0.78299400
      12   H11        0.12500600  -2.24850500   0.08864400
      13   H12        1.92130900  -0.85988400   0.07022700
      14   H13        1.39283600   2.04078600  -0.28124400
      15   H14        2.56953100   1.48919800   0.96123900
      16   H15        2.49608400   2.65474800  -2.12895300
      17   H16        3.79858600   1.75795600  -4.13099400
      18   H17        4.81179300   2.91186100  -3.18524900
      19   H18        4.96078300   1.13652800  -2.89918800
      -----------------------------------------------------
      Nuclear repulsion energy =  448.48470215
 
++    Wave function specifications:
      -----------------------------
 
      Number of closed shell electrons          58
      Number of electrons in active shells      12
      Max number of holes in RAS1 space          0
      Max nr of electrons in RAS3 space          0
      Number of inactive orbitals               29
      Number of active orbitals                  8
      Number of secondary orbitals             172
      Spin quantum number                      0.0
      State symmetry                             1
--
 
++    Orbital specifications:
      -----------------------
 
      Symmetry species                           1
                                                 a
      Frozen orbitals                            0
      Inactive orbitals                         29
      Active orbitals                            8
      RAS1 orbitals                              0
      RAS2 orbitals                              8
      RAS3 orbitals                              0
      Secondary orbitals                       172
      Deleted orbitals                           3
      Number of basis functions                212
--
 
++    CI expansion specifications:
      ----------------------------
 
      Number of CSFs                           336
      Number of determinants                   406
      Number of root(s) required                 7
      Root chosen for geometry opt.              7
      CI roots used                              1     2     3     4     5     6     7
      weights                                0.143 0.143 0.143 0.143 0.143 0.143 0.143
      highest root included in the CI            7
      max. size of the explicit Hamiltonian    200
--
 
++    Optimization specifications:
      ----------------------------
 
      RASSCF algorithm: Conventional
      Maximum number of macro iterations        64
      Maximum number of SX iterations           25
      Threshold for RASSCF energy            0.100E-07
      Threshold for max MO rotation          0.100E+00
      Threshold for max BLB element          0.100E-03
      Level shift parameter                  0.300E+00
      Make Quasi-Newton update
--
 
      The MO-coefficients are taken from the file:
      /home/pcaah4/outputs/cas1_ras12i11_rasorb_files/orca_geometry_optimisation_225_120_BP86_def2-SVP_def2J_scf_cas1_ras12i11.RasOrb                                                                                                                                 
      Title: RASSCF average (pseudo-natural) orbitals                                      
 
      Total molecular charge    0.00
 
      Molecular orbitals exchanged:
        In symmetry  1 :  38 210
        In symmetry  1 :  39 211
        In symmetry  1 :  40 212
 
 
      ************************************************************************************************************************
      *                                                                                                                      *
      *                                            Wave function control section                                             *
      *                                                                                                                      *
      ************************************************************************************************************************
 
 
                                         RASSCF iterations: Energy and convergence statistics
                                         ----------------------------------------------------
 
      Iter CI   SX   CI       RASSCF       Energy    max ROT     max BLB   max BLB  Level Ln srch  Step   QN   Walltime
          iter iter root      energy       change     param      element    value   shift minimum  type update hh:mm:ss
 Nr of preliminary CI iterations:   4
        1   1   10    0  -453.70425911    0.00E+00   0.33E-01   32 158 1 -0.14E-01*  0.19   0.00    SX    NO    0:00:13
        2   3    8    0  -453.70672755   -0.25E-02*  0.16E-01    2  40 1  0.32E-02*  0.19   0.00    SX    NO    0:00:06
        3   1    8    0  -453.70696402   -0.24E-03*  0.71E-02   22  99 1 -0.15E-02*  0.19   0.00    SX    NO    0:00:06
        4   6    8    0  -453.70706064   -0.97E-04*  0.42E-02   10  39 1 -0.33E-03*  0.19   0.00    SX    NO    0:00:06
        5   3    7    0  -453.70708251   -0.22E-04*  0.62E-02   22  99 1 -0.39E-03*  0.19   1.96    QN   YES    0:00:06
        6   6    6    0  -453.70709441   -0.12E-04*  0.13E-02   22  99 1  0.17E-03*  0.19   0.84    QN   YES    0:00:06
        7   3    6    0  -453.70709514   -0.73E-06*  0.40E-03   22  99 1 -0.11E-03*  0.19   0.89    QN   YES    0:00:06
        8   4    5    0  -453.70709539   -0.25E-06*  0.60E-03   36  53 1 -0.21E-04   0.19   2.50    LS   YES    0:00:06
        9   4    5    0  -453.70709542   -0.30E-07*  0.24E-03   11  40 1 -0.91E-04   0.19   0.59    LS   YES    0:00:06
       10   3    5    0  -453.70709546   -0.38E-07*  0.17E-03   11  40 1 -0.45E-04   0.19   0.99    QN   YES    0:00:06
       11   1    5    0  -453.70709549   -0.31E-07*  0.54E-04   22  99 1  0.11E-04   0.19   1.19    QN   YES    0:00:06
       12   3    4    0  -453.70709549   -0.72E-08   0.28E-04   22  99 1  0.49E-05   0.19   1.30    QN   YES    0:00:06
      Convergence after 12 iterations
       13   3    4    0  -453.70709550   -0.24E-08   0.28E-04   31 155 1  0.17E-05   0.19   1.30    QN   YES    0:00:06
 
      ************************************************************************************************************************
                                                      Wave function printout:
                       occupation of active orbitals, and spin coupling of open shells (u,d: Spin up or down)
      ************************************************************************************************************************
 
      Note: transformation to natural orbitals
      has been made, which may change the order of the CSFs.
 
      printout of CI-coefficients larger than  0.05 for root  1
      energy=    -453.958076
      conf/sym  11111111     Coeff  Weight
             1  22222200  -0.96254 0.92647
             6  22220220   0.08414 0.00708
             7  22222u0d  -0.14198 0.02016
            15  22222002   0.07753 0.00601
            64  2u22220d   0.07721 0.00596
            73  2u222d02  -0.06176 0.00381
            81  u22222d0   0.09755 0.00952
           175  20222202   0.09747 0.00950
           191  02222220   0.07626 0.00582
 
      printout of CI-coefficients larger than  0.05 for root  2
      energy=    -453.745408
      conf/sym  11111111     Coeff  Weight
            21  222u22d0  -0.12552 0.01576
            24  222u220d  -0.95491 0.91186
            32  222u022d   0.08159 0.00666
            33  222u2d02   0.09057 0.00820
           115  22ud2202  -0.05275 0.00278
           125  2u2d2202  -0.18214 0.03318
           213  u22u22dd  -0.08032 0.00645
           269  022u222d  -0.07658 0.00586
 
      printout of CI-coefficients larger than  0.05 for root  3
      energy=    -453.733534
      conf/sym  11111111     Coeff  Weight
             2  22222ud0   0.25187 0.06344
             3  2222u2d0   0.05289 0.00280
            21  222u22d0   0.06222 0.00387
            41  22u222d0   0.91438 0.83608
            43  22u2d220   0.16368 0.02679
            45  22u22dud   0.06548 0.00429
            47  22u22udd  -0.11311 0.01279
            55  22u220d2   0.07890 0.00622
           161  u2d22220   0.11803 0.01393
           219  2uu222dd  -0.06390 0.00408
           222  2uu22dd2   0.05072 0.00257
           294  20u222d2  -0.09224 0.00851
 
      printout of CI-coefficients larger than  0.05 for root  4
      energy=    -453.644629
      conf/sym  11111111     Coeff  Weight
             1  22222200   0.07007 0.00491
             2  22222ud0  -0.33603 0.11291
             3  2222u2d0   0.80892 0.65435
             6  22220220  -0.05268 0.00277
             7  22222u0d  -0.32925 0.10840
            10  2222udud   0.05039 0.00254
            12  2222uudd  -0.08354 0.00698
            15  22222002  -0.07152 0.00512
            18  2222u0d2   0.06787 0.00461
            41  22u222d0   0.05141 0.00264
            65  2u222dud  -0.05676 0.00322
            67  2u222udd   0.06922 0.00479
            68  2u22u2dd  -0.06037 0.00364
            73  2u222d02  -0.08597 0.00739
            81  u22222d0  -0.08481 0.00719
            83  u222d220   0.19490 0.03799
           177  2022u2d2  -0.08102 0.00656
 
      printout of CI-coefficients larger than  0.05 for root  5
      energy=    -453.640199
      conf/sym  11111111     Coeff  Weight
             2  22222ud0   0.75744 0.57371
             3  2222u2d0   0.44142 0.19485
             7  22222u0d   0.26750 0.07155
            15  22222002   0.06191 0.00383
            21  222u22d0  -0.05335 0.00285
            41  22u222d0  -0.23075 0.05324
            65  2u222dud   0.12041 0.01450
            67  2u222udd  -0.16091 0.02589
            73  2u222d02   0.07183 0.00516
            83  u222d220   0.12884 0.01660
           176  20222ud2  -0.10337 0.01068
 
      printout of CI-coefficients larger than  0.05 for root  6
      energy=    -453.619205
      conf/sym  11111111     Coeff  Weight
             1  22222200  -0.10235 0.01048
             2  22222ud0  -0.35910 0.12895
             3  2222u2d0   0.19403 0.03765
             7  22222u0d   0.74772 0.55908
            14  22220u2d   0.06862 0.00471
            15  22222002   0.14357 0.02061
            21  222u22d0   0.34675 0.12024
            25  222u2dud  -0.08630 0.00745
            27  222u2udd   0.12251 0.01501
            65  2u222dud  -0.06057 0.00367
            67  2u222udd   0.10006 0.01001
            73  2u222d02   0.19713 0.03886
            83  u222d220   0.05026 0.00253
            87  u2222udd   0.07252 0.00526
           175  20222202  -0.07779 0.00605
           176  20222ud2   0.06026 0.00363
           193  02222u2d   0.05510 0.00304
 
      printout of CI-coefficients larger than  0.05 for root  7
      energy=    -453.608618
      conf/sym  11111111     Coeff  Weight
             2  22222ud0  -0.16795 0.02821
             7  22222u0d   0.31012 0.09617
            15  22222002   0.06354 0.00404
            21  222u22d0  -0.81767 0.66859
            24  222u220d   0.10926 0.01194
            25  222u2dud   0.20890 0.04364
            27  222u2udd  -0.29303 0.08587
            41  22u222d0   0.09581 0.00918
            73  2u222d02   0.08094 0.00655
           112  22ud22ud   0.06094 0.00371
           201  22uu22dd   0.06288 0.00395
           210  2u2u2dd2   0.07360 0.00542
           262  202u22d2   0.07602 0.00578
 
      Natural orbitals and occupation numbers for root  1
      sym 1:   1.973254   1.995622   1.999878   1.999823   1.993770   1.955978   0.033118   0.048558
 
      Natural orbitals and occupation numbers for root  2
      sym 1:   1.973222   1.999717   1.998637   1.003286   1.994344   1.999525   0.033928   0.997342
 
      Natural orbitals and occupation numbers for root  3
      sym 1:   1.999798   1.993680   1.005357   1.998091   1.998609   1.954826   0.998138   0.051502
 
      Natural orbitals and occupation numbers for root  4
      sym 1:   1.969665   1.954846   1.999305   1.999637   1.141970   1.856840   0.903561   0.174175
 
      Natural orbitals and occupation numbers for root  5
      sym 1:   1.987676   1.920072   1.998115   1.999326   1.948394   1.063674   0.970145   0.112598
 
      Natural orbitals and occupation numbers for root  6
      sym 1:   1.988247   1.949718   1.997757   1.881724   1.980941   1.136235   0.182686   0.882691
 
      Natural orbitals and occupation numbers for root  7
      sym 1:   1.998874   1.976766   1.990266   1.236759   1.995464   1.848525   0.774495   0.178852
 
      ************************************************************************************************************************
      *                                                                                                                      *
      *                                                    Final results                                                     *
      *                                                                                                                      *
      ************************************************************************************************************************
 
 
++    Wave function specifications:
      -----------------------------
 
      Number of closed shell electrons          58
      Number of electrons in active shells      12
      Max number of holes in RAS1 space          0
      Max nr of electrons in RAS3 space          0
      Number of inactive orbitals               29
      Number of active orbitals                  8
      Number of secondary orbitals             172
      Spin quantum number                      0.0
      State symmetry                             1
--
 
++    Orbital specifications:
      -----------------------
 
      Symmetry species                           1
                                                 a
      Frozen orbitals                            0
      Inactive orbitals                         29
      Active orbitals                            8
      RAS1 orbitals                              0
      RAS2 orbitals                              8
      RAS3 orbitals                              0
      Secondary orbitals                       172
      Deleted orbitals                           3
      Number of basis functions                212
--
 
++    CI expansion specifications:
      ----------------------------
 
      Number of CSFs                           336
      Number of determinants                   406
      Number of root(s) required                 7
      CI roots used                              1     2     3     4     5     6     7
      weights                                0.143 0.143 0.143 0.143 0.143 0.143 0.143
      highest root included in the CI            7
      Root passed to geometry opt.               7
--
 
++    Final optimization conditions:
      ------------------------------
 
      Average CI energy                            -453.70709550
      RASSCF energy for state  7                   -453.60861772
      Super-CI energy                                -0.00000000
      RASSCF energy change                            0.00000000
      Max change in MO coefficients              -0.562E-04
      Max non-diagonal density matrix element     0.278E-04
      Maximum BLB matrix element                  0.169E-05
      (orbital pair  31, 155 in symmetry   1)
      Norm of electronic gradient            0.309E+00
--
 
 
      Final state energy(ies):
      ------------------------
 
::    RASSCF root number  1 Total energy:   -453.95807603
::    RASSCF root number  2 Total energy:   -453.74540786
::    RASSCF root number  3 Total energy:   -453.73353415
::    RASSCF root number  4 Total energy:   -453.64462868
::    RASSCF root number  5 Total energy:   -453.64019868
::    RASSCF root number  6 Total energy:   -453.61920536
::    RASSCF root number  7 Total energy:   -453.60861772
 
++    Molecular orbitals:
      -------------------
 
      Pseudonatural active orbitals and approximate occupation numbers
 
 
 
 
      Molecular orbitals for symmetry species 1: a  
 
 
      Orbital                 1         2         3         4         5         6         7         8         9        10
      Energy           -20.6031  -20.5221  -15.6365  -15.5819  -11.3412  -11.2887  -11.2860  -11.2610  -11.2589   -1.4250
      Occ. No.           2.0000    2.0000    2.0000    2.0000    2.0000    2.0000    2.0000    2.0000    2.0000    2.0000
 
     1 C1     1s         0.0003    0.0000   -0.0003   -0.0000    1.0000    0.0001   -0.0001   -0.0000   -0.0038   -0.0391
     2 C1     2s         0.0010    0.0002   -0.0012   -0.0003    0.0021   -0.0006   -0.0002   -0.0004   -0.0005    0.3534
     3 C1     3s        -0.0004    0.0001   -0.0005   -0.0002   -0.0002   -0.0006   -0.0002   -0.0003   -0.0008   -0.0047
     4 C1     4s        -0.0004   -0.0000   -0.0001   -0.0001    0.0012   -0.0003   -0.0001   -0.0001   -0.0003    0.0037
     5 C1     2px       -0.0014    0.0001   -0.0017   -0.0004    0.0012    0.0000   -0.0004   -0.0002   -0.0004   -0.0431
     6 C1     3px       -0.0009   -0.0000   -0.0013   -0.0006    0.0013   -0.0003   -0.0006   -0.0003    0.0000    0.0307
     7 C1     4px        0.0001   -0.0000    0.0001   -0.0001    0.0004   -0.0003   -0.0001   -0.0001    0.0002   -0.0131
     8 C1     2py        0.0031   -0.0002   -0.0001   -0.0001    0.0010    0.0001   -0.0005   -0.0002   -0.0006    0.0956
     9 C1     3py        0.0021   -0.0002   -0.0001   -0.0001    0.0009   -0.0005   -0.0005   -0.0002    0.0001   -0.0674
    10 C1     4py       -0.0004   -0.0000   -0.0000   -0.0000    0.0007   -0.0004   -0.0000   -0.0000    0.0003    0.0233
    11 C1     2pz       -0.0002   -0.0003   -0.0001   -0.0001   -0.0000    0.0000    0.0001    0.0000   -0.0000   -0.0052
    12 C1     3pz       -0.0001   -0.0004   -0.0001   -0.0001   -0.0000    0.0000    0.0001    0.0000   -0.0001    0.0030
    13 C1     4pz        0.0000   -0.0001   -0.0000   -0.0000   -0.0000    0.0000    0.0000    0.0000   -0.0000   -0.0019
    14 C1     3d2-       0.0001    0.0000   -0.0001    0.0000   -0.0004    0.0000   -0.0000   -0.0000    0.0001   -0.0332
    15 C1     3d1-       0.0000   -0.0000   -0.0000   -0.0000   -0.0000    0.0000    0.0000    0.0000    0.0000   -0.0036
    16 C1     3d0       -0.0000   -0.0000   -0.0001    0.0000   -0.0004   -0.0001    0.0000    0.0000    0.0001   -0.0279
    17 C1     3d1+      -0.0000   -0.0000    0.0000   -0.0000    0.0000    0.0000    0.0000   -0.0000   -0.0000    0.0023
    18 C1     3d2+       0.0001    0.0000    0.0002    0.0000   -0.0000    0.0000    0.0000    0.0000   -0.0000   -0.0094
    19 C3     1s         0.0001    0.0001   -0.0003    0.0001   -0.0001    0.9936   -0.1077    0.0000    0.0001   -0.0096
    20 C3     2s         0.0006    0.0007   -0.0015    0.0007    0.0005   -0.0016   -0.0005    0.0005    0.0008    0.0159
    21 C3     3s         0.0004    0.0004   -0.0007    0.0005    0.0002   -0.0028   -0.0005    0.0003    0.0005   -0.0191
    22 C3     4s         0.0001   -0.0000   -0.0001    0.0001   -0.0000    0.0006   -0.0002    0.0000    0.0001   -0.0020
    23 C3     2px        0.0001   -0.0004    0.0003    0.0003    0.0008   -0.0008   -0.0000   -0.0000    0.0002   -0.0212
    24 C3     3px        0.0003   -0.0005   -0.0001    0.0002    0.0012   -0.0008   -0.0006   -0.0003    0.0003   -0.0101
    25 C3     4px        0.0002   -0.0001   -0.0002   -0.0001    0.0004   -0.0005   -0.0001   -0.0002    0.0001   -0.0058
    26 C3     2py       -0.0002    0.0007    0.0004   -0.0006    0.0004   -0.0000    0.0002    0.0001   -0.0001   -0.0194
    27 C3     3py       -0.0001    0.0007   -0.0001   -0.0005    0.0005    0.0002    0.0001    0.0001    0.0001   -0.0050
    28 C3     4py        0.0000    0.0000   -0.0002    0.0001    0.0001   -0.0008   -0.0000    0.0000    0.0001   -0.0046
    29 C3     2pz        0.0001   -0.0008    0.0003    0.0005   -0.0004    0.0001   -0.0001   -0.0005   -0.0000    0.0037
    30 C3     3pz        0.0001   -0.0005    0.0005    0.0005   -0.0006   -0.0002    0.0003   -0.0004   -0.0000    0.0075
    31 C3     4pz        0.0000    0.0002    0.0001    0.0001   -0.0001   -0.0002    0.0001   -0.0000    0.0000    0.0018
    32 C3     3d2-       0.0000    0.0000   -0.0000   -0.0001    0.0000   -0.0001   -0.0000    0.0000    0.0000    0.0034
    33 C3     3d1-      -0.0000   -0.0001    0.0000   -0.0000   -0.0000    0.0000    0.0001    0.0000   -0.0000    0.0000
    34 C3     3d0       -0.0000    0.0000   -0.0001   -0.0000   -0.0000    0.0000    0.0000    0.0000   -0.0000   -0.0024
    35 C3     3d1+       0.0000   -0.0001   -0.0000   -0.0000    0.0000    0.0001    0.0000   -0.0001    0.0000   -0.0008
    36 C3     3d2+      -0.0000   -0.0000   -0.0001    0.0000    0.0000    0.0001    0.0000    0.0000   -0.0000   -0.0005
    37 C4     1s         0.0000    0.0003    0.0000    0.0002   -0.0002    0.1077    0.9942    0.0003   -0.0001    0.0002
    38 C4     2s         0.0002    0.0011    0.0003    0.0010   -0.0014    0.0011    0.0028   -0.0004   -0.0005    0.0313
    39 C4     3s         0.0001   -0.0002    0.0002    0.0004   -0.0011    0.0003    0.0003   -0.0004   -0.0004    0.0101
    40 C4     4s        -0.0000   -0.0003    0.0001    0.0001   -0.0003    0.0002    0.0014   -0.0002   -0.0001    0.0035
    41 C4     2px       -0.0001    0.0022   -0.0000    0.0001    0.0002   -0.0008    0.0000    0.0001    0.0002   -0.0032
    42 C4     3px       -0.0000    0.0013    0.0000    0.0000    0.0003   -0.0002   -0.0000   -0.0003    0.0003   -0.0049
    43 C4     4px        0.0001   -0.0004   -0.0000   -0.0000    0.0001    0.0002    0.0002   -0.0003    0.0001   -0.0019
    44 C4     2py       -0.0000   -0.0025    0.0000    0.0009   -0.0001    0.0003    0.0005   -0.0003   -0.0001   -0.0024
    45 C4     3py       -0.0001   -0.0018   -0.0000    0.0006   -0.0002    0.0004    0.0003   -0.0004   -0.0001    0.0039
    46 C4     4py       -0.0001    0.0003   -0.0000   -0.0001   -0.0001    0.0001   -0.0001   -0.0001   -0.0000    0.0009
    47 C4     2pz       -0.0003    0.0004   -0.0003   -0.0013   -0.0001    0.0010   -0.0007    0.0003   -0.0002    0.0051
    48 C4     3pz       -0.0005    0.0004   -0.0004   -0.0010   -0.0002    0.0007   -0.0003    0.0009   -0.0002    0.0052
    49 C4     4pz       -0.0001    0.0000   -0.0000    0.0001   -0.0000   -0.0000   -0.0003    0.0005   -0.0000    0.0020
    50 C4     3d2-       0.0000    0.0001   -0.0001    0.0001    0.0000    0.0000   -0.0004   -0.0000    0.0000   -0.0015
    51 C4     3d1-       0.0000   -0.0000   -0.0000    0.0002    0.0000    0.0000   -0.0003   -0.0001    0.0000   -0.0011
    52 C4     3d0        0.0000    0.0001    0.0000   -0.0000    0.0000   -0.0000   -0.0001    0.0000   -0.0000   -0.0005
    53 C4     3d1+      -0.0000   -0.0001    0.0000   -0.0001   -0.0000   -0.0000    0.0001   -0.0000    0.0000   -0.0000
    54 C4     3d2+       0.0000   -0.0000    0.0001    0.0001    0.0000    0.0000   -0.0001   -0.0000    0.0000    0.0001
    55 C6     1s         0.0000    0.0001    0.0001    0.0003   -0.0001    0.0000   -0.0004    0.9997    0.0000    0.0007
    56 C6     2s        -0.0000    0.0006    0.0008    0.0014   -0.0006   -0.0000   -0.0003    0.0001    0.0001    0.0083
    57 C6     3s        -0.0001    0.0004    0.0006    0.0003   -0.0005   -0.0000   -0.0004   -0.0016    0.0000    0.0069
    58 C6     4s        -0.0000    0.0001    0.0002   -0.0001   -0.0002   -0.0000   -0.0002    0.0009   -0.0000    0.0025
    59 C6     2px        0.0001   -0.0001   -0.0001   -0.0004    0.0002   -0.0002    0.0001   -0.0001    0.0001   -0.0049
    60 C6     3px        0.0001   -0.0001   -0.0001    0.0001    0.0002   -0.0002    0.0001    0.0002    0.0000   -0.0042
    61 C6     4px       -0.0000   -0.0000    0.0000    0.0002    0.0000    0.0000   -0.0000   -0.0005   -0.0000   -0.0001
    62 C6     2py        0.0001   -0.0001    0.0002    0.0001   -0.0001   -0.0001    0.0002    0.0001    0.0000    0.0009
    63 C6     3py        0.0001   -0.0000    0.0002    0.0002   -0.0001   -0.0001    0.0003   -0.0001    0.0000    0.0005
    64 C6     4py        0.0000    0.0001   -0.0000    0.0000    0.0000   -0.0000    0.0001   -0.0000    0.0000   -0.0004
    65 C6     2pz       -0.0000    0.0003    0.0002    0.0003   -0.0002   -0.0001   -0.0004   -0.0001    0.0000    0.0038
    66 C6     3pz       -0.0000    0.0003    0.0002   -0.0002   -0.0002   -0.0001   -0.0005   -0.0002   -0.0000    0.0039
    67 C6     4pz       -0.0000   -0.0000    0.0000   -0.0002   -0.0000   -0.0000   -0.0001    0.0005   -0.0000    0.0010
    68 C6     3d2-       0.0000   -0.0000    0.0000    0.0001   -0.0000   -0.0000    0.0000    0.0000   -0.0000    0.0002
    69 C6     3d1-      -0.0000   -0.0000    0.0000    0.0000   -0.0000    0.0000   -0.0001   -0.0000   -0.0000    0.0001
    70 C6     3d0       -0.0000    0.0000    0.0000    0.0000    0.0000    0.0000    0.0000    0.0000   -0.0000    0.0002
    71 C6     3d1+       0.0000   -0.0000   -0.0000    0.0001    0.0000   -0.0000   -0.0000    0.0001   -0.0000   -0.0003
    72 C6     3d2+      -0.0000    0.0000    0.0000   -0.0000   -0.0000    0.0000   -0.0000   -0.0001   -0.0000    0.0002
    73 C19    1s         0.0002   -0.0000    0.0000   -0.0000    0.0037    0.0002   -0.0000   -0.0000    1.0000   -0.0146
    74 C19    2s         0.0012   -0.0002    0.0001   -0.0001    0.0006    0.0009   -0.0001   -0.0002    0.0019   -0.0133
    75 C19    3s         0.0007   -0.0002   -0.0000   -0.0001    0.0002    0.0004   -0.0001   -0.0002   -0.0005   -0.0395
    76 C19    4s         0.0001   -0.0000    0.0000   -0.0001    0.0001   -0.0000   -0.0000   -0.0001    0.0012   -0.0036
    77 C19    2px        0.0008   -0.0000    0.0003   -0.0000   -0.0002    0.0002    0.0001   -0.0000   -0.0002   -0.0106
    78 C19    3px        0.0005   -0.0000    0.0003    0.0000   -0.0003    0.0002    0.0001   -0.0000   -0.0001   -0.0079
    79 C19    4px       -0.0002    0.0000   -0.0000    0.0000   -0.0000   -0.0000    0.0000    0.0000    0.0002    0.0077
    80 C19    2py       -0.0001   -0.0001   -0.0003   -0.0001    0.0004    0.0003   -0.0001   -0.0001   -0.0003    0.0215
    81 C19    3py       -0.0003   -0.0000   -0.0003   -0.0002   -0.0001    0.0001   -0.0001   -0.0001   -0.0000   -0.0055
    82 C19    4py       -0.0002    0.0000    0.0001   -0.0000   -0.0001   -0.0001   -0.0000   -0.0000    0.0004    0.0058
    83 C19    2pz       -0.0000   -0.0001    0.0000   -0.0000   -0.0000    0.0001   -0.0000   -0.0001    0.0000   -0.0008
    84 C19    3pz       -0.0000   -0.0000    0.0000   -0.0000    0.0000    0.0001   -0.0000   -0.0000    0.0000    0.0008
    85 C19    4pz        0.0000    0.0000   -0.0000    0.0000    0.0000    0.0000   -0.0000    0.0000   -0.0000   -0.0002
    86 C19    3d2-       0.0001   -0.0000    0.0000   -0.0000    0.0000    0.0001   -0.0000   -0.0000   -0.0001    0.0004
    87 C19    3d1-       0.0000    0.0000    0.0000   -0.0000    0.0000   -0.0000    0.0000    0.0000    0.0000   -0.0003
    88 C19    3d0       -0.0001   -0.0000    0.0001    0.0000    0.0001   -0.0000   -0.0000    0.0000    0.0001    0.0015
    89 C19    3d1+       0.0000    0.0000   -0.0000    0.0000   -0.0000   -0.0000   -0.0000    0.0000    0.0000   -0.0000
    90 C19    3d2+       0.0001   -0.0000    0.0000    0.0000   -0.0001   -0.0000    0.0000    0.0000    0.0001   -0.0070
    91 N2     1s         0.0001   -0.0000   -0.9999   -0.0000   -0.0002    0.0001    0.0001    0.0000    0.0001   -0.0179
    92 N2     2s         0.0005   -0.0002   -0.0002   -0.0002   -0.0001    0.0015    0.0005    0.0001    0.0007    0.1143
    93 N2     3s         0.0004   -0.0001    0.0012   -0.0001   -0.0002    0.0008    0.0004    0.0001    0.0005   -0.0481
    94 N2     4s         0.0001   -0.0000   -0.0005   -0.0000    0.0001    0.0003    0.0001    0.0000    0.0001   -0.0114
    95 N2     2px        0.0002   -0.0001   -0.0006   -0.0004   -0.0002    0.0009    0.0002   -0.0001   -0.0004   -0.0300
    96 N2     3px        0.0002   -0.0002   -0.0007   -0.0005   -0.0000    0.0008    0.0002   -0.0003   -0.0004    0.0164
    97 N2     4px        0.0000   -0.0000    0.0002   -0.0000   -0.0002    0.0000   -0.0000   -0.0001    0.0001   -0.0056
    98 N2     2py       -0.0016    0.0000    0.0007   -0.0002    0.0003    0.0009    0.0003   -0.0000   -0.0003    0.0377
    99 N2     3py       -0.0019    0.0001    0.0001   -0.0004    0.0003    0.0010    0.0004   -0.0001   -0.0003    0.0160
   100 N2     4py       -0.0000    0.0000   -0.0004   -0.0001   -0.0000    0.0002   -0.0000   -0.0000    0.0001   -0.0058
   101 N2     2pz        0.0001    0.0004   -0.0001   -0.0000    0.0000   -0.0001    0.0001    0.0001    0.0000   -0.0020
   102 N2     3pz        0.0001    0.0005    0.0000    0.0000    0.0001   -0.0001    0.0000    0.0001    0.0000   -0.0023
   103 N2     4pz        0.0000    0.0001    0.0000    0.0000    0.0000   -0.0001    0.0001    0.0000    0.0000   -0.0004
   104 N2     3d2-       0.0001   -0.0000    0.0002   -0.0000   -0.0001   -0.0000    0.0000   -0.0000   -0.0000   -0.0027
   105 N2     3d1-      -0.0000    0.0000    0.0000   -0.0000    0.0000    0.0000   -0.0000    0.0000   -0.0000   -0.0001
   106 N2     3d0       -0.0000    0.0000    0.0000    0.0000    0.0002    0.0001   -0.0000   -0.0000   -0.0001   -0.0027
   107 N2     3d1+      -0.0000    0.0000   -0.0000   -0.0000   -0.0000   -0.0000   -0.0000    0.0000   -0.0000    0.0003
   108 N2     3d2+      -0.0000   -0.0000    0.0000   -0.0000    0.0001   -0.0000    0.0000   -0.0000    0.0000    0.0048
   109 N5     1s         0.0000    0.0001   -0.0001    0.9999    0.0001    0.0000   -0.0003    0.0001    0.0000   -0.0017
   110 N5     2s         0.0001    0.0009   -0.0003    0.0006    0.0006    0.0002   -0.0003    0.0017    0.0002   -0.0010
   111 N5     3s         0.0001    0.0006   -0.0002   -0.0010    0.0004    0.0001   -0.0004    0.0010    0.0001   -0.0058
   112 N5     4s         0.0000    0.0001   -0.0000    0.0006    0.0001    0.0000    0.0000    0.0004    0.0000   -0.0013
   113 N5     2px       -0.0001   -0.0012   -0.0005   -0.0008    0.0003    0.0001    0.0003    0.0006   -0.0001   -0.0034
   114 N5     3px       -0.0001   -0.0014   -0.0007   -0.0005    0.0005    0.0002    0.0003    0.0007   -0.0002   -0.0057
   115 N5     4px        0.0000    0.0000   -0.0001    0.0003    0.0001    0.0001   -0.0001    0.0002   -0.0000   -0.0014
   116 N5     2py        0.0001    0.0007    0.0000    0.0006    0.0001   -0.0002   -0.0003    0.0001    0.0000   -0.0026
   117 N5     3py        0.0001    0.0008   -0.0001    0.0002    0.0002   -0.0001   -0.0001   -0.0001    0.0000   -0.0015
   118 N5     4py       -0.0000    0.0000   -0.0000   -0.0003    0.0001    0.0001   -0.0001   -0.0001    0.0000   -0.0006
   119 N5     2pz        0.0000    0.0005    0.0004    0.0001   -0.0003    0.0001   -0.0002   -0.0007    0.0000    0.0060
   120 N5     3pz        0.0001    0.0007    0.0006    0.0001   -0.0006    0.0000   -0.0002   -0.0005    0.0000    0.0092
   121 N5     4pz        0.0000   -0.0000    0.0001    0.0000   -0.0001   -0.0001    0.0002   -0.0000   -0.0000    0.0024
   122 N5     3d2-      -0.0000   -0.0000   -0.0000   -0.0001    0.0000   -0.0000    0.0001    0.0000   -0.0000    0.0001
   123 N5     3d1-      -0.0000    0.0000   -0.0000    0.0000    0.0000   -0.0000    0.0001    0.0001   -0.0000   -0.0002
   124 N5     3d0       -0.0000    0.0000   -0.0000   -0.0001   -0.0000    0.0000   -0.0000   -0.0000   -0.0000    0.0001
   125 N5     3d1+       0.0000   -0.0001    0.0000    0.0001    0.0000    0.0000    0.0001    0.0000    0.0000   -0.0001
   126 N5     3d2+      -0.0000    0.0000    0.0000   -0.0000    0.0000   -0.0000   -0.0001   -0.0000   -0.0000    0.0000
   127 O7     1s         0.9997    0.0000   -0.0000   -0.0000   -0.0002   -0.0000    0.0000    0.0000    0.0001   -0.0238
   128 O7     2s        -0.0016   -0.0000   -0.0002   -0.0000    0.0004   -0.0001    0.0002    0.0000    0.0004    0.6925
   129 O7     3s        -0.0014   -0.0000   -0.0002    0.0000   -0.0000   -0.0000    0.0001    0.0000    0.0003   -0.0342
   130 O7     4s         0.0000   -0.0000   -0.0000    0.0000    0.0000    0.0000    0.0000    0.0000    0.0001   -0.0139
   131 O7     2px        0.0001   -0.0000    0.0003    0.0001    0.0004   -0.0001    0.0001    0.0000    0.0001    0.0879
   132 O7     3px       -0.0003   -0.0001    0.0004    0.0002   -0.0001   -0.0001    0.0001    0.0000    0.0002   -0.0268
   133 O7     4px        0.0008   -0.0000    0.0001    0.0000    0.0001    0.0000    0.0000   -0.0000   -0.0000   -0.0017
   134 O7     2py       -0.0001   -0.0000    0.0002    0.0000   -0.0006   -0.0000    0.0000   -0.0000   -0.0001   -0.1187
   135 O7     3py        0.0006   -0.0000    0.0002    0.0001   -0.0004   -0.0001    0.0001   -0.0000   -0.0001    0.0367
   136 O7     4py       -0.0011   -0.0000   -0.0001    0.0000   -0.0003   -0.0000    0.0000   -0.0000    0.0000    0.0001
   137 O7     2pz        0.0000    0.0000   -0.0000   -0.0000    0.0001    0.0000   -0.0000   -0.0000    0.0000    0.0089
   138 O7     3pz       -0.0001    0.0001    0.0000   -0.0000    0.0000    0.0000   -0.0001   -0.0000    0.0000   -0.0023
   139 O7     4pz        0.0001    0.0000    0.0000   -0.0000    0.0000    0.0000   -0.0000   -0.0000   -0.0000    0.0001
   140 O7     3d2-       0.0001   -0.0000   -0.0000   -0.0000   -0.0002    0.0000   -0.0000   -0.0000   -0.0000   -0.0182
   141 O7     3d1-       0.0000   -0.0000    0.0000   -0.0000   -0.0000    0.0000   -0.0000   -0.0000   -0.0000   -0.0017
   142 O7     3d0       -0.0000    0.0000    0.0001   -0.0000   -0.0001    0.0000    0.0000    0.0000   -0.0000   -0.0106
   143 O7     3d1+      -0.0000   -0.0000   -0.0000   -0.0000    0.0000    0.0000    0.0000   -0.0000    0.0000    0.0012
   144 O7     3d2+       0.0000   -0.0000    0.0001    0.0000   -0.0001   -0.0000    0.0000    0.0000   -0.0000   -0.0062
   145 O8     1s         0.0000    0.9997    0.0000    0.0000    0.0000    0.0000   -0.0002   -0.0000    0.0000   -0.0014
   146 O8     2s        -0.0000   -0.0016    0.0001    0.0002    0.0002    0.0003    0.0006   -0.0003    0.0001    0.0170
   147 O8     3s        -0.0000   -0.0015    0.0002    0.0002    0.0002    0.0002    0.0001   -0.0002    0.0001   -0.0034
   148 O8     4s        -0.0000    0.0000    0.0001    0.0000    0.0001    0.0001    0.0000   -0.0000    0.0000   -0.0010
   149 O8     2px        0.0000   -0.0001   -0.0001   -0.0001   -0.0001   -0.0001   -0.0005    0.0000   -0.0001   -0.0031
   150 O8     3px        0.0001    0.0004   -0.0002   -0.0001   -0.0001   -0.0001   -0.0002   -0.0000   -0.0001    0.0027
   151 O8     4px        0.0000   -0.0010   -0.0000    0.0001   -0.0000    0.0000   -0.0002   -0.0000   -0.0000    0.0001
   152 O8     2py        0.0000    0.0001    0.0000   -0.0001    0.0001    0.0001    0.0006   -0.0001    0.0000    0.0010
   153 O8     3py        0.0001   -0.0004    0.0000   -0.0002    0.0001    0.0001    0.0001   -0.0000   -0.0000   -0.0024
   154 O8     4py        0.0000    0.0010    0.0000   -0.0001   -0.0000   -0.0000    0.0001    0.0000   -0.0000    0.0001
   155 O8     2pz        0.0000   -0.0000    0.0001    0.0003    0.0000   -0.0001   -0.0002    0.0000    0.0000   -0.0005
   156 O8     3pz        0.0000    0.0000    0.0002    0.0003   -0.0000   -0.0001    0.0001   -0.0000    0.0001    0.0002
   157 O8     4pz        0.0000   -0.0002    0.0000    0.0000   -0.0000   -0.0000    0.0000   -0.0000    0.0000   -0.0000
   158 O8     3d2-      -0.0000    0.0001    0.0000   -0.0000   -0.0000   -0.0001   -0.0002    0.0000   -0.0000   -0.0004
   159 O8     3d1-      -0.0000   -0.0000   -0.0000    0.0000    0.0000   -0.0000   -0.0000    0.0000   -0.0000   -0.0000
   160 O8     3d0        0.0000    0.0001   -0.0000   -0.0000   -0.0000   -0.0000   -0.0001    0.0000   -0.0000   -0.0003
   161 O8     3d1+       0.0000   -0.0001   -0.0000   -0.0001   -0.0000   -0.0000    0.0001   -0.0000   -0.0000    0.0001
   162 O8     3d2+      -0.0000    0.0000    0.0000    0.0000    0.0000    0.0000   -0.0000    0.0000    0.0000    0.0001
   163 H9     1s         0.0002    0.0002   -0.0001   -0.0001    0.0000   -0.0003   -0.0001    0.0000    0.0003    0.0148
   164 H9     2s         0.0001    0.0001   -0.0000   -0.0000    0.0000   -0.0002   -0.0001    0.0000   -0.0003    0.0040
   165 H9     2px       -0.0000    0.0000   -0.0000   -0.0000    0.0000   -0.0000   -0.0000   -0.0000   -0.0000    0.0009
   166 H9     2py       -0.0001    0.0000    0.0000    0.0000    0.0001   -0.0000   -0.0000    0.0000    0.0000    0.0012
   167 H9     2pz       -0.0000   -0.0000   -0.0000    0.0000   -0.0000    0.0000    0.0000    0.0000    0.0001   -0.0007
   168 H10    1s         0.0001   -0.0002   -0.0002   -0.0002    0.0000   -0.0001   -0.0001   -0.0001    0.0003    0.0153
   169 H10    2s         0.0000   -0.0001   -0.0001   -0.0001    0.0000   -0.0001   -0.0001   -0.0001   -0.0003    0.0040
   170 H10    2px       -0.0000   -0.0000   -0.0000   -0.0000    0.0000   -0.0000   -0.0000   -0.0000   -0.0000    0.0010
   171 H10    2py       -0.0001   -0.0000    0.0000   -0.0000    0.0001   -0.0000   -0.0000   -0.0000    0.0000    0.0012
   172 H10    2pz        0.0000   -0.0000    0.0000   -0.0000    0.0000   -0.0000   -0.0000   -0.0000   -0.0001    0.0007
   173 H11    1s        -0.0004   -0.0000   -0.0004   -0.0002    0.0003   -0.0001   -0.0001   -0.0001    0.0003    0.0216
   174 H11    2s        -0.0002   -0.0000   -0.0004   -0.0001    0.0001   -0.0001   -0.0001   -0.0001   -0.0002    0.0067
   175 H11    2px       -0.0000    0.0000    0.0001    0.0000   -0.0000    0.0000    0.0000    0.0000    0.0001   -0.0003
   176 H11    2py       -0.0000   -0.0000   -0.0000   -0.0000    0.0001    0.0000    0.0000   -0.0000   -0.0000    0.0020
   177 H11    2pz       -0.0000    0.0000   -0.0000    0.0000    0.0000   -0.0000    0.0000    0.0000   -0.0000    0.0000
   178 H12    1s        -0.0011    0.0000    0.0010    0.0002    0.0001   -0.0001    0.0000   -0.0001   -0.0005    0.0373
   179 H12    2s        -0.0006    0.0000    0.0007    0.0001   -0.0000   -0.0000    0.0001   -0.0001   -0.0002   -0.0019
   180 H12    2px        0.0001   -0.0000   -0.0002    0.0000   -0.0001    0.0000   -0.0001    0.0000    0.0000   -0.0044
   181 H12    2py       -0.0000   -0.0000    0.0004    0.0000    0.0000    0.0000   -0.0000   -0.0000   -0.0000    0.0043
   182 H12    2pz       -0.0000    0.0000   -0.0000   -0.0000    0.0000    0.0000    0.0000   -0.0000    0.0000   -0.0001
   183 H13    1s         0.0003   -0.0007    0.0004    0.0005   -0.0002    0.0007   -0.0003   -0.0001    0.0001    0.0139
   184 H13    2s         0.0003   -0.0004    0.0002    0.0003   -0.0001   -0.0000   -0.0002   -0.0001    0.0001   -0.0025
   185 H13    2px        0.0000   -0.0000   -0.0000    0.0000   -0.0000    0.0000    0.0000    0.0000   -0.0000   -0.0003
   186 H13    2py       -0.0000    0.0000    0.0000   -0.0000    0.0000   -0.0001   -0.0000   -0.0000   -0.0000   -0.0012
   187 H13    2pz        0.0000    0.0000   -0.0000    0.0000   -0.0000   -0.0000   -0.0000   -0.0000   -0.0000    0.0004
   188 H14    1s         0.0002    0.0004    0.0005   -0.0002   -0.0004    0.0010   -0.0001    0.0000   -0.0001    0.0092
   189 H14    2s         0.0001    0.0002    0.0002   -0.0001   -0.0003    0.0002    0.0000    0.0000   -0.0001    0.0011
   190 H14    2px       -0.0000   -0.0001   -0.0000   -0.0000    0.0000   -0.0000    0.0001   -0.0000   -0.0000   -0.0005
   191 H14    2py       -0.0000   -0.0000   -0.0000    0.0000    0.0000   -0.0001   -0.0000   -0.0000    0.0000   -0.0004
   192 H14    2pz       -0.0000    0.0000   -0.0000   -0.0000    0.0000   -0.0000   -0.0001    0.0000    0.0000   -0.0009
   193 H15    1s        -0.0002   -0.0012   -0.0004   -0.0009    0.0001    0.0001    0.0003   -0.0002   -0.0001    0.0016
   194 H15    2s        -0.0001   -0.0007   -0.0002   -0.0006    0.0000    0.0001    0.0001   -0.0000   -0.0001   -0.0002
   195 H15    2px       -0.0000   -0.0001   -0.0000   -0.0004   -0.0000    0.0000    0.0000    0.0000   -0.0000    0.0006
   196 H15    2py        0.0000    0.0001    0.0000    0.0003    0.0000   -0.0000   -0.0001    0.0000    0.0000   -0.0003
   197 H15    2pz        0.0000   -0.0000   -0.0000   -0.0000    0.0000    0.0000    0.0001   -0.0000    0.0000   -0.0003
   198 H16    1s         0.0000    0.0004    0.0001   -0.0005   -0.0001   -0.0002   -0.0003    0.0005    0.0000    0.0023
   199 H16    2s         0.0000    0.0003    0.0001   -0.0002   -0.0001   -0.0001   -0.0003   -0.0001   -0.0000    0.0020
   200 H16    2px       -0.0000   -0.0000    0.0000    0.0000   -0.0000   -0.0000   -0.0000   -0.0000    0.0000    0.0001
   201 H16    2py       -0.0000   -0.0000   -0.0000    0.0000    0.0000    0.0000   -0.0000   -0.0000    0.0000   -0.0000
   202 H16    2pz       -0.0000    0.0000    0.0000   -0.0000   -0.0000   -0.0000   -0.0001    0.0000    0.0000    0.0001
   203 H17    1s        -0.0001    0.0003   -0.0002   -0.0005   -0.0000    0.0001   -0.0003    0.0005   -0.0001    0.0028
   204 H17    2s        -0.0000    0.0002   -0.0001   -0.0002   -0.0001    0.0001   -0.0003   -0.0001   -0.0000    0.0020
   205 H17    2px        0.0000   -0.0000    0.0000    0.0000    0.0000    0.0000    0.0000   -0.0000   -0.0000   -0.0001
   206 H17    2py        0.0000   -0.0000    0.0000    0.0000    0.0000   -0.0000    0.0001    0.0000    0.0000   -0.0003
   207 H17    2pz        0.0000    0.0000    0.0000   -0.0000   -0.0000   -0.0000   -0.0000    0.0000   -0.0000    0.0000
   208 H18    1s        -0.0000    0.0000    0.0002   -0.0001   -0.0003    0.0001   -0.0000    0.0010   -0.0001    0.0055
   209 H18    2s        -0.0000    0.0001    0.0001   -0.0000   -0.0002    0.0001    0.0001    0.0001   -0.0000    0.0035
   210 H18    2px        0.0000   -0.0000   -0.0000   -0.0000    0.0000   -0.0000   -0.0000   -0.0001    0.0000   -0.0004
   211 H18    2py       -0.0000    0.0000    0.0000    0.0000   -0.0000    0.0000   -0.0000    0.0001   -0.0000    0.0005
   212 H18    2pz       -0.0000   -0.0000   -0.0000   -0.0000    0.0000    0.0000    0.0000   -0.0000    0.0000   -0.0002
 
 
      Orbital                11        12        13        14        15        16        17        18        19        20
      Energy            -1.3611   -1.2551   -1.2118   -1.0300   -0.9712   -0.9149   -0.8187   -0.7766   -0.7186   -0.6940
      Occ. No.           2.0000    2.0000    2.0000    2.0000    2.0000    2.0000    2.0000    2.0000    2.0000    2.0000
 
     1 C1     1s         0.0044   -0.0079    0.0034   -0.0163   -0.0016    0.0072   -0.0133    0.0013    0.0070    0.0031
     2 C1     2s         0.0162    0.1373    0.0031    0.2773   -0.0372   -0.0795    0.3843   -0.0658   -0.2555   -0.0651
     3 C1     3s         0.0206    0.0050    0.0160   -0.0161   -0.0071    0.0148   -0.0018   -0.0037    0.0079    0.0177
     4 C1     4s         0.0060    0.0020    0.0049   -0.0044   -0.0028    0.0054   -0.0022   -0.0004    0.0040    0.0031
     5 C1     2px        0.0330    0.1527    0.0095   -0.0043    0.1058   -0.0926    0.1319   -0.0092    0.1581    0.2616
     6 C1     3px        0.0212   -0.0390    0.0324   -0.0406   -0.0287    0.0339   -0.0290   -0.0105   -0.0709   -0.0567
     7 C1     4px        0.0085    0.0276    0.0039   -0.0075    0.0116   -0.0068    0.0081   -0.0025    0.0054    0.0174
     8 C1     2py        0.0102   -0.0326    0.0256   -0.1560    0.0576    0.0032    0.0564    0.0332    0.0576   -0.1495
     9 C1     3py        0.0268    0.0475    0.0257    0.0180   -0.0526    0.0389   -0.0101    0.0032   -0.0088    0.0635
    10 C1     4py        0.0011   -0.0056    0.0056   -0.0241    0.0061    0.0026    0.0067    0.0030   -0.0029   -0.0085
    11 C1     2pz        0.0034    0.0005   -0.0034    0.0121    0.0011   -0.0045    0.0023   -0.0023    0.0061    0.0058
    12 C1     3pz        0.0026   -0.0121   -0.0047    0.0031    0.0041   -0.0064    0.0052   -0.0042    0.0030   -0.0046
    13 C1     4pz        0.0001   -0.0012   -0.0019    0.0029    0.0008   -0.0018    0.0002   -0.0004    0.0019   -0.0005
    14 C1     3d2-       0.0027    0.0147   -0.0009    0.0082   -0.0092    0.0064    0.0134    0.0066    0.0177    0.0065
    15 C1     3d1-       0.0001    0.0009   -0.0000   -0.0008    0.0009   -0.0004   -0.0006    0.0003    0.0016    0.0013
    16 C1     3d0        0.0005   -0.0066    0.0005   -0.0116   -0.0005    0.0046   -0.0135    0.0020    0.0059    0.0023
    17 C1     3d1+       0.0001   -0.0003    0.0002    0.0001    0.0014   -0.0004   -0.0003    0.0003    0.0004   -0.0016
    18 C1     3d2+       0.0025    0.0273   -0.0023    0.0021    0.0154   -0.0125    0.0100   -0.0005    0.0150    0.0168
    19 C3     1s        -0.0166   -0.0288   -0.0045    0.0322    0.0268   -0.0191   -0.0082   -0.0053    0.0009   -0.0002
    20 C3     2s         0.0191    0.1786    0.0046   -0.2949   -0.2583    0.3225    0.1057    0.0615   -0.0356    0.0344
    21 C3     3s        -0.0448   -0.0467   -0.0152    0.0536    0.0438   -0.0086   -0.0160   -0.0101    0.0057   -0.0016
    22 C3     4s        -0.0065   -0.0103   -0.0016    0.0156    0.0107   -0.0040   -0.0047   -0.0037    0.0027   -0.0019
    23 C3     2px        0.0290   -0.0538    0.0245   -0.0176   -0.0545    0.0231   -0.0605   -0.1233   -0.2618    0.1055
    24 C3     3px        0.0096    0.0080    0.0223   -0.0199    0.0215    0.0359    0.0068    0.0207    0.0328   -0.0140
    25 C3     4px        0.0067   -0.0051    0.0072   -0.0039    0.0009    0.0032   -0.0030   -0.0079   -0.0042    0.0030
    26 C3     2py       -0.0263   -0.0921    0.0202    0.0067   -0.0334   -0.0259    0.1389   -0.0102   -0.0285    0.2102
    27 C3     3py        0.0002    0.0114    0.0021   -0.0339    0.0133   -0.0153   -0.0076    0.0033    0.0094   -0.0325
    28 C3     4py        0.0040   -0.0030    0.0023   -0.0114   -0.0071    0.0054    0.0083    0.0069   -0.0020    0.0086
    29 C3     2pz        0.0049    0.0095   -0.0211    0.0135    0.0347    0.0601   -0.0012    0.0875    0.0499   -0.0851
    30 C3     3pz        0.0212    0.0220    0.0035   -0.0161   -0.0248    0.0376    0.0073   -0.0179   -0.0102    0.0098
    31 C3     4pz       -0.0057    0.0105   -0.0004   -0.0093   -0.0067    0.0174    0.0018    0.0031   -0.0025   -0.0005
    32 C3     3d2-       0.0013    0.0184    0.0027   -0.0029    0.0064   -0.0016   -0.0049    0.0039    0.0154   -0.0213
    33 C3     3d1-       0.0055   -0.0014   -0.0021    0.0000   -0.0011    0.0013   -0.0013   -0.0031   -0.0070    0.0014
    34 C3     3d0       -0.0026   -0.0100    0.0044    0.0033   -0.0060   -0.0028    0.0017   -0.0081   -0.0145    0.0106
    35 C3     3d1+      -0.0025   -0.0034   -0.0023    0.0052    0.0091    0.0024    0.0043    0.0118    0.0113   -0.0041
    36 C3     3d2+       0.0020   -0.0090   -0.0000    0.0006   -0.0072   -0.0016    0.0174   -0.0062   -0.0070    0.0182
    37 C4     1s        -0.0404    0.0055   -0.0061    0.0093    0.0138    0.0080   -0.0017    0.0163    0.0025   -0.0023
    38 C4     2s         0.3581    0.0181    0.1198   -0.0922   -0.2278   -0.0657    0.0113   -0.4075   -0.0720    0.0681
    39 C4     3s        -0.0108    0.0155    0.0059    0.0235    0.0093    0.0158   -0.0061    0.0092    0.0033   -0.0006
    40 C4     4s         0.0009    0.0042    0.0017    0.0073    0.0035    0.0049   -0.0017    0.0053    0.0029   -0.0020
    41 C4     2px        0.0823   -0.0415   -0.0253    0.0546    0.1154    0.0083    0.0033    0.0041    0.1021   -0.0733
    42 C4     3px       -0.0326    0.0178    0.0572   -0.0436    0.0083    0.0614    0.0087   -0.0140   -0.0400    0.0283
    43 C4     4px        0.0228   -0.0075    0.0002    0.0036    0.0165    0.0083    0.0023   -0.0044    0.0014    0.0005
    44 C4     2py       -0.0574    0.0063    0.1292   -0.0196   -0.0638   -0.0569    0.0157   -0.0765    0.0343    0.0150
    45 C4     3py        0.0571   -0.0262   -0.0293    0.0147    0.0218    0.0265    0.0130    0.0107   -0.0186    0.0028
    46 C4     4py       -0.0154   -0.0008    0.0246   -0.0011   -0.0068   -0.0040    0.0079   -0.0041    0.0024    0.0011
    47 C4     2pz       -0.0212    0.0057   -0.1311   -0.0333   -0.0440    0.0487   -0.0063    0.0830   -0.1705    0.0799
    48 C4     3pz       -0.0229   -0.0145   -0.0271    0.0228   -0.0263   -0.1191   -0.0121   -0.0109    0.0673   -0.0413
    49 C4     4pz       -0.0044    0.0009   -0.0291   -0.0045   -0.0095   -0.0064   -0.0030    0.0073   -0.0066    0.0006
    50 C4     3d2-      -0.0366    0.0070    0.0133   -0.0004    0.0033    0.0029   -0.0052   -0.0028    0.0051   -0.0099
    51 C4     3d1-      -0.0141   -0.0007   -0.0188   -0.0001    0.0066    0.0160    0.0035    0.0122   -0.0088    0.0078
    52 C4     3d0       -0.0160    0.0050    0.0179   -0.0026   -0.0039   -0.0024   -0.0021   -0.0124    0.0041   -0.0054
    53 C4     3d1+       0.0023   -0.0043   -0.0027    0.0082    0.0079   -0.0110   -0.0010    0.0138    0.0039   -0.0003
    54 C4     3d2+      -0.0032    0.0031   -0.0077   -0.0046   -0.0007    0.0112    0.0026   -0.0004   -0.0029    0.0017
    55 C6     1s        -0.0089    0.0050   -0.0347   -0.0153   -0.0361   -0.0429   -0.0041    0.0082    0.0047   -0.0062
    56 C6     2s         0.0287    0.0291    0.1585    0.0646    0.2387    0.3848    0.0304   -0.1124   -0.0385    0.0403
    57 C6     3s        -0.0134    0.0259   -0.0607   -0.0315   -0.0688   -0.0685   -0.0112    0.0162    0.0120   -0.0182
    58 C6     4s        -0.0006    0.0072   -0.0102   -0.0059   -0.0148   -0.0141   -0.0032    0.0047    0.0030   -0.0047
    59 C6     2px       -0.0135   -0.0080   -0.0731   -0.0157   -0.0131    0.0197    0.0211   -0.1256   -0.0031    0.0584
    60 C6     3px        0.0020   -0.0082    0.0125    0.0033    0.0121   -0.0001   -0.0002    0.0066    0.0045   -0.0106
    61 C6     4px       -0.0027   -0.0005   -0.0020    0.0030    0.0082    0.0135    0.0025   -0.0099    0.0003    0.0024
    62 C6     2py       -0.0057    0.0072   -0.0004    0.0009    0.0037    0.0142   -0.0024    0.0929   -0.0796    0.0517
    63 C6     3py       -0.0014    0.0065    0.0016    0.0005    0.0046    0.0130    0.0019   -0.0013    0.0067   -0.0035
    64 C6     4py       -0.0006    0.0002    0.0019   -0.0002    0.0020    0.0012   -0.0009    0.0055   -0.0046    0.0026
    65 C6     2pz        0.0200    0.0095    0.0771    0.0117    0.0074   -0.0300   -0.0155    0.0229    0.0950   -0.1171
    66 C6     3pz       -0.0030    0.0120   -0.0168   -0.0075   -0.0200   -0.0064   -0.0012   -0.0011   -0.0130    0.0160
    67 C6     4pz        0.0024    0.0014   -0.0006   -0.0020   -0.0115   -0.0156   -0.0017    0.0046    0.0050   -0.0053
    68 C6     3d2-      -0.0001    0.0004   -0.0004   -0.0005   -0.0022   -0.0017    0.0004   -0.0026   -0.0013    0.0020
    69 C6     3d1-      -0.0006    0.0005    0.0012   -0.0002   -0.0003    0.0000   -0.0008    0.0106   -0.0066    0.0033
    70 C6     3d0        0.0017   -0.0001    0.0064    0.0012    0.0008   -0.0019   -0.0010   -0.0024    0.0054   -0.0059
    71 C6     3d1+      -0.0044   -0.0002   -0.0206   -0.0042   -0.0056    0.0022    0.0027   -0.0113   -0.0080    0.0133
    72 C6     3d2+       0.0018    0.0001    0.0102    0.0022    0.0028   -0.0009   -0.0016    0.0100    0.0013   -0.0050
    73 C19    1s         0.0010   -0.0100    0.0023   -0.0567    0.0429   -0.0201    0.0132   -0.0039   -0.0092    0.0021
    74 C19    2s         0.0070    0.0007    0.0082    0.3031   -0.2764    0.1506   -0.0712    0.0439    0.0971    0.0016
    75 C19    3s         0.0086   -0.0283    0.0138   -0.1111    0.0801   -0.0343    0.0357   -0.0069   -0.0172    0.0121
    76 C19    4s         0.0034   -0.0034    0.0046   -0.0234    0.0179   -0.0076    0.0096   -0.0023   -0.0053    0.0033
    77 C19    2px        0.0028    0.0236   -0.0017    0.0545    0.0025   -0.0264    0.0436   -0.0262   -0.0557    0.1350
    78 C19    3px       -0.0003   -0.0022   -0.0003    0.0045    0.0049   -0.0023   -0.0017    0.0055    0.0134   -0.0125
    79 C19    4px       -0.0011    0.0004   -0.0008   -0.0079    0.0122   -0.0081    0.0013   -0.0033   -0.0059    0.0029
    80 C19    2py        0.0063    0.0093    0.0072    0.0481   -0.0102   -0.0150    0.0633   -0.0429   -0.2128   -0.0540
    81 C19    3py        0.0076   -0.0022    0.0091   -0.0293    0.0176   -0.0015   -0.0116   -0.0004    0.0225    0.0125
    82 C19    4py        0.0003    0.0011    0.0002   -0.0126    0.0144   -0.0089    0.0128   -0.0030   -0.0087   -0.0016
    83 C19    2pz        0.0034   -0.0003    0.0010   -0.0039    0.0012    0.0027   -0.0035    0.0015    0.0133    0.0003
    84 C19    3pz        0.0030    0.0008    0.0014   -0.0010   -0.0010    0.0023   -0.0005   -0.0012   -0.0029   -0.0006
    85 C19    4pz       -0.0002    0.0005    0.0003    0.0003   -0.0010    0.0005   -0.0011    0.0006    0.0001    0.0001
    86 C19    3d2-       0.0005    0.0061   -0.0005    0.0107   -0.0019   -0.0025    0.0074   -0.0036   -0.0139   -0.0004
    87 C19    3d1-      -0.0001    0.0003   -0.0001   -0.0011    0.0006   -0.0000   -0.0005    0.0005    0.0017   -0.0002
    88 C19    3d0       -0.0002   -0.0008    0.0001   -0.0089    0.0036    0.0006   -0.0033    0.0027    0.0083   -0.0084
    89 C19    3d1+      -0.0004   -0.0001   -0.0000   -0.0006   -0.0000    0.0001   -0.0006    0.0003    0.0004   -0.0005
    90 C19    3d2+       0.0004    0.0022   -0.0002   -0.0075    0.0049   -0.0009   -0.0032    0.0025    0.0144    0.0048
    91 N2     1s        -0.0050   -0.0409    0.0030   -0.0047   -0.0047    0.0019    0.0042    0.0002    0.0026   -0.0011
    92 N2     2s         0.0580    0.5880   -0.0447   -0.0264    0.2071   -0.1058   -0.1522    0.0077    0.1232   -0.0577
    93 N2     3s        -0.0083   -0.0768    0.0065   -0.0142    0.0008   -0.0002    0.0082   -0.0004    0.0129   -0.0027
    94 N2     4s        -0.0023   -0.0248    0.0023   -0.0018   -0.0022    0.0013    0.0032   -0.0007    0.0005   -0.0000
    95 N2     2px        0.0225   -0.0347    0.0137   -0.1482   -0.0488    0.1151   -0.3632    0.0127   -0.0998   -0.2757
    96 N2     3px        0.0185   -0.0166    0.0151    0.0221    0.0430   -0.0589    0.1156   -0.0168    0.0025    0.0625
    97 N2     4px        0.0048    0.0008    0.0023   -0.0061    0.0073   -0.0048   -0.0013   -0.0015   -0.0019    0.0064
    98 N2     2py        0.0021   -0.0076    0.0055   -0.1169   -0.0508    0.1104    0.2211    0.1278    0.2500   -0.2081
    99 N2     3py       -0.0083   -0.0494   -0.0014    0.0462    0.0560   -0.0545   -0.0369   -0.0388   -0.0556    0.0272
   100 N2     4py       -0.0007   -0.0139   -0.0001    0.0002    0.0052   -0.0053    0.0091   -0.0028   -0.0012    0.0048
   101 N2     2pz       -0.0102    0.0079   -0.0027    0.0099    0.0134   -0.0077   -0.0249    0.0211    0.0125   -0.0240
   102 N2     3pz       -0.0123    0.0076   -0.0009    0.0006   -0.0010   -0.0082   -0.0067    0.0066   -0.0014    0.0048
   103 N2     4pz       -0.0021    0.0016    0.0002    0.0004    0.0009   -0.0005   -0.0022    0.0020   -0.0011    0.0012
   104 N2     3d2-       0.0014    0.0071    0.0000   -0.0021   -0.0085    0.0088    0.0071    0.0039    0.0065   -0.0030
   105 N2     3d1-      -0.0007   -0.0009   -0.0003    0.0006    0.0004    0.0005    0.0011    0.0018    0.0009   -0.0011
   106 N2     3d0       -0.0019   -0.0167    0.0014    0.0016   -0.0040    0.0015    0.0004   -0.0005   -0.0018   -0.0003
   107 N2     3d1+      -0.0006    0.0003   -0.0001   -0.0000    0.0004   -0.0003   -0.0003    0.0007    0.0003   -0.0006
   108 N2     3d2+       0.0010    0.0056   -0.0000    0.0100    0.0062   -0.0104    0.0191   -0.0051   -0.0025    0.0143
   109 N5     1s        -0.0201   -0.0018   -0.0429   -0.0019    0.0019    0.0025    0.0010   -0.0036    0.0030   -0.0025
   110 N5     2s         0.1303   -0.0082    0.5739    0.0409   -0.0098   -0.2221   -0.0482    0.1711    0.0751   -0.1048
   111 N5     3s        -0.0504   -0.0047   -0.0812   -0.0064   -0.0001   -0.0157   -0.0012   -0.0001    0.0136   -0.0131
   112 N5     4s        -0.0119   -0.0003   -0.0267   -0.0030   -0.0013   -0.0019   -0.0002   -0.0019    0.0016   -0.0014
   113 N5     2px        0.0227   -0.0276   -0.0054    0.0462    0.0875    0.0874    0.0069   -0.1568    0.1462   -0.1361
   114 N5     3px        0.0025   -0.0320   -0.0337    0.0089   -0.0327   -0.0774   -0.0041    0.0392   -0.0248    0.0287
   115 N5     4px       -0.0055   -0.0048   -0.0092    0.0024    0.0010   -0.0048   -0.0006   -0.0071    0.0017   -0.0001
   116 N5     2py       -0.0327    0.0042   -0.0072    0.0094    0.0423    0.0341   -0.0289    0.3062   -0.1744    0.0827
   117 N5     3py        0.0079   -0.0025    0.0229   -0.0001    0.0051    0.0005   -0.0009   -0.0773    0.0287   -0.0155
   118 N5     4py       -0.0013   -0.0018    0.0079    0.0026    0.0035   -0.0010   -0.0003    0.0054   -0.0014    0.0016
   119 N5     2pz        0.0086    0.0250    0.0148   -0.0525   -0.1454   -0.1357    0.0065   -0.2001    0.0583    0.0263
   120 N5     3pz       -0.0193    0.0371    0.0055    0.0088    0.0298    0.0716   -0.0064    0.0534   -0.0071   -0.0126
   121 N5     4pz        0.0066    0.0066   -0.0008   -0.0014   -0.0049    0.0034   -0.0019    0.0002   -0.0005   -0.0011
   122 N5     3d2-      -0.0018    0.0006   -0.0043   -0.0016   -0.0012    0.0044    0.0011   -0.0106    0.0019   -0.0008
   123 N5     3d1-      -0.0055    0.0004   -0.0131    0.0010    0.0057    0.0085   -0.0007    0.0116   -0.0049    0.0008
   124 N5     3d0        0.0006    0.0006    0.0076   -0.0009   -0.0018    0.0013    0.0012   -0.0107    0.0030   -0.0012
   125 N5     3d1+       0.0015   -0.0012   -0.0111   -0.0014   -0.0051   -0.0080    0.0000   -0.0028    0.0007    0.0019
   126 N5     3d2+      -0.0027    0.0007    0.0006    0.0013    0.0049    0.0067   -0.0003    0.0075   -0.0027   -0.0002
   127 O7     1s         0.0008    0.0024   -0.0007   -0.0044    0.0023    0.0003   -0.0135    0.0007    0.0144    0.0215
   128 O7     2s        -0.0609   -0.3052    0.0156   -0.2079    0.0560    0.0268   -0.3494    0.0081    0.2403    0.3491
   129 O7     3s        -0.0011   -0.0100   -0.0021   -0.0204    0.0104   -0.0000   -0.0426    0.0010    0.0406    0.0612
   130 O7     4s         0.0003   -0.0003   -0.0008   -0.0036    0.0026   -0.0005   -0.0082   -0.0003    0.0081    0.0130
   131 O7     2px       -0.0069   -0.0028   -0.0033   -0.0034    0.0277   -0.0294    0.1748    0.0006   -0.1030   -0.2286
   132 O7     3px       -0.0017   -0.0001   -0.0035   -0.0094    0.0031    0.0032   -0.0208    0.0006    0.0095    0.0204
   133 O7     4px       -0.0002    0.0003   -0.0005   -0.0013   -0.0003    0.0013   -0.0015    0.0004    0.0007    0.0014
   134 O7     2py        0.0089    0.0400   -0.0030   -0.0335    0.0242    0.0042   -0.1543    0.0163    0.2725    0.4053
   135 O7     3py       -0.0036    0.0000   -0.0018    0.0121    0.0003   -0.0006    0.0246   -0.0057   -0.0315   -0.0426
   136 O7     4py       -0.0009   -0.0015   -0.0002   -0.0009    0.0006    0.0011    0.0030   -0.0006   -0.0038   -0.0065
   137 O7     2pz       -0.0016    0.0006    0.0002    0.0029    0.0014   -0.0014    0.0102   -0.0006   -0.0165   -0.0269
   138 O7     3pz       -0.0013    0.0007    0.0010    0.0002    0.0010   -0.0001   -0.0032    0.0001    0.0010    0.0029
   139 O7     4pz       -0.0004    0.0002    0.0004    0.0005    0.0004   -0.0001   -0.0007   -0.0002    0.0001    0.0005
   140 O7     3d2-       0.0012    0.0036   -0.0002    0.0008   -0.0021    0.0024   -0.0119    0.0006    0.0102    0.0182
   141 O7     3d1-       0.0002    0.0006    0.0000    0.0000    0.0001   -0.0001   -0.0005   -0.0000    0.0012    0.0021
   142 O7     3d0        0.0008    0.0043   -0.0004    0.0014    0.0001   -0.0002   -0.0050   -0.0000    0.0064    0.0118
   143 O7     3d1+      -0.0001   -0.0002    0.0000    0.0000    0.0003   -0.0002    0.0007   -0.0000   -0.0005   -0.0013
   144 O7     3d2+       0.0006    0.0049   -0.0004   -0.0025    0.0046   -0.0027    0.0014    0.0010    0.0113    0.0117
   145 O8     1s        -0.0233    0.0023    0.0041    0.0007    0.0026    0.0005   -0.0002    0.0123    0.0022   -0.0001
   146 O8     2s         0.6695   -0.1455   -0.3209    0.1058    0.1562    0.0101    0.0165    0.3511    0.0455    0.0122
   147 O8     3s        -0.0277   -0.0032   -0.0088    0.0057    0.0127    0.0013    0.0019    0.0454    0.0078   -0.0001
   148 O8     4s        -0.0122   -0.0002    0.0000    0.0002    0.0013    0.0000    0.0012    0.0094    0.0019   -0.0000
   149 O8     2px       -0.0946    0.0088    0.0364    0.0158    0.0177   -0.0136    0.0076    0.1123    0.0679   -0.0164
   150 O8     3px        0.0290   -0.0039   -0.0037    0.0024   -0.0111   -0.0084   -0.0004   -0.0193   -0.0062   -0.0001
   151 O8     4px        0.0008   -0.0005   -0.0020    0.0016   -0.0002   -0.0009   -0.0004   -0.0021   -0.0015    0.0003
   152 O8     2py        0.1034   -0.0220   -0.0243    0.0034   -0.0111   -0.0168    0.0047   -0.1473    0.0162   -0.0234
   153 O8     3py       -0.0325    0.0019    0.0008    0.0040    0.0067    0.0001    0.0013    0.0223    0.0032    0.0005
   154 O8     4py       -0.0010   -0.0002    0.0005    0.0005   -0.0004    0.0004    0.0016    0.0028    0.0006    0.0005
   155 O8     2pz       -0.0223    0.0120   -0.0117   -0.0181   -0.0105    0.0411   -0.0088    0.0573   -0.0913    0.0434
   156 O8     3pz        0.0080    0.0062    0.0051   -0.0042    0.0010    0.0118    0.0016   -0.0034    0.0056   -0.0019
   157 O8     4pz        0.0015    0.0020    0.0019   -0.0012   -0.0003    0.0012    0.0000    0.0000    0.0021   -0.0008
[...]
AIVX     1  Mu1.0001  In1.021 Se1.047               0.22835228     -0.00059162      0.00080417     -0.00000048
AIVX     1  Mu1.0001  In1.022 Se1.047               0.12788378      0.00012109     -0.00026786     -0.00000003
AIVX     1  Mu1.0001  In1.024 Se1.047               0.14269462     -0.00018595      0.00050887     -0.00000009
AIVX     1  Mu1.0001  In1.025 Se1.047               0.26008234      0.00051415     -0.00088671     -0.00000046
AIVX     1  Mu1.0001  In1.026 Se1.047               0.24223197      0.00086745     -0.00192655     -0.00000167
AIVX     1  Mu1.0001  In1.027 Se1.047               0.21297192      0.00065264     -0.00115459     -0.00000075
AIVX     1  Mu1.0001  In1.028 Se1.047               0.09212653     -0.00040892      0.00087464     -0.00000036
AIVX     1  Mu1.0001  In1.029 Se1.047               0.05710219     -0.00045436      0.00070500     -0.00000032
AIVX     1  Mu1.0001  In1.021 Se1.048               0.25808208     -0.00084539      0.00166194     -0.00000140
AIVX     1  Mu1.0001  In1.022 Se1.048               0.15761358     -0.00016139     -0.00018423      0.00000003
AIVX     1  Mu1.0001  In1.024 Se1.048               0.17242443      0.00004679     -0.00021957     -0.00000001
AIVX     1  Mu1.0001  In1.025 Se1.048               0.28981215     -0.00091505      0.00149198     -0.00000137
AIVX     1  Mu1.0001  In1.026 Se1.048               0.27196178     -0.00056671      0.00078835     -0.00000045
AIVX     1  Mu1.0001  In1.027 Se1.048               0.24270173     -0.00004779     -0.00000277      0.00000000
AIVX     1  Mu1.0001  In1.028 Se1.048               0.12185633     -0.00020217      0.00061389     -0.00000012
AIVX     1  Mu1.0001  In1.029 Se1.048               0.08683200     -0.00040392      0.00100085     -0.00000040
AIVX     1  Mu1.0001  In1.021 Se1.049               0.25207186      0.00109483     -0.00143560     -0.00000157
AIVX     1  Mu1.0001  In1.022 Se1.049               0.15160336     -0.00066462      0.00092687     -0.00000062
AIVX     1  Mu1.0001  In1.024 Se1.049               0.16641421      0.00007498     -0.00006464     -0.00000000
AIVX     1  Mu1.0001  In1.025 Se1.049               0.28380193      0.00093596     -0.00161700     -0.00000151
AIVX     1  Mu1.0001  In1.026 Se1.049               0.26595156      0.00007922     -0.00009063     -0.00000001
AIVX     1  Mu1.0001  In1.027 Se1.049               0.23669151     -0.00051861      0.00101766     -0.00000053
AIVX     1  Mu1.0001  In1.028 Se1.049               0.11584611      0.00056616     -0.00071536     -0.00000041
AIVX     1  Mu1.0001  In1.029 Se1.049               0.08082177      0.00031684     -0.00029662     -0.00000009
AIVX     1  Mu1.0001  In1.021 Se1.050               0.27687162     -0.00002338      0.00007239     -0.00000000
AIVX     1  Mu1.0001  In1.022 Se1.050               0.17640312     -0.00016418      0.00046466     -0.00000008
AIVX     1  Mu1.0001  In1.024 Se1.050               0.19121397     -0.00008739      0.00023608     -0.00000002
AIVX     1  Mu1.0001  In1.026 Se1.050               0.29075132     -0.00275492      0.00459267     -0.00001265
AIVX     1  Mu1.0001  In1.027 Se1.050               0.26149127     -0.00070166      0.00099951     -0.00000070
AIVX     1  Mu1.0001  In1.028 Se1.050               0.14064587     -0.00007524      0.00025191     -0.00000002
AIVX     1  Mu1.0001  In1.029 Se1.050               0.10562153     -0.00008659      0.00049060     -0.00000004
AIVX     1  Mu1.0001  In1.021 Se1.051               0.28919839      0.00080622     -0.00215648     -0.00000174
AIVX     1  Mu1.0001  In1.022 Se1.051               0.18872989      0.00017171      0.00013965      0.00000002
AIVX     1  Mu1.0001  In1.024 Se1.051               0.20354073      0.00000445     -0.00005132     -0.00000000
AIVX     1  Mu1.0001  In1.027 Se1.051               0.27381803     -0.00244175      0.00385975     -0.00000942
AIVX     1  Mu1.0001  In1.028 Se1.051               0.15297264     -0.00053821      0.00024065     -0.00000013
AIVX     1  Mu1.0001  In1.029 Se1.051               0.11794830     -0.00063266      0.00134481     -0.00000085
AIVX     1  Mu1.0001  In1.022 Se1.052               0.23781256      0.00025612     -0.00026970     -0.00000007
AIVX     1  Mu1.0001  In1.024 Se1.052               0.25262341     -0.00002254      0.00017394     -0.00000000
AIVX     1  Mu1.0001  In1.028 Se1.052               0.20205531     -0.00002319      0.00038883     -0.00000001
AIVX     1  Mu1.0001  In1.029 Se1.052               0.16703097      0.00043002     -0.00099479     -0.00000043
AIVX     1  Mu1.0001  In1.022 Se1.053               0.20655886      0.00009730      0.00017663      0.00000002
AIVX     1  Mu1.0001  In1.024 Se1.053               0.22136971      0.00007986     -0.00023495     -0.00000002
AIVX     1  Mu1.0001  In1.027 Se1.053               0.29164701      0.00173873     -0.00276757     -0.00000481
AIVX     1  Mu1.0001  In1.028 Se1.053               0.17080162      0.00063656     -0.00132030     -0.00000084
AIVX     1  Mu1.0001  In1.029 Se1.053               0.13577728      0.00089721     -0.00186984     -0.00000168
AIVX     1  Mu1.0001  In1.022 Se1.054               0.25133734      0.00042433     -0.00062690     -0.00000027
AIVX     1  Mu1.0001  In1.024 Se1.054               0.26614819      0.00001614     -0.00006885     -0.00000000
AIVX     1  Mu1.0001  In1.028 Se1.054               0.21558009     -0.00048756      0.00078133     -0.00000038
AIVX     1  Mu1.0001  In1.029 Se1.054               0.18055575      0.00031050     -0.00095270     -0.00000030
AIVX     1  Mu1.0001  In1.022 Se1.055               0.29604721      0.00003023      0.00009828      0.00000000
AIVX     1  Mu1.0001  In1.028 Se1.055               0.26028996     -0.00110491      0.00186434     -0.00000206
AIVX     1  Mu1.0001  In1.029 Se1.055               0.22526562     -0.00008064     -0.00021337      0.00000002
AIVX     1  Mu1.0001  In1.022 Se1.056               0.28264238      0.00001340      0.00055546      0.00000001
AIVX     1  Mu1.0001  In1.024 Se1.056               0.29745323      0.00023492     -0.00062250     -0.00000015
AIVX     1  Mu1.0001  In1.028 Se1.056               0.24688513     -0.00021955      0.00017979     -0.00000004
AIVX     1  Mu1.0001  In1.029 Se1.056               0.21186079     -0.00005015      0.00000472     -0.00000000
AIVX     1  Mu1.0001  In1.022 Se1.057               0.27256653      0.00049935     -0.00056533     -0.00000028
AIVX     1  Mu1.0001  In1.024 Se1.057               0.28737738     -0.00004762      0.00010221     -0.00000000
AIVX     1  Mu1.0001  In1.028 Se1.057               0.23680928     -0.00012281      0.00012932     -0.00000002
AIVX     1  Mu1.0001  In1.029 Se1.057               0.20178494     -0.00043526      0.00102452     -0.00000045
AIVX     1  Mu1.0001  In1.022 Se1.058               0.25505730     -0.00003886      0.00012645     -0.00000000
AIVX     1  Mu1.0001  In1.024 Se1.058               0.26986815      0.00003268     -0.00006029     -0.00000000
AIVX     1  Mu1.0001  In1.028 Se1.058               0.21930005      0.00016443     -0.00022852     -0.00000004
AIVX     1  Mu1.0001  In1.029 Se1.058               0.18427571      0.00013340      0.00005429      0.00000001
AIVX     1  Mu1.0001  In1.028 Se1.059               0.28597560     -0.00043032      0.00057329     -0.00000025
AIVX     1  Mu1.0001  In1.029 Se1.059               0.25095126      0.00013410     -0.00032332     -0.00000004
AIVX     1  Mu1.0001  In1.029 Se1.060               0.28554610      0.00004517     -0.00038128     -0.00000002
AIVX     1  Mu1.0001  In1.028 Se1.061               0.29317351     -0.00154820      0.00224235     -0.00000347
AIVX     1  Mu1.0001  In1.029 Se1.061               0.25814917     -0.00114203      0.00198265     -0.00000226
AIVX     1  Mu1.0001  In1.029 Se1.064               0.27116184     -0.00004219     -0.00013298      0.00000001
--
 
   (Skipping property calculation,
    use PROP keyword to activate)
--
 
  Total CASPT2 energies:
::    CASPT2 Root  1     Total energy:   -455.21007347
::    CASPT2 Root  2     Total energy:   -455.01497047
::    CASPT2 Root  3     Total energy:   -455.00393335
::    CASPT2 Root  4     Total energy:   -454.94664341
::    CASPT2 Root  5     Total energy:   -454.93066882
::    CASPT2 Root  6     Total energy:   -454.93619718
::    CASPT2 Root  7     Total energy:   -454.91002590
 
++ Multi-State CASPT2 section:
********************************************************************************
  MULTI-STATE CASPT2 SECTION
--------------------------------------------------------------------------------
 
  Output diagonal energies have been shifted. Add   -455.000000000000     
 
  Effective Hamiltonian matrix (Symmetric):
 
                1               2               3               4               5
   1        -0.21007347
   2        -0.00022083     -0.01497047
   3        -0.00048771      0.00018461     -0.00393335
   4         0.00905035     -0.00012528      0.00005102      0.05335659
   5        -0.00522527     -0.00051348     -0.00079917     -0.00410507      0.06933118
   6        -0.01379093     -0.00182647      0.00090137      0.00451607     -0.00922427
   7        -0.00976287      0.00042061      0.00121565      0.00389600     -0.00550790
 
                6               7
   6         0.06380282
   7        -0.00744628      0.08997410
 
       Total MS-CASPT2 energies:
::    MS-CASPT2 Root  1     Total energy:   -455.21155857
::    MS-CASPT2 Root  2     Total energy:   -455.01502147
::    MS-CASPT2 Root  3     Total energy:   -455.00396504
::    MS-CASPT2 Root  4     Total energy:   -454.94850074
::    MS-CASPT2 Root  5     Total energy:   -454.94396969
::    MS-CASPT2 Root  6     Total energy:   -454.92232660
::    MS-CASPT2 Root  7     Total energy:   -454.90717049
 
       Eigenvectors:
            0.99721595     -0.00281575     -0.00095604      0.05700752     -0.04406487
            0.00156010      0.99952145      0.01809217      0.00734641     -0.02116692
            0.00200064     -0.01787332      0.99961316     -0.00880373      0.00638661
           -0.03514574      0.00126953      0.00189788      0.91489813      0.31677562
            0.02043225      0.00824986      0.00832851     -0.01073862      0.63227989
            0.05213826      0.02357576     -0.01350926     -0.36965631      0.67579741
            0.03439196     -0.00200125     -0.01377739     -0.15105948      0.20184814
 
           -0.00673737     -0.01773518
           -0.00835590      0.00743555
            0.01360723      0.01210843
            0.23099513      0.08952891
           -0.75506854     -0.17153260
            0.61152101     -0.17098951
           -0.04748098      0.96581949
 
--
 
  THE ORIGINAL CI ARRAYS ARE NOW MIXED AS LINEAR
  COMBINATIONS, GIVEN BY THE EIGENVECTORS.
  A NEW JOBIPH FILE NAMED 'JOBMIX' IS PREPARED.
********************************************************************************
 
++ Mixed CI coefficients:
  The CI coefficients for the MIXED state nr.   1
--------------------------------------------------------------------------------
 CI COEFFICIENTS LARGER THAN  0.50D-01
  Occupation of active orbitals, and spin coupling
  of open shells. (u,d: Spin up or down).
  SGUGA info is (Midvert:IsyUp:UpperWalk/LowerWalk)
        Conf  SGUGA info        Occupation    Coefficient         Weight
           1  ( 1:1:   1/   1)   22222200       -0.969872       0.940651
           6  ( 1:1:   6/   1)   22220220        0.087360       0.007632
           7  ( 1:1:   7/   1)   22222u0d       -0.074863       0.005604
          15  ( 1:1:  15/   1)   22222002        0.090776       0.008240
          64  ( 2:1:   4/   3)   2u22220d        0.077242       0.005966
          81  ( 2:1:   1/   4)   u22222d0        0.103886       0.010792
         175  ( 3:1:   5/   8)   20222202        0.090027       0.008105
         191  ( 3:1:   1/  10)   02222220        0.076223       0.005810
 
  The CI coefficients for the MIXED state nr.   2
--------------------------------------------------------------------------------
 CI COEFFICIENTS LARGER THAN  0.50D-01
  Occupation of active orbitals, and spin coupling
  of open shells. (u,d: Spin up or down).
  SGUGA info is (Midvert:IsyUp:UpperWalk/LowerWalk)
        Conf  SGUGA info        Occupation    Coefficient         Weight
          21  ( 2:1:   1/   1)   222u22d0       -0.117241       0.013746
          24  ( 2:1:   4/   1)   222u220d       -0.954863       0.911764
          32  ( 2:1:  12/   1)   222u022d        0.081616       0.006661
          33  ( 2:1:  13/   1)   222u2d02        0.090556       0.008200
         115  ( 3:1:   5/   2)   22ud2202       -0.052681       0.002775
         125  ( 3:1:   5/   3)   2u2d2202       -0.182004       0.033125
         213  ( 4:1:   1/   3)   u22u22dd       -0.080390       0.006462
         269  ( 5:1:   1/   9)   022u222d       -0.076546       0.005859
 
  The CI coefficients for the MIXED state nr.   3
--------------------------------------------------------------------------------
 CI COEFFICIENTS LARGER THAN  0.50D-01
  Occupation of active orbitals, and spin coupling
  of open shells. (u,d: Spin up or down).
  SGUGA info is (Midvert:IsyUp:UpperWalk/LowerWalk)
        Conf  SGUGA info        Occupation    Coefficient         Weight
           2  ( 1:1:   2/   1)   22222ud0        0.264543       0.069983
           3  ( 1:1:   3/   1)   2222u2d0        0.054981       0.003023
          21  ( 2:1:   1/   1)   222u22d0        0.066005       0.004357
          24  ( 2:1:   4/   1)   222u220d       -0.057494       0.003306
          41  ( 2:1:   1/   2)   22u222d0        0.909730       0.827608
          43  ( 2:1:   3/   2)   22u2d220        0.163072       0.026592
          45  ( 2:1:   5/   2)   22u22dud        0.064761       0.004194
          47  ( 2:1:   7/   2)   22u22udd       -0.113301       0.012837
          55  ( 2:1:  15/   2)   22u220d2        0.078637       0.006184
         161  ( 3:1:   1/   7)   u2d22220        0.117506       0.013808
         219  ( 4:1:   1/   4)   2uu222dd       -0.063524       0.004035
         222  ( 4:1:   4/   4)   2uu22dd2        0.050457       0.002546
         294  ( 5:1:   2/  15)   20u222d2       -0.091700       0.008409
 
  The CI coefficients for the MIXED state nr.   4
--------------------------------------------------------------------------------
 CI COEFFICIENTS LARGER THAN  0.50D-01
  Occupation of active orbitals, and spin coupling
  of open shells. (u,d: Spin up or down).
  SGUGA info is (Midvert:IsyUp:UpperWalk/LowerWalk)
        Conf  SGUGA info        Occupation    Coefficient         Weight
           1  ( 1:1:   1/   1)   22222200        0.053913       0.002907
           2  ( 1:1:   2/   1)   22222ud0       -0.160374       0.025720
           3  ( 1:1:   3/   1)   2222u2d0        0.659226       0.434579
           6  ( 1:1:   6/   1)   22220220       -0.051304       0.002632
           7  ( 1:1:   7/   1)   22222u0d       -0.635532       0.403901
          12  ( 1:1:  12/   1)   2222uudd       -0.072025       0.005188
          14  ( 1:1:  14/   1)   22220u2d       -0.055466       0.003076
          15  ( 1:1:  15/   1)   22222002       -0.124384       0.015471
          18  ( 1:1:  18/   1)   2222u0d2        0.053880       0.002903
          68  ( 2:1:   8/   3)   2u22u2dd       -0.050718       0.002572
          73  ( 2:1:  13/   3)   2u222d02       -0.168070       0.028247
          81  ( 2:1:   1/   4)   u22222d0       -0.094272       0.008887
          83  ( 2:1:   3/   4)   u222d220        0.158388       0.025087
          87  ( 2:1:   7/   4)   u2222udd       -0.064987       0.004223
         175  ( 3:1:   5/   8)   20222202        0.072175       0.005209
         177  ( 3:1:   7/   8)   2022u2d2       -0.067043       0.004495
         193  ( 3:1:   3/  10)   02222u2d       -0.054660       0.002988
 
  The CI coefficients for the MIXED state nr.   5
--------------------------------------------------------------------------------
 CI COEFFICIENTS LARGER THAN  0.50D-01
  Occupation of active orbitals, and spin coupling
  of open shells. (u,d: Spin up or down).
  SGUGA info is (Midvert:IsyUp:UpperWalk/LowerWalk)
        Conf  SGUGA info        Occupation    Coefficient         Weight
           2  ( 1:1:   2/   1)   22222ud0        0.098106       0.009625
           3  ( 1:1:   3/   1)   2222u2d0        0.672562       0.452340
           7  ( 1:1:   7/   1)   22222u0d        0.638972       0.408285
          12  ( 1:1:  12/   1)   2222uudd       -0.064418       0.004150
          14  ( 1:1:  14/   1)   22220u2d        0.060357       0.003643
          15  ( 1:1:  15/   1)   22222002        0.122903       0.015105
          18  ( 1:1:  18/   1)   2222u0d2        0.061888       0.003830
          41  ( 2:1:   1/   2)   22u222d0       -0.073276       0.005369
          73  ( 2:1:  13/   3)   2u222d02        0.170433       0.029047
          83  ( 2:1:   3/   4)   u222d220        0.178342       0.031806
          87  ( 2:1:   7/   4)   u2222udd        0.060621       0.003675
         175  ( 3:1:   5/   8)   20222202       -0.073801       0.005447
         177  ( 3:1:   7/   8)   2022u2d2       -0.063743       0.004063
 
  The CI coefficients for the MIXED state nr.   6
--------------------------------------------------------------------------------
 CI COEFFICIENTS LARGER THAN  0.50D-01
  Occupation of active orbitals, and spin coupling
  of open shells. (u,d: Spin up or down).
  SGUGA info is (Midvert:IsyUp:UpperWalk/LowerWalk)
        Conf  SGUGA info        Occupation    Coefficient         Weight
           2  ( 1:1:   2/   1)   22222ud0       -0.857622       0.735516
           7  ( 1:1:   7/   1)   22222u0d        0.165604       0.027425
          21  ( 2:1:   1/   1)   222u22d0        0.286406       0.082028
          25  ( 2:1:   5/   1)   222u2dud       -0.062884       0.003954
          27  ( 2:1:   7/   1)   222u2udd        0.090981       0.008278
          41  ( 2:1:   1/   2)   22u222d0        0.221612       0.049112
          65  ( 2:1:   5/   3)   2u222dud       -0.139476       0.019453
          67  ( 2:1:   7/   3)   2u222udd        0.196217       0.038501
         176  ( 3:1:   6/   8)   20222ud2        0.123508       0.015254
 
  The CI coefficients for the MIXED state nr.   7
--------------------------------------------------------------------------------
 CI COEFFICIENTS LARGER THAN  0.50D-01
  Occupation of active orbitals, and spin coupling
  of open shells. (u,d: Spin up or down).
  SGUGA info is (Midvert:IsyUp:UpperWalk/LowerWalk)
        Conf  SGUGA info        Occupation    Coefficient         Weight
           2  ( 1:1:   2/   1)   22222ud0       -0.257584       0.066350
           7  ( 1:1:   7/   1)   22222u0d        0.099048       0.009810
          21  ( 2:1:   1/   1)   222u22d0       -0.842614       0.709998
          24  ( 2:1:   4/   1)   222u220d        0.103157       0.010641
          25  ( 2:1:   5/   1)   222u2dud        0.216907       0.047049
          27  ( 2:1:   7/   1)   222u2udd       -0.303983       0.092406
          41  ( 2:1:   1/   2)   22u222d0        0.140062       0.019617
          67  ( 2:1:   7/   3)   2u222udd        0.058327       0.003402
         112  ( 3:1:   2/   2)   22ud22ud        0.063259       0.004002
         201  ( 4:1:   1/   1)   22uu22dd        0.065619       0.004306
         210  ( 4:1:   4/   2)   2u2u2dd2        0.076423       0.005840
         262  ( 5:1:   2/   7)   202u22d2        0.078715       0.006196
 
--
 
--- Stop Module: caspt2 at Wed Nov 13 20:26:48 2024 /rc=_RC_ALL_IS_WELL_ ---
*** files: xmldump
    saved to directory /home/pcaah4
--- Module caspt2 spent 6 minutes 52 seconds ---

.##################.
.# Happy landing! #.
.##################.

    Timing: Wall=667.58 User=576.92 System=75.92
******************************************************
*** WorkDir at /srv/COMMUNAL_SCRATCH/10392 cleaned ***
******************************************************
