   This run of MOLCAS is using the pymolcas driver

                             OPE
                             OPE          NMOL  CASOP  ENMOLC A   SO
                 OPE        NMOLC        AS  OP EN  MO LC     AS  OP
                OPENM       OL CA        SO  PE NM  OL CA     SOP EN
                OP EN      MO   LC       AS  OP ENMOL  CASO   PENMOL
                OP  EN     MO   LC       AS  OP EN     MO     LC ASO
               OP   E  NMOL  C  AS       OP  EN MO     LC     AS  OP
               OP  E   NMO   LC AS        OPEN  MO     LCASOP EN   M
               O  PEN   MO  LCA  SO
            OPE   NMO   L   CAS    OP
        OPENMOL  CASOP     ENMOL   CASOPE
     OPENMOLCA   SOPENMOLCASOPEN   MOLCASOPE
    OPENMOLCAS   OP           EN   MOL    CAS
    OPENMOLCAS       OP  ENM        O     LCA
    OPENMOLCAS    OPEN  MOLCASO     P  E  NMO
    OPENMOLCAS     OP               E  N  MOL
    OPENMOLCA   SO           PENM   O  L  CAS    OPEN    MO    LCAS
    OPENMOLCA   SOP           ENM   O  L  CAS   OP  EN  MOLC  AS   O
    OPENMOLCA   SOPE           NM      O  LCA   S      OP  EN MO
    OPENMOLC                AS         O  PEN   M      OL  CA  SOPE
    OPENMO        LCASOPE  NMOL        C  ASO   P      ENMOLC     AS
    OPE     NMO      LCA  SO     P     E   NM   OL  CA SO  PE N   MO
          OPENMOLCA            SOPE   NMO        LCAS  O    P  ENMO
     OPENMOLCASOPENMOLCASOPENMOLCASOPENMOLCA
        OPENMOLCASOPENMOLCASOPENMOLCASOPE
            OPENMOLCASOPENMOLCASOPENM
               OPENMOLCASOPENMOLCA        version: v23.06
                   OPENMOLCASO
                       OPE                tag:

 OpenMolcas is free software; you can redistribute it and/or modify it
 under the terms of the GNU Lesser General Public License version 2.1.
 OpenMolcas is distributed in the hope that it will be useful, but it
 is provided "as is" and without any express or implied warranties.
 For more details see the full text of the license in the file
 LICENSE or in <http://www.gnu.org/licenses/>.

                 Copyright (C) The OpenMolcas Authors
           For the author list and the recommended citation,
                   consult the file CONTRIBUTORS.md

           *************************************************
           * pymolcas version py2.24                       *
           *   build 4567b286dd94b1984b333a4ddf893180      *
           *   (after the EMIL interpreter by V. Veryazov) *
           *************************************************

configuration info
------------------
Host name: loginchem01.nottingham.ac.uk (Linux)
C Compiler ID: Intel
C flags: -std=gnu99 -gcc-sys -qopenmp
Fortran Compiler ID: Intel
Fortran flags: -fpp -i8 -heap-arrays -qopenmp
Definitions: _MOLCAS_;_I8_;_LINUX_
Parallel: OFF (GA=OFF)


   ------------------------------------------------------------------------------------------------------------
  |
  |              Project: orca_geometry_optimisation_240_150_BP86_def2-SVP_def2J_scf_cas1_ras12i11_cas2_ras12i8
  |       Submitted from: /home/pcaah4
  |         Scratch area: /srv/COMMUNAL_SCRATCH/10397
  |      Save outputs to: /home/pcaah4
  |               Molcas: /software/chemistry/openmolcas/openmolcas-23.06-openmp
  |
  | Scratch area is empty
  |
  |       MOLCAS_DRIVER = /software/chemistry/openmolcas/openmolcas-23.06-openmp/sbin/pymolcas
  | MOLCAS_KEEP_WORKDIR = NO
  |       MOLCAS_NPROCS = 1
  |       MOLCAS_SOURCE = /software/chemistry/openmolcas/openmolcas-23.06-openmp
  |    MOLCAS_STRUCTURE = 0
  |
   ------------------------------------------------------------------------------------------------------------

++ ---------   Input file   ---------

&SEWARD
TITLE
orca_geometry_optimisation_240_150_BP86_def2-SVP_def2J_scf_cas1_ras12i11
MULTIPOLES
2
SDIPOLE
ANGMOM
0 0 0
BASIS SET
C.ANO-S...4S3P1D.
C1            0.007099   -0.019553    0.089930 /Angstrom
C3            2.075638    1.312051   -0.006014 /Angstrom
C4            3.007646    1.266774   -1.228253 /Angstrom
C6            4.112692    2.626500   -2.977555 /Angstrom
C19          -0.566149   -1.430784    0.035791 /Angstrom
END OF BASIS
BASIS SET
N.ANO-S...4S3P1D.
N2            1.383884    0.050228    0.133093 /Angstrom
N5            3.212272    2.468061   -1.849669 /Angstrom
END OF BASIS
BASIS SET
O.ANO-S...4S3P1D.
O7           -0.710078    0.980337    0.125298 /Angstrom
O8            3.537057    0.210511   -1.580664 /Angstrom
END OF BASIS
BASIS SET
H.ANO-S...2S1P.
H9           -1.212530   -1.586267    0.922507 /Angstrom
H10          -1.217881   -1.515310   -0.856448 /Angstrom
H11           0.201576   -2.228411    0.004239 /Angstrom
H12           1.943823   -0.771026   -0.117024 /Angstrom
H13           1.298142    2.101284   -0.079216 /Angstrom
H14           2.701079    1.535802    0.890286 /Angstrom
H15           2.693698    3.280066   -1.511304 /Angstrom
H16           3.575375    2.980061   -3.883041 /Angstrom
H17           4.932517    3.341350   -2.751662 /Angstrom
H18           4.549398    1.632178   -3.188815 /Angstrom
END OF BASIS
END OF INPUT

&RASSCF
TITLE
orca_geometry_optimisation_240_150_BP86_def2-SVP_def2J_scf_cas1_ras12i11
LUMORB
SPIN
1
SYMMETRY
1
NACTEL
12  0  0
INACTIVE
29
DELETED  ! delete Rydberg orbitals from an initial CAS(12,11) if done
3
FROZEN
0
RAS2
8
ITERATIONS
64 25
CIROOT
7 7
1 2 3 4 5 6 7
1 1 1 1 1 1 1
LEVSHFT
0.3
CIMX
20
FILEorb = /home/pcaah4/outputs/cas1_ras12i11_rasorb_files/orca_geometry_optimisation_240_150_BP86_def2-SVP_def2J_scf_cas1_ras12i11.RasOrb
ALTEr
3
 1 38 210
 1 39 211
 1 40 212
END OF INPUT

&RASSI
NROF JOBIPH
    1 7
    1 2 3 5 4 6 7
TOFILE
TRDI
TDMN
1.0D-6
END OF INPUT

&CASPT2
TITLE
orca_geometry_optimisation_240_150_BP86_def2-SVP_def2J_scf_cas1_ras12i11
MULTISTATE
7 1 2 3 4 5 6 7
SHIFT
0.35
MAXITER
50
END OF INPUT

-- ----------------------------------

--- Start Module: seward at Wed Nov 13 20:30:33 2024 ---
 
()()()()()()()()()()()()()()()()()()()()()()()()()()()()()()()()()()()()()()()()()()()()()()()()()()

                                              &SEWARD

                                   only a single process is used
                       available to each process: 2.0 GB of memory, 1 thread
                                            pid: 1795612
()()()()()()()()()()()()()()()()()()()()()()()()()()()()()()()()()()()()()()()()()()()()()()()()()()
 
               SEWARD will generate:
                  Multipole Moment integrals up to order  2
                  Kinetic Energy integrals
                  Nuclear Attraction integrals (point charge)
                  One-Electron Hamiltonian integrals
                  Velocity integrals
                  Orbital angular momentum around ( 0.0000  0.0000  0.0000 )
                  Velocity quadrupole around ( 3.3827  1.5721 -1.5545 )
                  Two-Electron Repulsion integrals
 
 Title:
            orca_geometry_optimisation_240_150_BP86_def2-SVP_def2J_scf_cas1_ras12i11    
 
 
                   Integrals are discarded if absolute value <: 0.10E-13
                   Integral cutoff threshold is set to       <: 0.10E-15
 
++    Symmetry information:
      ---------------------
 
                    Character Table for C1 
 
                             E  
                    a        1  x, y, xy, Rz, z, xz, Ry, yz, Rx, I
--
 
 
++    Basis set information:
      ----------------------
 
 
      Basis set label: C.ANO-S...4S3P1D......
 
      Electronic valence basis set:
      ------------------
      Associated Effective Charge   6.000000 au
      Associated Actual Charge      6.000000 au
      Nuclear Model: Point charge
 
      Shell  nPrim  nBasis  Cartesian Spherical Contaminant
         s      10       4        X                  
         p       6       3        X                  
         d       3       1                 X         
 
 
      Basis set label: N.ANO-S...4S3P1D......
 
      Electronic valence basis set:
      ------------------
      Associated Effective Charge   7.000000 au
      Associated Actual Charge      7.000000 au
      Nuclear Model: Point charge
 
      Shell  nPrim  nBasis  Cartesian Spherical Contaminant
         s      10       4        X                  
         p       6       3        X                  
         d       3       1                 X         
 
 
      Basis set label: O.ANO-S...4S3P1D......
 
      Electronic valence basis set:
      ------------------
      Associated Effective Charge   8.000000 au
      Associated Actual Charge      8.000000 au
      Nuclear Model: Point charge
 
      Shell  nPrim  nBasis  Cartesian Spherical Contaminant
         s      10       4        X                  
         p       6       3        X                  
         d       3       1                 X         
 
 
      Basis set label: H.ANO-S...2S1P......
 
      Electronic valence basis set:
      ------------------
      Associated Effective Charge   1.000000 au
      Associated Actual Charge      1.000000 au
      Nuclear Model: Point charge
 
      Shell  nPrim  nBasis  Cartesian Spherical Contaminant
         s       7       2        X                  
         p       3       1        X                  
--
 
 
++    Molecular structure info:
      -------------------------
 
                    ************************************************ 
                    **** Cartesian Coordinates / Bohr, Angstrom **** 
                    ************************************************ 
 
     Center  Label                x              y              z                     x              y              z
        1      C1               0.013415      -0.036950       0.169943              0.007099      -0.019553       0.089930
        2      C3               3.922387       2.479417      -0.011365              2.075638       1.312051      -0.006014
        3      C4               5.683627       2.393856      -2.321062              3.007646       1.266774      -1.228253
        4      C6               7.771862       4.963366      -5.626763              4.112692       2.626500      -2.977555
        5      C19             -1.069867      -2.703790       0.067635             -0.566149      -1.430784       0.035791
        6      N2               2.615162       0.094917       0.251509              1.383884       0.050228       0.133093
        7      N5               6.070314       4.663959      -3.495368              3.212272       2.468061      -1.849669
        8      O7              -1.341853       1.852568       0.236779             -0.710078       0.980337       0.125298
        9      O8               6.684069       0.397808      -2.987022              3.537057       0.210511      -1.580664
       10      H9              -2.291350      -2.997610       1.743286             -1.212530      -1.586267       0.922507
       11      H10             -2.301462      -2.863521      -1.618452             -1.217881      -1.515310      -0.856448
       12      H11              0.380923      -4.211086       0.008011              0.201576      -2.228411       0.004239
       13      H12              3.673293      -1.457028      -0.221143              1.943823      -0.771026      -0.117024
       14      H13              2.453133       3.970851      -0.149697              1.298142       2.101284      -0.079216
       15      H14              5.104300       2.902245       1.682397              2.701079       1.535802       0.890286
       16      H15              5.090351       6.198426      -2.855951              2.693698       3.280066      -1.511304
       17      H16              6.756480       5.631499      -7.337884              3.575375       2.980061      -3.883041
       18      H17              9.321106       6.314236      -5.199888              4.932517       3.341350      -2.751662
       19      H18              8.597116       3.084369      -6.025987              4.549398       1.632178      -3.188815
 
                    ************************************************* 
                    **** InterNuclear Distances / Bohr, Angstrom **** 
                    ************************************************* 
 
     Atom centers         Bohr        Angstrom
   16 H15       7 N5      1.929707        1.021157
   13 H12       6 N2      1.936899        1.024963
   19 H18       4 C6      2.090706        1.106354
   12 H11       5 C19     2.092914        1.107522
   11 H10       5 C19     2.094094        1.108147
   10 H9        5 C19     2.094315        1.108264
   14 H13       2 C3      2.098147        1.110292
   17 H16       4 C6      2.098889        1.110684
   18 H17       4 C6      2.099341        1.110924
   15 H14       2 C3      2.108205        1.115614
    8 O7        1 C1      2.326263        1.231005
    9 O8        3 C4      2.329934        1.232948
    7 N5        3 C4      2.584935        1.367889
    6 N2        1 C1      2.606363        1.379228
    6 N2        2 C3      2.731992        1.445708
    7 N5        4 C6      2.743675        1.451890
    5 C19       1 C1      2.880278        1.524178
    3 C4        2 C3      2.905854        1.537712
   11 H10      10 H9      3.364426        1.780378
   15 H14      14 H13     3.395169        1.796646
   19 H18      17 H16     3.405420        1.802071
   18 H17      17 H16     3.408001        1.803436
   12 H11      10 H9      3.409508        1.804234
   19 H18      18 H17     3.411545        1.805312
   12 H11      11 H10     3.414162        1.806697
   16 H15       3 C4      3.887523        2.057189
   14 H13       6 N2      3.900011        2.063797
   19 H18       7 N5      3.909459        2.068796
   13 H12       1 C1      3.945159        2.087688
   13 H12       2 C3      3.949893        2.090193
   15 H14       6 N2      4.015512        2.124917
   17 H16       7 N5      4.021428        2.128048
   18 H17       7 N5      4.024481        2.129664
   16 H15       4 C6      4.048861        2.142565
   11 H10       1 C1      4.067741        2.152556
   10 H9        1 C1      4.068520        2.152968
   15 H14       3 C4      4.076979        2.157445
   12 H11       1 C1      4.193412        2.219058
   14 H13       3 C4      4.199742        2.222408
   13 H12      12 H11     4.298494        2.274665
    8 O7        6 N2      4.329841        2.291253
    9 O8        7 N5      4.339949        2.296602
   14 H13       8 O7      4.363302        2.308960
   16 H15      14 H13     4.386436        2.321202
   19 H18       9 O8      4.484715        2.373209
   13 H12       9 O8      4.489463        2.375721
    9 O8        2 C3      4.562293        2.414261
    8 O7        5 C19     4.567602        2.417071
    6 N2        3 C4      4.617220        2.443328
    6 N2        5 C19     4.630983        2.450611
    7 N5        2 C3      4.639406        2.455068
    2 C3        1 C1      4.652423        2.461956
    4 C6        3 C4      4.678757        2.475892
   14 H13       1 C1      4.702857        2.488645
   19 H18       3 C4      4.763580        2.520778
   17 H16      16 H15     4.815093        2.548037
   13 H12       3 C4      4.824977        2.553268
   16 H15       2 C3      4.825644        2.553621
   18 H17      16 H15     4.838051        2.560186
   12 H11       6 N2      4.857240        2.570341
   13 H12       5 C19     4.912776        2.599729
   15 H14      13 H12     4.967344        2.628605
   14 H13       7 N5      4.975733        2.633044
   11 H10       8 O7      5.157929        2.729458
   10 H9        8 O7      5.166753        2.734128
    9 O8        6 N2      5.209207        2.756593
    8 O7        2 C3      5.307235        2.808468
    9 O8        4 C6      5.384779        2.849502
   15 H14       9 O8      5.529136        2.925893
   15 H14       7 N5      5.553924        2.939010
   14 H13      13 H12     5.563791        2.944231
   16 H15      15 H14     5.609064        2.968189
   19 H18      16 H15     5.660731        2.995530
--
 
 
            Nuclear Potential Energy            449.65210800 au
 
 
      Basis set specifications :
      Symmetry species         a  
      Basis functions          212
 
 
      Input file to MOLDEN was generated!
 
--- Stop Module: seward at Wed Nov 13 20:32:22 2024 /rc=_RC_ALL_IS_WELL_ ---
*** files: orca_geometry_optimisation_240_150_BP86_def2-SVP_def2J_scf_cas1_ras12i11_cas2_ras12i8.GssOrb
           orca_geometry_optimisation_240_150_BP86_def2-SVP_def2J_scf_cas1_ras12i11_cas2_ras12i8.guessorb.molden xmldump
    saved to directory /home/pcaah4
--- Module seward spent 1 minute 48 seconds ---

*** symbolic link created: INPORB -> orca_geometry_optimisation_240_150_BP86_def2-SVP_def2J_scf_cas1_ras12i11_cas2_ras12i8.GssOrb
--- Start Module: rasscf at Wed Nov 13 20:32:22 2024 ---
 
()()()()()()()()()()()()()()()()()()()()()()()()()()()()()()()()()()()()()()()()()()()()()()()()()()

                                              &RASSCF

                                   only a single process is used
                       available to each process: 2.0 GB of memory, 1 thread
                                            pid: 1795977
()()()()()()()()()()()()()()()()()()()()()()()()()()()()()()()()()()()()()()()()()()()()()()()()()()
 
 
      Header of the ONEINT file:
      --------------------------
      orca_geometry_optimisation_240_150_BP86_def2-SVP_def2J_scf_cas1_ras12i11
      Integrals generated by Gateway/Seward, Wed Nov 13 20:30:34 2024
 
 
      OrdInt status: non-squared
 
 
      Cartesian coordinates in Angstrom:
      -----------------------------------------------------
      No.  Label        X            Y            Z        
      -----------------------------------------------------
       1   C1         0.00709900  -0.01955300   0.08993000
       2   C3         2.07563800   1.31205100  -0.00601400
       3   C4         3.00764600   1.26677400  -1.22825300
       4   C6         4.11269200   2.62650000  -2.97755500
       5   C19       -0.56614900  -1.43078400   0.03579100
       6   N2         1.38388400   0.05022800   0.13309300
       7   N5         3.21227200   2.46806100  -1.84966900
       8   O7        -0.71007800   0.98033700   0.12529800
       9   O8         3.53705700   0.21051100  -1.58066400
      10   H9        -1.21253000  -1.58626700   0.92250700
      11   H10       -1.21788100  -1.51531000  -0.85644800
      12   H11        0.20157600  -2.22841100   0.00423900
      13   H12        1.94382300  -0.77102600  -0.11702400
      14   H13        1.29814200   2.10128400  -0.07921600
      15   H14        2.70107900   1.53580200   0.89028600
      16   H15        2.69369800   3.28006600  -1.51130400
      17   H16        3.57537500   2.98006100  -3.88304100
      18   H17        4.93251700   3.34135000  -2.75166200
      19   H18        4.54939800   1.63217800  -3.18881500
      -----------------------------------------------------
      Nuclear repulsion energy =  449.65210800
 
++    Wave function specifications:
      -----------------------------
 
      Number of closed shell electrons          58
      Number of electrons in active shells      12
      Max number of holes in RAS1 space          0
      Max nr of electrons in RAS3 space          0
      Number of inactive orbitals               29
      Number of active orbitals                  8
      Number of secondary orbitals             172
      Spin quantum number                      0.0
      State symmetry                             1
--
 
++    Orbital specifications:
      -----------------------
 
      Symmetry species                           1
                                                 a
      Frozen orbitals                            0
      Inactive orbitals                         29
      Active orbitals                            8
      RAS1 orbitals                              0
      RAS2 orbitals                              8
      RAS3 orbitals                              0
      Secondary orbitals                       172
      Deleted orbitals                           3
      Number of basis functions                212
--
 
++    CI expansion specifications:
      ----------------------------
 
      Number of CSFs                           336
      Number of determinants                   406
      Number of root(s) required                 7
      Root chosen for geometry opt.              7
      CI roots used                              1     2     3     4     5     6     7
      weights                                0.143 0.143 0.143 0.143 0.143 0.143 0.143
      highest root included in the CI            7
      max. size of the explicit Hamiltonian    200
--
 
++    Optimization specifications:
      ----------------------------
 
      RASSCF algorithm: Conventional
      Maximum number of macro iterations        64
      Maximum number of SX iterations           25
      Threshold for RASSCF energy            0.100E-07
      Threshold for max MO rotation          0.100E+00
      Threshold for max BLB element          0.100E-03
      Level shift parameter                  0.300E+00
      Make Quasi-Newton update
--
 
      The MO-coefficients are taken from the file:
      /home/pcaah4/outputs/cas1_ras12i11_rasorb_files/orca_geometry_optimisation_240_150_BP86_def2-SVP_def2J_scf_cas1_ras12i11.RasOrb                                                                                                                                 
      Title: RASSCF average (pseudo-natural) orbitals                                      
 
      Total molecular charge    0.00
 
      Molecular orbitals exchanged:
        In symmetry  1 :  38 210
        In symmetry  1 :  39 211
        In symmetry  1 :  40 212
 
 
      ************************************************************************************************************************
      *                                                                                                                      *
      *                                            Wave function control section                                             *
      *                                                                                                                      *
      ************************************************************************************************************************
 
 
                                         RASSCF iterations: Energy and convergence statistics
                                         ----------------------------------------------------
 
      Iter CI   SX   CI       RASSCF       Energy    max ROT     max BLB   max BLB  Level Ln srch  Step   QN   Walltime
          iter iter root      energy       change     param      element    value   shift minimum  type update hh:mm:ss
 Nr of preliminary CI iterations:   4
        1   1    8    0  -453.70285103    0.00E+00   0.58E-01   34 143 1 -0.19E-01*  0.20   0.00    SX    NO    0:00:13
        2   3   10    0  -453.70602882   -0.32E-02*  0.36E-01   34 143 1 -0.30E-02*  0.20   0.00    SX    NO    0:00:06
        3   3    9    0  -453.70659621   -0.57E-03* -0.21E-01   36  54 1 -0.11E-02*  0.20   0.00    SX    NO    0:00:06
        4   4    8    0  -453.70677417   -0.18E-03* -0.13E-01   36  54 1 -0.73E-03*  0.20   0.00    SX    NO    0:00:06
        5   8    8    0  -453.70684160   -0.67E-04* -0.19E-01   36  54 1 -0.51E-03*  0.20   2.50    LS   YES    0:00:06
        6   4    7    0  -453.70688449   -0.43E-04* -0.54E-02   22  98 1 -0.46E-03*  0.20   1.22    QN   YES    0:00:06
        7   4    7    0  -453.70689329   -0.88E-05* -0.19E-02   36  41 1 -0.18E-03*  0.20   1.20    QN   YES    0:00:06
        8   3    7    0  -453.70689580   -0.25E-05* -0.14E-02   36  41 1 -0.10E-03   0.20   1.48    QN   YES    0:00:06
        9   3    6    0  -453.70689657   -0.76E-06* -0.46E-03   22  98 1  0.51E-04   0.20   1.13    QN   YES    0:00:06
       10   3    6    0  -453.70689670   -0.13E-06* -0.39E-03   36  41 1 -0.23E-04   0.20   1.66    QN   YES    0:00:06
       11   1    6    0  -453.70689676   -0.58E-07* -0.11E-03   36  49 1 -0.80E-05   0.20   1.19    QN   YES    0:00:06
       12   3    5    0  -453.70689677   -0.11E-07*  0.10E-03   36  42 1  0.52E-05   0.20   1.22    QN   YES    0:00:06
       13   1    5    0  -453.70689677   -0.31E-08   0.41E-04   36  42 1  0.24E-05   0.20   1.23    QN   YES    0:00:06
      Convergence after 13 iterations
       14   1    5    0  -453.70689677   -0.77E-09   0.41E-04   36  42 1  0.10E-05   0.20   1.23    QN   YES    0:00:06
 
      ************************************************************************************************************************
                                                      Wave function printout:
                       occupation of active orbitals, and spin coupling of open shells (u,d: Spin up or down)
      ************************************************************************************************************************
 
      Note: transformation to natural orbitals
      has been made, which may change the order of the CSFs.
 
      printout of CI-coefficients larger than  0.05 for root  1
      energy=    -453.957954
      conf/sym  11111111     Coeff  Weight
             1  22222200   0.96549 0.93216
             6  22220220  -0.07518 0.00565
             7  22222u0d  -0.13023 0.01696
            15  22222002  -0.07891 0.00623
            64  2u22220d  -0.07897 0.00624
            73  2u222d02  -0.06381 0.00407
            81  u22222d0   0.09756 0.00952
           175  20222202  -0.09979 0.00996
           191  02222220  -0.07480 0.00559
 
      printout of CI-coefficients larger than  0.05 for root  2
      energy=    -453.745382
      conf/sym  11111111     Coeff  Weight
            24  222u220d   0.96332 0.92799
            32  222u022d  -0.07367 0.00543
            33  222u2d02   0.09707 0.00942
           125  2u2d2202   0.18585 0.03454
           213  u22u22dd  -0.08156 0.00665
           269  022u222d   0.07524 0.00566
 
      printout of CI-coefficients larger than  0.05 for root  3
      energy=    -453.723371
      conf/sym  11111111     Coeff  Weight
             2  22222ud0  -0.17440 0.03042
            21  222u22d0   0.08788 0.00772
            41  22u222d0   0.93499 0.87420
            43  22u2d220  -0.15216 0.02315
            45  22u22dud  -0.06386 0.00408
            47  22u22udd   0.11614 0.01349
            55  22u220d2   0.07787 0.00606
           161  u2d22220  -0.11833 0.01400
           219  2uu222dd  -0.06792 0.00461
           222  2uu22dd2  -0.05516 0.00304
           294  20u222d2  -0.09755 0.00952
 
      printout of CI-coefficients larger than  0.05 for root  4
      energy=    -453.646171
      conf/sym  11111111     Coeff  Weight
             2  22222ud0   0.61922 0.38343
             3  2222u2d0  -0.70400 0.49561
             7  22222u0d   0.05841 0.00341
            12  2222uudd  -0.07733 0.00598
            18  2222u0d2  -0.06347 0.00403
            41  22u222d0   0.14166 0.02007
            65  2u222dud   0.08879 0.00788
            67  2u222udd  -0.12852 0.01652
            68  2u22u2dd   0.05131 0.00263
            83  u222d220   0.17591 0.03095
           176  20222ud2  -0.08752 0.00766
           177  2022u2d2   0.07001 0.00490
 
      printout of CI-coefficients larger than  0.05 for root  5
      energy=    -453.639127
      conf/sym  11111111     Coeff  Weight
             1  22222200   0.05555 0.00309
             2  22222ud0  -0.67042 0.44947
             3  2222u2d0  -0.57319 0.32855
             7  22222u0d   0.32653 0.10662
            15  22222002  -0.06473 0.00419
            41  22u222d0  -0.09849 0.00970
            65  2u222dud  -0.11068 0.01225
            67  2u222udd   0.14947 0.02234
            73  2u222d02   0.08502 0.00723
            81  u22222d0   0.05230 0.00274
            83  u222d220   0.12304 0.01514
           176  20222ud2   0.09721 0.00945
           177  2022u2d2   0.06048 0.00366
 
      printout of CI-coefficients larger than  0.05 for root  6
      energy=    -453.621903
      conf/sym  11111111     Coeff  Weight
             1  22222200  -0.11335 0.01285
             2  22222ud0  -0.20326 0.04131
             3  2222u2d0  -0.27114 0.07352
             7  22222u0d  -0.84731 0.71793
            14  22220u2d  -0.07041 0.00496
            15  22222002   0.16675 0.02781
            21  222u22d0   0.15175 0.02303
            27  222u2udd  -0.05369 0.00288
            67  2u222udd   0.05353 0.00287
            73  2u222d02  -0.21922 0.04806
            83  u222d220   0.07008 0.00491
            87  u2222udd   0.08109 0.00658
           175  20222202  -0.09540 0.00910
           193  02222u2d  -0.06238 0.00389
 
      printout of CI-coefficients larger than  0.05 for root  7
      energy=    -453.614369
      conf/sym  11111111     Coeff  Weight
             2  22222ud0   0.06578 0.00433
             7  22222u0d   0.14158 0.02004
            21  222u22d0   0.89269 0.79689
            25  222u2dud   0.21788 0.04747
            27  222u2udd  -0.30661 0.09401
            41  22u222d0  -0.07233 0.00523
           210  2u2u2dd2   0.07668 0.00588
           262  202u22d2  -0.08388 0.00704
 
      Natural orbitals and occupation numbers for root  1
      sym 1:   1.977002   1.995821   1.999882   1.999845   1.994486   1.955914   0.028636   0.048413
 
      Natural orbitals and occupation numbers for root  2
      sym 1:   1.976434   1.999976   1.999754   1.003154   1.994965   1.999882   0.028786   0.997049
 
      Natural orbitals and occupation numbers for root  3
      sym 1:   1.999874   1.994825   1.011050   1.998980   1.999138   1.954018   0.991793   0.050322
 
      Natural orbitals and occupation numbers for root  4
      sym 1:   1.986692   1.935223   1.999466   1.999554   1.039561   1.975703   0.994527   0.069273
 
      Natural orbitals and occupation numbers for root  5
      sym 1:   1.982153   1.940196   1.999591   1.999477   1.914076   1.069619   0.963764   0.131125
 
      Natural orbitals and occupation numbers for root  6
      sym 1:   1.982250   1.959152   1.999600   1.994764   1.890285   1.111971   0.139271   0.922708
 
      Natural orbitals and occupation numbers for root  7
      sym 1:   1.999674   1.989242   1.998290   1.111208   1.997649   1.917856   0.894268   0.091812
 
      ************************************************************************************************************************
      *                                                                                                                      *
      *                                                    Final results                                                     *
      *                                                                                                                      *
      ************************************************************************************************************************
 
 
++    Wave function specifications:
      -----------------------------
 
      Number of closed shell electrons          58
      Number of electrons in active shells      12
      Max number of holes in RAS1 space          0
      Max nr of electrons in RAS3 space          0
      Number of inactive orbitals               29
      Number of active orbitals                  8
      Number of secondary orbitals             172
      Spin quantum number                      0.0
      State symmetry                             1
--
 
++    Orbital specifications:
      -----------------------
 
      Symmetry species                           1
                                                 a
      Frozen orbitals                            0
      Inactive orbitals                         29
      Active orbitals                            8
      RAS1 orbitals                              0
      RAS2 orbitals                              8
      RAS3 orbitals                              0
      Secondary orbitals                       172
      Deleted orbitals                           3
      Number of basis functions                212
--
 
++    CI expansion specifications:
      ----------------------------
 
      Number of CSFs                           336
      Number of determinants                   406
      Number of root(s) required                 7
      CI roots used                              1     2     3     4     5     6     7
      weights                                0.143 0.143 0.143 0.143 0.143 0.143 0.143
      highest root included in the CI            7
      Root passed to geometry opt.               7
--
 
++    Final optimization conditions:
      ------------------------------
 
      Average CI energy                            -453.70689677
      RASSCF energy for state  7                   -453.61436888
      Super-CI energy                                -0.00000000
      RASSCF energy change                            0.00000000
      Max change in MO coefficients               0.459E-04
      Max non-diagonal density matrix element     0.411E-04
      Maximum BLB matrix element                  0.102E-05
      (orbital pair  36,  42 in symmetry   1)
      Norm of electronic gradient            0.370E+00
--
 
 
      Final state energy(ies):
      ------------------------
 
::    RASSCF root number  1 Total energy:   -453.95795434
::    RASSCF root number  2 Total energy:   -453.74538156
::    RASSCF root number  3 Total energy:   -453.72337088
::    RASSCF root number  4 Total energy:   -453.64617084
::    RASSCF root number  5 Total energy:   -453.63912742
::    RASSCF root number  6 Total energy:   -453.62190349
::    RASSCF root number  7 Total energy:   -453.61436888
 
++    Molecular orbitals:
      -------------------
 
      Pseudonatural active orbitals and approximate occupation numbers
 
 
 
 
      Molecular orbitals for symmetry species 1: a  
 
 
      Orbital                 1         2         3         4         5         6         7         8         9        10
      Energy           -20.6054  -20.5356  -15.6346  -15.5857  -11.3414  -11.2927  -11.2881  -11.2632  -11.2565   -1.4254
      Occ. No.           2.0000    2.0000    2.0000    2.0000    2.0000    2.0000    2.0000    2.0000    2.0000    2.0000
 
     1 C1     1s         0.0003    0.0000    0.0003    0.0000    1.0000   -0.0000    0.0001   -0.0000   -0.0036   -0.0397
     2 C1     2s         0.0008    0.0003    0.0014    0.0001    0.0024   -0.0005   -0.0005   -0.0002   -0.0003    0.3470
     3 C1     3s        -0.0005    0.0001    0.0006    0.0001    0.0000   -0.0004   -0.0005   -0.0002   -0.0006   -0.0090
     4 C1     4s        -0.0004   -0.0000    0.0001    0.0000    0.0013   -0.0001   -0.0002   -0.0001   -0.0002    0.0024
     5 C1     2px       -0.0015   -0.0001    0.0017   -0.0002    0.0012   -0.0005    0.0000   -0.0002   -0.0003   -0.0490
     6 C1     3px       -0.0010   -0.0004    0.0013   -0.0003    0.0013   -0.0006   -0.0003   -0.0002    0.0002    0.0289
     7 C1     4px        0.0002   -0.0002   -0.0001   -0.0001    0.0004   -0.0001   -0.0003   -0.0001    0.0002   -0.0149
     8 C1     2py        0.0029   -0.0001    0.0002   -0.0001    0.0010   -0.0005    0.0002   -0.0002   -0.0006    0.0945
     9 C1     3py        0.0019   -0.0001    0.0001   -0.0002    0.0009   -0.0006   -0.0003   -0.0003    0.0002   -0.0665
    10 C1     4py       -0.0004   -0.0000   -0.0000   -0.0000    0.0007   -0.0001   -0.0004   -0.0001    0.0003    0.0228
    11 C1     2pz        0.0001   -0.0001   -0.0000   -0.0000    0.0002    0.0002    0.0001   -0.0000   -0.0000    0.0021
    12 C1     3pz        0.0001   -0.0001    0.0001   -0.0001    0.0001    0.0002    0.0001    0.0000    0.0000   -0.0068
    13 C1     4pz       -0.0000   -0.0000    0.0000   -0.0000    0.0001    0.0000   -0.0000    0.0000    0.0000    0.0006
    14 C1     3d2-       0.0001   -0.0000    0.0001    0.0000   -0.0004   -0.0000    0.0000   -0.0000    0.0000   -0.0337
    15 C1     3d1-       0.0000   -0.0000    0.0000   -0.0000    0.0000    0.0000   -0.0000    0.0000   -0.0000    0.0021
    16 C1     3d0       -0.0000   -0.0000    0.0001   -0.0000   -0.0004    0.0000   -0.0001   -0.0000    0.0001   -0.0280
    17 C1     3d1+       0.0000   -0.0000   -0.0000    0.0000   -0.0000    0.0000   -0.0000   -0.0000    0.0000   -0.0014
    18 C1     3d2+       0.0001    0.0000   -0.0002    0.0000    0.0000   -0.0000    0.0000    0.0000   -0.0000   -0.0075
    19 C3     1s         0.0001   -0.0000    0.0004    0.0000   -0.0001    0.0631    0.9975    0.0000    0.0001   -0.0097
    20 C3     2s         0.0004   -0.0002    0.0020    0.0001    0.0007   -0.0000   -0.0012    0.0006    0.0007    0.0170
    21 C3     3s         0.0002   -0.0002    0.0009    0.0001    0.0004   -0.0003   -0.0026    0.0003    0.0004   -0.0191
    22 C3     4s         0.0000   -0.0002    0.0001   -0.0000    0.0000    0.0000    0.0007    0.0000    0.0001   -0.0020
    23 C3     2px        0.0000   -0.0007   -0.0003    0.0003    0.0007   -0.0003   -0.0007    0.0001    0.0004   -0.0233
    24 C3     3px        0.0001   -0.0006    0.0000    0.0002    0.0011   -0.0008   -0.0007   -0.0002    0.0005   -0.0105
    25 C3     4px        0.0001   -0.0000    0.0001   -0.0001    0.0003   -0.0003   -0.0004   -0.0002    0.0001   -0.0044
    26 C3     2py       -0.0003    0.0011   -0.0004   -0.0005    0.0004   -0.0001   -0.0002    0.0003   -0.0002   -0.0181
    27 C3     3py       -0.0002    0.0009    0.0001   -0.0005    0.0006   -0.0002   -0.0001    0.0003   -0.0001   -0.0016
    28 C3     4py        0.0000   -0.0000    0.0002   -0.0000    0.0001   -0.0001   -0.0008    0.0001    0.0001   -0.0038
    29 C3     2pz        0.0004   -0.0007   -0.0003    0.0004   -0.0005   -0.0000    0.0004   -0.0004    0.0002   -0.0040
    30 C3     3pz        0.0004   -0.0005   -0.0004    0.0006   -0.0006    0.0003    0.0002   -0.0003    0.0002   -0.0021
    31 C3     4pz        0.0000    0.0001   -0.0000    0.0002   -0.0001    0.0001   -0.0001    0.0001    0.0000    0.0014
    32 C3     3d2-       0.0000    0.0000    0.0000   -0.0000    0.0000   -0.0000   -0.0000    0.0000    0.0000    0.0033
    33 C3     3d1-      -0.0000   -0.0001    0.0000    0.0000   -0.0000    0.0001    0.0000    0.0000   -0.0000   -0.0002
    34 C3     3d0       -0.0000   -0.0000    0.0001   -0.0000   -0.0001    0.0000   -0.0000    0.0000   -0.0000   -0.0025
    35 C3     3d1+       0.0000   -0.0001    0.0000   -0.0000    0.0000    0.0001    0.0001   -0.0001    0.0000   -0.0013
    36 C3     3d2+      -0.0000   -0.0000    0.0001   -0.0000    0.0000    0.0001    0.0001    0.0000   -0.0000   -0.0010
    37 C4     1s         0.0000    0.0004   -0.0002    0.0003   -0.0002    0.9981   -0.0631    0.0002   -0.0001   -0.0004
    38 C4     2s         0.0002    0.0012   -0.0013    0.0011   -0.0016    0.0028    0.0007   -0.0006   -0.0004    0.0347
    39 C4     3s         0.0001   -0.0002   -0.0009    0.0005   -0.0013    0.0003    0.0002   -0.0006   -0.0003    0.0108
    40 C4     4s        -0.0000   -0.0003   -0.0003    0.0001   -0.0004    0.0014   -0.0001   -0.0002   -0.0001    0.0040
    41 C4     2px        0.0001    0.0015    0.0005    0.0003    0.0003    0.0005   -0.0006    0.0001    0.0002   -0.0061
    42 C4     3px        0.0002    0.0010    0.0005    0.0002    0.0004    0.0001   -0.0000   -0.0004    0.0003   -0.0108
    43 C4     4px        0.0001   -0.0002    0.0001   -0.0000    0.0001    0.0003    0.0002   -0.0003    0.0001   -0.0030
    44 C4     2py       -0.0001   -0.0029   -0.0004    0.0014   -0.0000    0.0009   -0.0001   -0.0004    0.0003   -0.0104
    45 C4     3py       -0.0001   -0.0020   -0.0001    0.0010   -0.0000    0.0006    0.0002   -0.0006    0.0002   -0.0053
    46 C4     4py       -0.0000    0.0003    0.0002   -0.0001    0.0000    0.0001    0.0002   -0.0002   -0.0000   -0.0015
    47 C4     2pz       -0.0003   -0.0008   -0.0001   -0.0009   -0.0002   -0.0001    0.0010    0.0001   -0.0003    0.0089
    48 C4     3pz       -0.0005   -0.0005   -0.0000   -0.0006   -0.0002   -0.0002    0.0006    0.0007   -0.0004    0.0113
    49 C4     4pz       -0.0002    0.0001   -0.0000    0.0001   -0.0000   -0.0003   -0.0001    0.0005   -0.0001    0.0029
    50 C4     3d2-       0.0000    0.0001    0.0001    0.0000   -0.0000   -0.0002    0.0000    0.0000    0.0000   -0.0012
    51 C4     3d1-      -0.0000   -0.0001    0.0001    0.0001    0.0000    0.0000    0.0000   -0.0001   -0.0000    0.0002
    52 C4     3d0        0.0000    0.0001   -0.0000    0.0001    0.0000   -0.0002    0.0000   -0.0000    0.0000   -0.0008
    53 C4     3d1+      -0.0000   -0.0001   -0.0000    0.0000    0.0000   -0.0001    0.0000   -0.0000    0.0000   -0.0010
    54 C4     3d2+       0.0000    0.0000   -0.0001    0.0002    0.0000   -0.0004    0.0001   -0.0001    0.0000   -0.0013
    55 C6     1s         0.0001    0.0001   -0.0000    0.0003   -0.0001   -0.0004    0.0001    0.9997    0.0000   -0.0000
    56 C6     2s         0.0004    0.0006   -0.0002    0.0014   -0.0005   -0.0003    0.0003    0.0001   -0.0000    0.0047
    57 C6     3s         0.0002    0.0004   -0.0002    0.0003   -0.0004   -0.0005    0.0003   -0.0016   -0.0001    0.0049
    58 C6     4s         0.0000    0.0001   -0.0001   -0.0001   -0.0002   -0.0002    0.0000    0.0009   -0.0000    0.0024
    59 C6     2px        0.0001   -0.0001   -0.0001   -0.0003    0.0001    0.0000   -0.0003   -0.0001    0.0001   -0.0040
    60 C6     3px        0.0000   -0.0001   -0.0001    0.0001    0.0001    0.0001   -0.0003    0.0002    0.0001   -0.0031
    61 C6     4px       -0.0000   -0.0000   -0.0000    0.0001   -0.0000    0.0000    0.0000   -0.0004   -0.0000    0.0000
    62 C6     2py        0.0000   -0.0002   -0.0000    0.0001   -0.0001    0.0003   -0.0000    0.0002    0.0000   -0.0011
    63 C6     3py        0.0001   -0.0001   -0.0000    0.0002   -0.0000    0.0004   -0.0001   -0.0000    0.0000   -0.0016
    64 C6     4py        0.0000    0.0001   -0.0000    0.0001    0.0000    0.0001   -0.0000   -0.0001    0.0000   -0.0007
    65 C6     2pz        0.0001    0.0002   -0.0002    0.0004   -0.0003   -0.0004    0.0000    0.0000   -0.0000    0.0043
    66 C6     3pz        0.0000    0.0002   -0.0002   -0.0002   -0.0003   -0.0005   -0.0000   -0.0002   -0.0001    0.0045
    67 C6     4pz       -0.0000   -0.0000   -0.0000   -0.0002   -0.0000   -0.0001   -0.0000    0.0005   -0.0000    0.0010
    68 C6     3d2-      -0.0000    0.0000   -0.0000    0.0000   -0.0000    0.0000   -0.0000    0.0000    0.0000    0.0001
    69 C6     3d1-       0.0000   -0.0000    0.0000   -0.0000    0.0000   -0.0001    0.0000   -0.0000    0.0000   -0.0002
    70 C6     3d0       -0.0000    0.0000   -0.0000   -0.0000   -0.0000    0.0000    0.0000   -0.0000   -0.0000    0.0003
    71 C6     3d1+      -0.0000   -0.0000    0.0000    0.0001    0.0000   -0.0000   -0.0000    0.0001    0.0000   -0.0003
    72 C6     3d2+      -0.0000    0.0000   -0.0000    0.0000   -0.0000   -0.0000    0.0000   -0.0000   -0.0000    0.0002
    73 C19    1s         0.0002    0.0000   -0.0000   -0.0000    0.0036   -0.0000    0.0002   -0.0000    0.9999   -0.0143
    74 C19    2s         0.0011    0.0002   -0.0002   -0.0002    0.0005   -0.0001    0.0008   -0.0002    0.0019   -0.0117
    75 C19    3s         0.0007    0.0001   -0.0000   -0.0002    0.0002   -0.0002    0.0004   -0.0002   -0.0005   -0.0386
    76 C19    4s         0.0001   -0.0000   -0.0000   -0.0001    0.0001   -0.0001   -0.0000   -0.0001    0.0013   -0.0037
    77 C19    2px        0.0008    0.0001   -0.0004   -0.0000   -0.0002    0.0000    0.0002   -0.0000   -0.0002   -0.0109
    78 C19    3px        0.0005    0.0001   -0.0003    0.0000   -0.0003    0.0001    0.0002    0.0000   -0.0001   -0.0074
    79 C19    4px       -0.0002    0.0000    0.0000    0.0000   -0.0000    0.0000   -0.0000    0.0000    0.0002    0.0075
    80 C19    2py       -0.0001   -0.0001    0.0003   -0.0001    0.0004   -0.0001    0.0002   -0.0001   -0.0002    0.0203
    81 C19    3py       -0.0003   -0.0001    0.0003   -0.0001   -0.0001   -0.0001    0.0001   -0.0001   -0.0000   -0.0068
    82 C19    4py       -0.0002   -0.0000   -0.0001   -0.0000   -0.0001   -0.0000   -0.0001    0.0000    0.0004    0.0057
    83 C19    2pz       -0.0001   -0.0001    0.0001    0.0000    0.0001    0.0000    0.0002   -0.0000    0.0000    0.0003
    84 C19    3pz       -0.0001   -0.0001    0.0001    0.0000    0.0001   -0.0000    0.0002   -0.0000    0.0000   -0.0005
    85 C19    4pz       -0.0000    0.0000   -0.0000   -0.0000   -0.0000   -0.0000   -0.0000    0.0000    0.0000    0.0004
    86 C19    3d2-       0.0001   -0.0000   -0.0000   -0.0000    0.0000    0.0000    0.0001   -0.0000   -0.0001   -0.0000
    87 C19    3d1-       0.0000    0.0000    0.0000   -0.0000   -0.0000   -0.0000   -0.0000    0.0000   -0.0000    0.0003
    88 C19    3d0       -0.0001   -0.0000   -0.0001    0.0000    0.0001    0.0000   -0.0000    0.0000    0.0001    0.0015
    89 C19    3d1+       0.0000    0.0000   -0.0000   -0.0000   -0.0000   -0.0000   -0.0000    0.0000   -0.0000    0.0002
    90 C19    3d2+       0.0001   -0.0000   -0.0000    0.0000   -0.0001    0.0000   -0.0000    0.0000    0.0001   -0.0070
    91 N2     1s         0.0001   -0.0000    0.9998   -0.0000   -0.0002    0.0001    0.0001    0.0000    0.0001   -0.0177
    92 N2     2s         0.0006    0.0000    0.0000    0.0001   -0.0002    0.0006    0.0013    0.0001    0.0006    0.1126
    93 N2     3s         0.0005    0.0001   -0.0014    0.0001   -0.0003    0.0004    0.0006    0.0001    0.0004   -0.0484
    94 N2     4s         0.0001    0.0000    0.0004    0.0000    0.0001    0.0001    0.0002    0.0000    0.0001   -0.0116
    95 N2     2px        0.0001    0.0003    0.0006   -0.0000   -0.0001    0.0001    0.0008   -0.0001   -0.0003   -0.0331
    96 N2     3px        0.0001    0.0004    0.0006   -0.0000    0.0002    0.0001    0.0006   -0.0001   -0.0002    0.0114
    97 N2     4px        0.0000   -0.0000   -0.0002   -0.0000   -0.0002    0.0000   -0.0000   -0.0000    0.0001   -0.0063
    98 N2     2py       -0.0014    0.0002   -0.0006   -0.0001    0.0002    0.0003    0.0008    0.0000   -0.0003    0.0356
    99 N2     3py       -0.0017    0.0002   -0.0001   -0.0001    0.0002    0.0003    0.0007    0.0000   -0.0002    0.0147
   100 N2     4py       -0.0000   -0.0000    0.0005   -0.0000   -0.0001   -0.0000    0.0002   -0.0000    0.0001   -0.0056
   101 N2     2pz       -0.0002    0.0004   -0.0003   -0.0002   -0.0000    0.0000   -0.0002    0.0001   -0.0002    0.0044
   102 N2     3pz       -0.0002    0.0006   -0.0000   -0.0003   -0.0001   -0.0002   -0.0003    0.0001   -0.0002    0.0124
   103 N2     4pz        0.0000    0.0001   -0.0003   -0.0000   -0.0001   -0.0000   -0.0001    0.0000   -0.0000    0.0002
   104 N2     3d2-       0.0001    0.0000   -0.0002   -0.0000   -0.0001    0.0000   -0.0000   -0.0000   -0.0000   -0.0027
   105 N2     3d1-       0.0000   -0.0000    0.0001   -0.0000   -0.0000   -0.0000    0.0000    0.0000    0.0000   -0.0009
   106 N2     3d0       -0.0000    0.0000   -0.0000    0.0000    0.0002   -0.0000    0.0001   -0.0000   -0.0001   -0.0027
   107 N2     3d1+      -0.0000    0.0000   -0.0000   -0.0000   -0.0000   -0.0000    0.0000    0.0000   -0.0000    0.0000
   108 N2     3d2+      -0.0000   -0.0000    0.0000   -0.0000    0.0001    0.0000   -0.0000   -0.0000    0.0000    0.0048
   109 N5     1s         0.0000    0.0001    0.0001    0.9999    0.0001   -0.0003    0.0000    0.0001   -0.0000   -0.0014
   110 N5     2s         0.0001    0.0010    0.0006    0.0005    0.0005   -0.0003    0.0001    0.0017   -0.0000    0.0023
   111 N5     3s         0.0001    0.0006    0.0004   -0.0011    0.0004   -0.0004    0.0001    0.0010   -0.0000   -0.0041
   112 N5     4s         0.0000    0.0001    0.0001    0.0006    0.0001    0.0000   -0.0000    0.0004    0.0000   -0.0009
   113 N5     2px       -0.0003   -0.0010   -0.0000   -0.0006    0.0002    0.0005   -0.0001    0.0006   -0.0001    0.0018
   114 N5     3px       -0.0004   -0.0011    0.0001   -0.0003    0.0003    0.0003   -0.0000    0.0006   -0.0001    0.0014
   115 N5     4px       -0.0000    0.0000    0.0000    0.0002    0.0001   -0.0001    0.0000    0.0002   -0.0000   -0.0003
   116 N5     2py        0.0001    0.0008   -0.0002    0.0006    0.0000   -0.0002   -0.0003    0.0002    0.0001   -0.0035
   117 N5     3py        0.0001    0.0009   -0.0002    0.0003    0.0001   -0.0001   -0.0002   -0.0001    0.0001   -0.0022
   118 N5     4py       -0.0000    0.0000    0.0001   -0.0003    0.0001   -0.0002    0.0001   -0.0001   -0.0000   -0.0005
   119 N5     2pz        0.0003    0.0010    0.0000    0.0004   -0.0003   -0.0001    0.0003   -0.0007   -0.0000    0.0035
   120 N5     3pz        0.0004    0.0011   -0.0001    0.0002   -0.0006   -0.0003    0.0003   -0.0007   -0.0001    0.0052
   121 N5     4pz        0.0000   -0.0000   -0.0001   -0.0001   -0.0001    0.0002   -0.0000   -0.0001   -0.0000    0.0019
   122 N5     3d2-      -0.0000    0.0000    0.0000   -0.0001    0.0000    0.0000    0.0000    0.0000   -0.0000    0.0001
   123 N5     3d1-       0.0000   -0.0000   -0.0000    0.0001   -0.0000    0.0000   -0.0000    0.0000    0.0000   -0.0002
   124 N5     3d0       -0.0000    0.0000   -0.0000   -0.0001   -0.0000   -0.0000   -0.0000   -0.0000   -0.0000    0.0001
   125 N5     3d1+      -0.0000   -0.0001   -0.0000    0.0001    0.0000    0.0002   -0.0000    0.0001   -0.0000    0.0001
   126 N5     3d2+      -0.0000    0.0000   -0.0000   -0.0001   -0.0000    0.0000   -0.0000    0.0000   -0.0000    0.0001
   127 O7     1s         0.9997    0.0000    0.0000   -0.0000   -0.0003    0.0000   -0.0000    0.0000    0.0001   -0.0237
   128 O7     2s        -0.0016    0.0001    0.0002   -0.0000    0.0004    0.0001   -0.0002    0.0001    0.0003    0.6935
   129 O7     3s        -0.0014    0.0000    0.0001   -0.0000   -0.0000    0.0001   -0.0001    0.0000    0.0003   -0.0342
   130 O7     4s         0.0000    0.0000    0.0000    0.0000    0.0000    0.0000    0.0000    0.0000    0.0001   -0.0139
   131 O7     2px        0.0001    0.0001   -0.0003    0.0000    0.0004    0.0000   -0.0001    0.0000    0.0001    0.0919
   132 O7     3px       -0.0003    0.0001   -0.0004    0.0001   -0.0001    0.0001   -0.0001    0.0000    0.0001   -0.0271
   133 O7     4px        0.0009    0.0001   -0.0001    0.0000    0.0001    0.0000    0.0000   -0.0000   -0.0000   -0.0015
   134 O7     2py       -0.0001   -0.0000   -0.0002    0.0000   -0.0006    0.0000   -0.0000   -0.0000   -0.0001   -0.1168
   135 O7     3py        0.0006    0.0000   -0.0002    0.0001   -0.0004    0.0001   -0.0001   -0.0000   -0.0001    0.0356
   136 O7     4py       -0.0011    0.0000    0.0001    0.0000   -0.0003    0.0000   -0.0000   -0.0000    0.0000   -0.0000
   137 O7     2pz       -0.0000   -0.0000   -0.0001   -0.0000    0.0001   -0.0000    0.0000   -0.0000   -0.0000   -0.0009
   138 O7     3pz       -0.0000   -0.0000   -0.0000   -0.0000   -0.0000   -0.0001    0.0000   -0.0000   -0.0000    0.0025
   139 O7     4pz       -0.0001   -0.0000    0.0000   -0.0000   -0.0000   -0.0000    0.0000   -0.0000   -0.0000    0.0004
   140 O7     3d2-       0.0001   -0.0000    0.0000   -0.0000   -0.0002    0.0000    0.0000    0.0000   -0.0000   -0.0186
   141 O7     3d1-      -0.0000   -0.0000    0.0000   -0.0000    0.0000   -0.0000    0.0000   -0.0000    0.0000    0.0006
   142 O7     3d0       -0.0000   -0.0000   -0.0001    0.0000   -0.0001    0.0000   -0.0000    0.0000   -0.0000   -0.0107
   143 O7     3d1+      -0.0000   -0.0000    0.0000   -0.0000   -0.0000    0.0000    0.0000   -0.0000   -0.0000   -0.0005
   144 O7     3d2+       0.0000   -0.0000   -0.0001    0.0000   -0.0001    0.0000   -0.0000    0.0000   -0.0000   -0.0051
   145 O8     1s        -0.0000    0.9997   -0.0001    0.0000    0.0000   -0.0002    0.0000   -0.0000    0.0000   -0.0018
   146 O8     2s        -0.0000   -0.0016   -0.0003    0.0002    0.0002    0.0006    0.0000   -0.0003    0.0002    0.0238
   147 O8     3s        -0.0000   -0.0014   -0.0002    0.0002    0.0001    0.0001    0.0001   -0.0001    0.0001   -0.0042
   148 O8     4s        -0.0000    0.0000   -0.0001    0.0000    0.0001    0.0001    0.0000   -0.0000    0.0000   -0.0012
   149 O8     2px       -0.0000   -0.0001    0.0001   -0.0001   -0.0000   -0.0000    0.0000   -0.0000   -0.0000   -0.0021
   150 O8     3px       -0.0001    0.0002    0.0001   -0.0001   -0.0000   -0.0001    0.0001   -0.0000   -0.0000    0.0014
   151 O8     4px       -0.0000   -0.0006   -0.0000    0.0001    0.0000   -0.0001    0.0000   -0.0000    0.0000   -0.0002
   152 O8     2py        0.0000    0.0002   -0.0001   -0.0002    0.0000    0.0008    0.0000   -0.0001   -0.0000    0.0040
   153 O8     3py        0.0000   -0.0005   -0.0000   -0.0003    0.0001    0.0002    0.0000   -0.0000   -0.0000   -0.0025
   154 O8     4py        0.0000    0.0012    0.0000   -0.0001    0.0000    0.0001   -0.0000    0.0000   -0.0000    0.0003
   155 O8     2pz        0.0000    0.0000   -0.0001    0.0002    0.0000    0.0003   -0.0001    0.0000    0.0001    0.0024
   156 O8     3pz        0.0000   -0.0002   -0.0002    0.0002   -0.0000    0.0001   -0.0001   -0.0000    0.0001   -0.0009
   157 O8     4pz        0.0000    0.0004   -0.0000   -0.0000   -0.0000    0.0001   -0.0001   -0.0000    0.0000    0.0003
   158 O8     3d2-      -0.0000    0.0001    0.0000   -0.0000    0.0000   -0.0002    0.0000    0.0000   -0.0000   -0.0005
   159 O8     3d1-       0.0000   -0.0001   -0.0000    0.0000   -0.0000    0.0001   -0.0000   -0.0000    0.0000    0.0004
   160 O8     3d0       -0.0000    0.0000   -0.0000    0.0000    0.0000   -0.0001    0.0000    0.0000    0.0000   -0.0003
   161 O8     3d1+      -0.0000   -0.0000    0.0000   -0.0001    0.0000   -0.0000   -0.0000   -0.0000   -0.0000   -0.0003
   162 O8     3d2+      -0.0000    0.0000   -0.0000    0.0000    0.0000   -0.0001   -0.0000    0.0000    0.0000   -0.0003
   163 H9     1s         0.0002    0.0001    0.0000   -0.0001   -0.0001   -0.0002   -0.0004   -0.0000    0.0003    0.0151
   164 H9     2s         0.0001    0.0000   -0.0000   -0.0000   -0.0000   -0.0002   -0.0003   -0.0000   -0.0003    0.0041
   165 H9     2px       -0.0000    0.0000    0.0000   -0.0000    0.0000   -0.0000   -0.0000   -0.0000   -0.0000    0.0009
   166 H9     2py       -0.0001    0.0000   -0.0000   -0.0000    0.0001   -0.0000   -0.0000   -0.0000    0.0000    0.0013
   167 H9     2pz       -0.0000   -0.0000    0.0000    0.0000   -0.0000    0.0000    0.0000    0.0000    0.0001   -0.0006
   168 H10    1s         0.0000   -0.0003    0.0002   -0.0000    0.0002   -0.0000    0.0000   -0.0001    0.0003    0.0129
   169 H10    2s         0.0000   -0.0002    0.0001   -0.0000    0.0001   -0.0000    0.0000   -0.0001   -0.0002    0.0024
   170 H10    2px       -0.0000   -0.0000    0.0001   -0.0000    0.0001   -0.0000   -0.0000   -0.0000   -0.0000    0.0007
   171 H10    2py       -0.0001   -0.0000   -0.0000   -0.0000    0.0001    0.0000   -0.0000   -0.0000    0.0000    0.0011
   172 H10    2pz        0.0000   -0.0000   -0.0000   -0.0000    0.0000   -0.0000   -0.0000   -0.0000   -0.0001    0.0006
   173 H11    1s        -0.0005   -0.0002    0.0004   -0.0001    0.0003   -0.0001   -0.0001   -0.0001    0.0004    0.0204
   174 H11    2s        -0.0003   -0.0001    0.0003   -0.0001    0.0002   -0.0001   -0.0001   -0.0001   -0.0002    0.0059
   175 H11    2px       -0.0000    0.0000   -0.0001   -0.0000   -0.0000    0.0000    0.0000    0.0000    0.0001   -0.0002
   176 H11    2py       -0.0000   -0.0000    0.0000   -0.0000    0.0001    0.0000    0.0000   -0.0000   -0.0000    0.0019
   177 H11    2pz       -0.0000    0.0000   -0.0000   -0.0000   -0.0000   -0.0000   -0.0000    0.0000   -0.0000    0.0001
   178 H12    1s        -0.0010    0.0003   -0.0007   -0.0001    0.0001    0.0001   -0.0002   -0.0001   -0.0005    0.0379
   179 H12    2s        -0.0006    0.0002   -0.0005   -0.0000   -0.0000    0.0001   -0.0001   -0.0000   -0.0003   -0.0015
   180 H12    2px        0.0000   -0.0001    0.0002    0.0000   -0.0001   -0.0000    0.0000   -0.0000    0.0000   -0.0043
   181 H12    2py       -0.0000    0.0000   -0.0004    0.0000    0.0000    0.0000    0.0000   -0.0000   -0.0000    0.0039
   182 H12    2pz       -0.0001   -0.0000   -0.0002    0.0000    0.0000    0.0000    0.0000   -0.0000   -0.0000    0.0014
   183 H13    1s         0.0004   -0.0007   -0.0004    0.0005   -0.0003   -0.0002    0.0009   -0.0001    0.0003    0.0109
   184 H13    2s         0.0003   -0.0004   -0.0002    0.0003   -0.0001   -0.0002    0.0001   -0.0001    0.0002   -0.0048
   185 H13    2px        0.0000   -0.0001    0.0000    0.0000   -0.0001    0.0000    0.0000    0.0000    0.0000   -0.0004
   186 H13    2py       -0.0000    0.0000   -0.0000   -0.0001    0.0000   -0.0000   -0.0001   -0.0000   -0.0000   -0.0010
   187 H13    2pz       -0.0000   -0.0000    0.0000    0.0000    0.0000   -0.0000   -0.0000   -0.0000   -0.0000    0.0006
   188 H14    1s         0.0001    0.0009   -0.0004   -0.0003   -0.0004   -0.0001    0.0009   -0.0001   -0.0004    0.0161
   189 H14    2s         0.0001    0.0005   -0.0002   -0.0002   -0.0003    0.0000    0.0001   -0.0000   -0.0002    0.0055
   190 H14    2px       -0.0000   -0.0000    0.0000   -0.0000    0.0000    0.0001    0.0000    0.0000    0.0000   -0.0009
   191 H14    2py       -0.0000   -0.0001    0.0000    0.0000   -0.0000    0.0000   -0.0000   -0.0000    0.0000   -0.0005
   192 H14    2pz       -0.0000   -0.0000   -0.0000    0.0000    0.0000   -0.0001    0.0000    0.0000    0.0000   -0.0011
   193 H15    1s        -0.0003   -0.0013    0.0001   -0.0008    0.0000    0.0004    0.0001   -0.0001   -0.0001    0.0053
   194 H15    2s        -0.0002   -0.0008    0.0001   -0.0005    0.0000    0.0001    0.0001   -0.0000   -0.0001    0.0021
   195 H15    2px       -0.0000   -0.0001    0.0000   -0.0003   -0.0000    0.0000    0.0000    0.0000   -0.0000    0.0005
   196 H15    2py        0.0000    0.0001   -0.0000    0.0004    0.0000   -0.0002   -0.0000    0.0000    0.0000   -0.0005
   197 H15    2pz        0.0000    0.0000   -0.0000    0.0002    0.0000    0.0001   -0.0000   -0.0000    0.0000   -0.0004
   198 H16    1s         0.0000    0.0003   -0.0002   -0.0005   -0.0002   -0.0004   -0.0002    0.0005   -0.0001    0.0039
   199 H16    2s         0.0000    0.0002   -0.0001   -0.0002   -0.0001   -0.0003   -0.0001   -0.0001   -0.0001    0.0029
   200 H16    2px       -0.0000    0.0000   -0.0000    0.0000   -0.0000   -0.0000   -0.0000   -0.0000   -0.0000    0.0001
   201 H16    2py       -0.0000   -0.0000    0.0000    0.0000    0.0000    0.0000    0.0000   -0.0000    0.0000   -0.0001
   202 H16    2pz        0.0000    0.0000   -0.0000   -0.0000   -0.0000   -0.0001   -0.0000    0.0000   -0.0000    0.0002
   203 H17    1s        -0.0001    0.0003    0.0001   -0.0005   -0.0000   -0.0003    0.0002    0.0005   -0.0000    0.0025
   204 H17    2s        -0.0001    0.0002    0.0001   -0.0002   -0.0000   -0.0002    0.0001   -0.0001   -0.0000    0.0017
   205 H17    2px        0.0000   -0.0000   -0.0000    0.0000    0.0000    0.0001   -0.0000   -0.0000    0.0000   -0.0002
   206 H17    2py        0.0000   -0.0000   -0.0000    0.0000    0.0000    0.0000   -0.0000    0.0000    0.0000   -0.0003
   207 H17    2pz        0.0000    0.0000    0.0000   -0.0000    0.0000    0.0000   -0.0000    0.0000    0.0000   -0.0003
   208 H18    1s        -0.0001   -0.0000   -0.0001   -0.0001   -0.0003   -0.0000    0.0001    0.0010   -0.0001    0.0051
   209 H18    2s        -0.0001    0.0000   -0.0001   -0.0000   -0.0002    0.0001    0.0001    0.0001   -0.0000    0.0032
   210 H18    2px        0.0000    0.0000    0.0000   -0.0000    0.0000    0.0000   -0.0000   -0.0001    0.0000   -0.0002
   211 H18    2py       -0.0000   -0.0000   -0.0000    0.0000   -0.0000   -0.0000    0.0000    0.0001   -0.0000    0.0005
   212 H18    2pz       -0.0000   -0.0000   -0.0000    0.0000   -0.0000    0.0000    0.0000    0.0001   -0.0000    0.0002
 
 
      Orbital                11        12        13        14        15        16        17        18        19        20
      Energy            -1.3684   -1.2541   -1.2164   -1.0286   -0.9721   -0.9150   -0.8155   -0.7795   -0.7199   -0.6952
      Occ. No.           2.0000    2.0000    2.0000    2.0000    2.0000    2.0000    2.0000    2.0000    2.0000    2.0000
 
     1 C1     1s         0.0034   -0.0082    0.0024   -0.0171   -0.0007    0.0068    0.0147    0.0015    0.0064    0.0034
     2 C1     2s         0.0029    0.1348    0.0057    0.2716   -0.0453   -0.0877   -0.3780   -0.0153   -0.2512   -0.0779
     3 C1     3s         0.0138    0.0016    0.0130   -0.0217   -0.0052    0.0117    0.0075    0.0032    0.0052    0.0176
     4 C1     4s         0.0044    0.0007    0.0041   -0.0060   -0.0021    0.0048    0.0031    0.0011    0.0032    0.0032
     5 C1     2px        0.0332    0.1501    0.0143   -0.0043    0.0996   -0.0999   -0.1276   -0.0065    0.1444    0.2698
     6 C1     3px        0.0204   -0.0472    0.0298   -0.0472   -0.0216    0.0340    0.0235   -0.0078   -0.0647   -0.0651
     7 C1     4px        0.0094    0.0249    0.0045   -0.0077    0.0123   -0.0077   -0.0096   -0.0018    0.0055    0.0173
     8 C1     2py        0.0105   -0.0301    0.0234   -0.1589    0.0638    0.0004   -0.0582    0.0348    0.0576   -0.1321
     9 C1     3py        0.0289    0.0442    0.0263    0.0119   -0.0511    0.0469    0.0119   -0.0039   -0.0093    0.0564
    10 C1     4py        0.0014   -0.0044    0.0052   -0.0256    0.0068    0.0041   -0.0075    0.0022   -0.0021   -0.0081
    11 C1     2pz       -0.0000   -0.0117   -0.0027    0.0000    0.0086   -0.0090   -0.0183    0.0050    0.0096   -0.0060
    12 C1     3pz        0.0001   -0.0114   -0.0047    0.0049    0.0049   -0.0072   -0.0027    0.0027    0.0023    0.0001
    13 C1     4pz       -0.0006   -0.0015   -0.0012    0.0018    0.0019   -0.0027   -0.0011    0.0011    0.0021   -0.0012
    14 C1     3d2-       0.0035    0.0165   -0.0005    0.0083   -0.0083    0.0061   -0.0128    0.0071    0.0180    0.0087
    15 C1     3d1-      -0.0003   -0.0009   -0.0000    0.0007   -0.0004    0.0001   -0.0012    0.0003   -0.0009   -0.0014
    16 C1     3d0        0.0007   -0.0067    0.0002   -0.0115    0.0000    0.0050    0.0134    0.0008    0.0061    0.0026
    17 C1     3d1+       0.0001    0.0000   -0.0001    0.0012    0.0010   -0.0009   -0.0036    0.0011    0.0039    0.0011
    18 C1     3d2+       0.0025    0.0266   -0.0012    0.0016    0.0150   -0.0138   -0.0084   -0.0013    0.0128    0.0170
    19 C3     1s        -0.0152   -0.0303   -0.0060    0.0333    0.0253   -0.0213    0.0078   -0.0068   -0.0003    0.0008
    20 C3     2s         0.0247    0.1750    0.0116   -0.2908   -0.2414    0.3249   -0.0994    0.0718   -0.0308    0.0308
    21 C3     3s        -0.0385   -0.0516   -0.0178    0.0567    0.0423   -0.0143    0.0149   -0.0141    0.0022    0.0012
    22 C3     4s        -0.0051   -0.0111   -0.0022    0.0158    0.0104   -0.0048    0.0041   -0.0046    0.0022   -0.0016
    23 C3     2px        0.0233   -0.0551    0.0196   -0.0241   -0.0595    0.0199    0.0515   -0.1124   -0.2371    0.0611
    24 C3     3px        0.0121    0.0060    0.0160   -0.0278    0.0095    0.0259   -0.0124    0.0180    0.0333   -0.0087
    25 C3     4px        0.0072   -0.0035    0.0060   -0.0060   -0.0015    0.0035    0.0026   -0.0066   -0.0046    0.0017
    26 C3     2py       -0.0337   -0.0942    0.0172    0.0045   -0.0466   -0.0356   -0.1423    0.0012   -0.0412    0.2162
    27 C3     3py       -0.0051    0.0138   -0.0010   -0.0304    0.0111   -0.0274    0.0087    0.0137    0.0081   -0.0290
    28 C3     4py        0.0063   -0.0035    0.0034   -0.0105   -0.0075    0.0022   -0.0076    0.0084   -0.0024    0.0089
    29 C3     2pz       -0.0058    0.0094   -0.0212    0.0089    0.0364    0.0411   -0.0102    0.1048    0.1284   -0.1033
    30 C3     3pz        0.0163    0.0123   -0.0043   -0.0188   -0.0275    0.0235   -0.0078   -0.0149   -0.0176    0.0131
    31 C3     4pz       -0.0062    0.0092   -0.0023   -0.0089   -0.0063    0.0155   -0.0014    0.0060   -0.0011   -0.0004
    32 C3     3d2-       0.0012    0.0182    0.0032   -0.0034    0.0050   -0.0019    0.0047    0.0022    0.0131   -0.0178
    33 C3     3d1-       0.0049   -0.0031   -0.0045    0.0016    0.0002    0.0017    0.0005   -0.0013   -0.0086    0.0044
    34 C3     3d0        0.0002   -0.0103    0.0025    0.0018   -0.0084   -0.0023   -0.0015   -0.0106   -0.0185    0.0104
    35 C3     3d1+      -0.0024   -0.0040   -0.0011    0.0058    0.0083    0.0005   -0.0005    0.0091    0.0098   -0.0050
    36 C3     3d2+       0.0014   -0.0111    0.0008    0.0014   -0.0071   -0.0020   -0.0182   -0.0050   -0.0060    0.0172
    37 C4     1s        -0.0397    0.0075   -0.0063    0.0084    0.0150    0.0078    0.0035    0.0160    0.0029   -0.0024
    38 C4     2s         0.3580    0.0234    0.1291   -0.1051   -0.2286   -0.0492   -0.0450   -0.4014   -0.0837    0.0542
    39 C4     3s        -0.0069    0.0242    0.0081    0.0182    0.0129    0.0186    0.0059    0.0093    0.0037   -0.0019
    40 C4     4s         0.0022    0.0064    0.0025    0.0060    0.0040    0.0057    0.0014    0.0050    0.0034   -0.0022
    41 C4     2px        0.0609   -0.0397    0.0088    0.0424    0.0814   -0.0152   -0.0046   -0.0308    0.0997   -0.0600
    42 C4     3px       -0.0267    0.0006    0.0396   -0.0291    0.0255    0.0540   -0.0047   -0.0021   -0.0422    0.0290
    43 C4     4px        0.0150   -0.0076    0.0057    0.0021    0.0148    0.0053   -0.0024   -0.0039    0.0013    0.0000
    44 C4     2py       -0.0683   -0.0029    0.1682   -0.0283   -0.0620   -0.0774   -0.0216   -0.1005    0.0640    0.0063
    45 C4     3py        0.0588   -0.0377   -0.0373    0.0047    0.0460    0.0422   -0.0129    0.0207   -0.0316    0.0046
    46 C4     4py       -0.0198   -0.0040    0.0325   -0.0027   -0.0034   -0.0052   -0.0086   -0.0038    0.0036    0.0014
    47 C4     2pz       -0.0475    0.0318   -0.0616   -0.0563   -0.0893    0.0311    0.0102    0.0396   -0.1737    0.0847
    48 C4     3pz        0.0050   -0.0109   -0.0440    0.0308   -0.0203   -0.1033    0.0116   -0.0029    0.0681   -0.0417
    49 C4     4pz       -0.0138    0.0056   -0.0173   -0.0063   -0.0139   -0.0077    0.0038    0.0053   -0.0051   -0.0002
    50 C4     3d2-      -0.0253    0.0054    0.0161   -0.0007   -0.0001   -0.0013    0.0045   -0.0083    0.0066   -0.0091
    51 C4     3d1-       0.0110   -0.0047   -0.0236    0.0015    0.0044    0.0098   -0.0043    0.0144   -0.0107    0.0114
    52 C4     3d0       -0.0167    0.0045    0.0018   -0.0045   -0.0010    0.0101    0.0003   -0.0048   -0.0042   -0.0011
    53 C4     3d1+      -0.0140   -0.0018   -0.0009    0.0079    0.0096   -0.0072    0.0042    0.0134    0.0030   -0.0018
    54 C4     3d2+      -0.0245    0.0057   -0.0088   -0.0031    0.0053    0.0163   -0.0024    0.0047   -0.0022    0.0008
    55 C6     1s        -0.0087    0.0049   -0.0344   -0.0141   -0.0382   -0.0417    0.0060    0.0073    0.0059   -0.0060
    56 C6     2s         0.0269    0.0178    0.1570    0.0816    0.2513    0.3722   -0.0386   -0.1140   -0.0465    0.0451
    57 C6     3s        -0.0124    0.0238   -0.0599   -0.0229   -0.0736   -0.0664    0.0171    0.0119    0.0153   -0.0169
    58 C6     4s        -0.0001    0.0070   -0.0098   -0.0037   -0.0160   -0.0135    0.0045    0.0034    0.0039   -0.0045
    59 C6     2px       -0.0132   -0.0017   -0.0652   -0.0165   -0.0127    0.0233   -0.0273   -0.0886   -0.0346    0.0688
    60 C6     3px        0.0027   -0.0045    0.0125    0.0009    0.0102    0.0035   -0.0008    0.0050    0.0073   -0.0117
    61 C6     4px       -0.0022   -0.0003   -0.0012    0.0029    0.0079    0.0123   -0.0030   -0.0077   -0.0017    0.0032
    62 C6     2py       -0.0094    0.0018   -0.0134   -0.0036    0.0064    0.0188    0.0076    0.1042   -0.1131    0.0769
    63 C6     3py       -0.0002    0.0001    0.0050   -0.0000    0.0106    0.0132   -0.0038   -0.0018    0.0100   -0.0069
    64 C6     4py       -0.0007    0.0002    0.0025    0.0007    0.0041    0.0038    0.0017    0.0053   -0.0063    0.0040
    65 C6     2pz        0.0181    0.0090    0.0829    0.0155    0.0089   -0.0250    0.0265    0.0711    0.0694   -0.1031
    66 C6     3pz       -0.0014    0.0145   -0.0151   -0.0061   -0.0211    0.0007   -0.0014   -0.0045   -0.0120    0.0166
    67 C6     4pz        0.0030    0.0015    0.0008   -0.0027   -0.0119   -0.0154    0.0029    0.0073    0.0034   -0.0047
    68 C6     3d2-       0.0006    0.0002    0.0025   -0.0000   -0.0008   -0.0016   -0.0003   -0.0032    0.0022   -0.0017
    69 C6     3d1-      -0.0013    0.0003   -0.0028   -0.0007    0.0000    0.0015    0.0006    0.0080   -0.0069    0.0047
    70 C6     3d0        0.0022   -0.0002    0.0098    0.0016    0.0017   -0.0019    0.0020    0.0060    0.0027   -0.0054
    71 C6     3d1+      -0.0041    0.0005   -0.0198   -0.0046   -0.0064    0.0017   -0.0037   -0.0100   -0.0112    0.0148
    72 C6     3d2+       0.0010    0.0001    0.0083    0.0014    0.0014   -0.0015    0.0023    0.0112   -0.0017   -0.0021
    73 C19    1s         0.0010   -0.0094    0.0019   -0.0563    0.0423   -0.0216   -0.0130   -0.0032   -0.0092    0.0014
    74 C19    2s         0.0053    0.0050    0.0089    0.3005   -0.2734    0.1641    0.0779    0.0366    0.0964    0.0068
    75 C19    3s         0.0071   -0.0251    0.0121   -0.1119    0.0785   -0.0360   -0.0341   -0.0051   -0.0175    0.0104
    76 C19    4s         0.0029   -0.0029    0.0041   -0.0241    0.0176   -0.0079   -0.0096   -0.0016   -0.0054    0.0029
    77 C19    2px        0.0007    0.0257   -0.0015    0.0522   -0.0003   -0.0258   -0.0413   -0.0215   -0.0508    0.1266
    78 C19    3px       -0.0027    0.0006   -0.0013    0.0045    0.0034   -0.0014    0.0035    0.0049    0.0113   -0.0103
    79 C19    4px       -0.0014    0.0003   -0.0008   -0.0074    0.0114   -0.0084   -0.0013   -0.0031   -0.0058    0.0027
    80 C19    2py        0.0048    0.0084    0.0067    0.0487   -0.0117   -0.0165   -0.0674   -0.0314   -0.2027   -0.0649
    81 C19    3py        0.0062   -0.0040    0.0077   -0.0311    0.0187   -0.0034    0.0106   -0.0006    0.0215    0.0131
    82 C19    4py        0.0001    0.0008    0.0000   -0.0130    0.0145   -0.0101   -0.0133   -0.0015   -0.0086   -0.0019
    83 C19    2pz        0.0033   -0.0042    0.0007    0.0010    0.0008   -0.0002   -0.0072   -0.0029   -0.0032   -0.0032
    84 C19    3pz        0.0036   -0.0038    0.0013   -0.0032    0.0005    0.0017   -0.0005   -0.0029    0.0001    0.0005
    85 C19    4pz        0.0002    0.0005    0.0004   -0.0007   -0.0003    0.0002   -0.0004   -0.0002   -0.0004    0.0002
    86 C19    3d2-       0.0005    0.0060   -0.0003    0.0104   -0.0019   -0.0027   -0.0072   -0.0024   -0.0125   -0.0010
    87 C19    3d1-      -0.0001    0.0002    0.0001    0.0011   -0.0006    0.0000   -0.0007   -0.0002   -0.0010    0.0002
    88 C19    3d0       -0.0001   -0.0009    0.0000   -0.0088    0.0039    0.0006    0.0034    0.0023    0.0082   -0.0074
    89 C19    3d1+      -0.0001    0.0007    0.0001    0.0003   -0.0004    0.0001    0.0000   -0.0001   -0.0008   -0.0001
    90 C19    3d2+       0.0005    0.0019   -0.0002   -0.0080    0.0050   -0.0009    0.0039    0.0019    0.0145    0.0059
    91 N2     1s        -0.0059   -0.0414    0.0008   -0.0039   -0.0044    0.0016   -0.0040    0.0006    0.0022   -0.0004
    92 N2     2s         0.0536    0.5831   -0.0310   -0.0140    0.2053   -0.1228    0.1532   -0.0117    0.1226   -0.0469
    93 N2     3s        -0.0131   -0.0809   -0.0010   -0.0098    0.0028   -0.0030   -0.0083    0.0026    0.0106    0.0009
    94 N2     4s        -0.0034   -0.0259    0.0004   -0.0009   -0.0016    0.0007   -0.0033    0.0006   -0.0001    0.0006
    95 N2     2px        0.0116   -0.0344    0.0056   -0.1438   -0.0339    0.1180    0.3752   -0.0099   -0.0953   -0.2769
    96 N2     3px        0.0013   -0.0143    0.0077    0.0172    0.0433   -0.0604   -0.1001    0.0022   -0.0030    0.0607
    97 N2     4px        0.0028    0.0008    0.0017   -0.0069    0.0080   -0.0052    0.0024    0.0002   -0.0021    0.0063
    98 N2     2py       -0.0025   -0.0029    0.0036   -0.1231   -0.0449    0.1152   -0.2003    0.1505    0.2447   -0.1916
    99 N2     3py       -0.0126   -0.0462   -0.0025    0.0427    0.0486   -0.0592    0.0238   -0.0383   -0.0530    0.0275
   100 N2     4py        0.0000   -0.0121    0.0002   -0.0005    0.0047   -0.0050   -0.0083   -0.0024   -0.0014    0.0046
   101 N2     2pz       -0.0110   -0.0112    0.0037    0.0132   -0.0053   -0.0007   -0.0367    0.0281    0.0619   -0.0225
   102 N2     3pz       -0.0067    0.0259    0.0012    0.0093   -0.0064   -0.0040    0.0244   -0.0051   -0.0117    0.0035
   103 N2     4pz       -0.0018    0.0006    0.0001    0.0015   -0.0008    0.0003    0.0004    0.0006   -0.0014    0.0015
   104 N2     3d2-       0.0011    0.0075    0.0000   -0.0016   -0.0071    0.0085   -0.0062    0.0044    0.0062   -0.0027
   105 N2     3d1-      -0.0002    0.0005   -0.0005    0.0025    0.0025   -0.0024    0.0060   -0.0013   -0.0030    0.0012
   106 N2     3d0       -0.0015   -0.0161    0.0008    0.0014   -0.0036    0.0014    0.0013   -0.0010   -0.0036    0.0001
   107 N2     3d1+      -0.0007   -0.0007    0.0005    0.0019   -0.0005   -0.0012   -0.0068    0.0014    0.0034    0.0031
   108 N2     3d2+       0.0007    0.0050    0.0004    0.0104    0.0059   -0.0119   -0.0185   -0.0039   -0.0036    0.0143
   109 N5     1s        -0.0196    0.0004   -0.0427   -0.0014    0.0012    0.0028   -0.0016   -0.0034    0.0032   -0.0021
   110 N5     2s         0.1249   -0.0214    0.5777    0.0439   -0.0174   -0.2185    0.0686    0.1664    0.0927   -0.1061
   111 N5     3s        -0.0494    0.0011   -0.0802   -0.0029   -0.0041   -0.0136    0.0012   -0.0005    0.0147   -0.0113
   112 N5     4s        -0.0116    0.0013   -0.0265   -0.0018   -0.0022   -0.0014    0.0002   -0.0022    0.0017   -0.0010
   113 N5     2px        0.0218   -0.0159   -0.0054    0.0366    0.0856    0.0862   -0.0144   -0.0763    0.0907   -0.1000
   114 N5     3px        0.0074   -0.0188   -0.0230    0.0016   -0.0322   -0.0637    0.0004    0.0203   -0.0172    0.0211
   115 N5     4px       -0.0054   -0.0033   -0.0064    0.0031    0.0012   -0.0038   -0.0009   -0.0042    0.0015    0.0001
   116 N5     2py       -0.0353    0.0045   -0.0128    0.0211    0.0760    0.0588    0.0639    0.3835   -0.2145    0.0951
   117 N5     3py        0.0137   -0.0057    0.0265   -0.0011   -0.0031   -0.0079   -0.0085   -0.0994    0.0351   -0.0156
   118 N5     4py       -0.0027   -0.0023    0.0096    0.0037    0.0042   -0.0007    0.0003    0.0069   -0.0016    0.0022
   119 N5     2pz       -0.0022    0.0219    0.0145   -0.0497   -0.1436   -0.1204   -0.0014   -0.0500   -0.0552    0.0965
   120 N5     3pz       -0.0142    0.0267    0.0196    0.0195    0.0368    0.0747    0.0068    0.0096    0.0120   -0.0201
   121 N5     4pz        0.0064    0.0044    0.0035    0.0011   -0.0028    0.0036    0.0023    0.0028   -0.0006   -0.0010
   122 N5     3d2-      -0.0005    0.0004    0.0018   -0.0010   -0.0015    0.0023   -0.0021   -0.0110    0.0031   -0.0013
   123 N5     3d1-      -0.0030    0.0001   -0.0108    0.0018    0.0049    0.0028    0.0027    0.0150   -0.0042    0.0010
   124 N5     3d0       -0.0024    0.0010    0.0013    0.0003    0.0031    0.0069   -0.0004   -0.0002   -0.0009   -0.0010
   125 N5     3d1+       0.0002   -0.0001   -0.0143   -0.0020   -0.0050   -0.0043   -0.0008   -0.0052    0.0003    0.0016
   126 N5     3d2+      -0.0051    0.0015   -0.0072    0.0009    0.0061    0.0105    0.0007    0.0062   -0.0032   -0.0005
   127 O7     1s         0.0010    0.0026   -0.0007   -0.0043    0.0023    0.0003    0.0138   -0.0011    0.0138    0.0217
   128 O7     2s        -0.0700   -0.3010    0.0055   -0.2069    0.0610    0.0275    0.3524   -0.0325    0.2294    0.3511
   129 O7     3s        -0.0014   -0.0089   -0.0027   -0.0197    0.0105   -0.0007    0.0436   -0.0038    0.0386    0.0615
   130 O7     4s         0.0001   -0.0002   -0.0009   -0.0033    0.0026   -0.0009    0.0086   -0.0010    0.0076    0.0130
   131 O7     2px       -0.0088   -0.0019   -0.0034   -0.0014    0.0249   -0.0320   -0.1824    0.0219   -0.1066   -0.2371
   132 O7     3px       -0.0023    0.0013   -0.0042   -0.0087    0.0024    0.0034    0.0235   -0.0025    0.0094    0.0219
   133 O7     4px       -0.0004    0.0007   -0.0005   -0.0011   -0.0004    0.0014    0.0022   -0.0000    0.0004    0.0015
   134 O7     2py        0.0098    0.0387   -0.0027   -0.0341    0.0254    0.0016    0.1543   -0.0077    0.2576    0.4063
   135 O7     3py       -0.0046   -0.0010   -0.0031    0.0124   -0.0008   -0.0025   -0.0252   -0.0008   -0.0304   -0.0427
   136 O7     4py       -0.0011   -0.0014   -0.0007   -0.0009    0.0003    0.0009   -0.0031    0.0001   -0.0036   -0.0064
   137 O7     2pz       -0.0000    0.0019    0.0006    0.0017    0.0004   -0.0002    0.0018   -0.0012    0.0024    0.0097
   138 O7     3pz        0.0000    0.0021    0.0015    0.0011   -0.0004    0.0001    0.0008   -0.0015   -0.0015   -0.0011
   139 O7     4pz        0.0001    0.0004    0.0005    0.0002    0.0001   -0.0000    0.0004   -0.0006   -0.0000   -0.0001
   140 O7     3d2-       0.0015    0.0037   -0.0001    0.0007   -0.0017    0.0022    0.0120   -0.0009    0.0104    0.0190
   141 O7     3d1-      -0.0001   -0.0005    0.0000   -0.0002   -0.0001    0.0002    0.0001    0.0000   -0.0007   -0.0011
   142 O7     3d0        0.0010    0.0042   -0.0002    0.0014    0.0001   -0.0002    0.0051   -0.0007    0.0060    0.0119
   143 O7     3d1+       0.0000    0.0000    0.0000    0.0003    0.0000   -0.0000    0.0003   -0.0001    0.0003    0.0004
   144 O7     3d2+       0.0006    0.0046   -0.0003   -0.0025    0.0046   -0.0031   -0.0020    0.0007    0.0101    0.0113
   145 O8     1s        -0.0234    0.0019    0.0035    0.0007    0.0031    0.0001    0.0011    0.0126    0.0022    0.0007
   146 O8     2s         0.6725   -0.1430   -0.3216    0.1050    0.1528    0.0033    0.0049    0.3528    0.0430    0.0341
   147 O8     3s        -0.0289   -0.0048   -0.0104    0.0054    0.0138   -0.0005    0.0011    0.0460    0.0069    0.0030
   148 O8     4s        -0.0125   -0.0007   -0.0004    0.0001    0.0017   -0.0005   -0.0007    0.0097    0.0015    0.0008
   149 O8     2px       -0.0485    0.0022    0.0286    0.0087    0.0042   -0.0178   -0.0101    0.0540    0.0634   -0.0047
   150 O8     3px        0.0187   -0.0026   -0.0033   -0.0010   -0.0080   -0.0059    0.0015   -0.0119   -0.0050   -0.0023
   151 O8     4px        0.0003   -0.0007   -0.0020    0.0003    0.0004   -0.0005    0.0007   -0.0009   -0.0014   -0.0005
   152 O8     2py        0.1277   -0.0263   -0.0234    0.0047   -0.0178   -0.0255   -0.0285   -0.1884    0.0441   -0.0477
   153 O8     3py       -0.0374    0.0016    0.0003    0.0051    0.0051    0.0002    0.0017    0.0272    0.0013    0.0028
   154 O8     4py       -0.0011   -0.0008    0.0007    0.0002   -0.0010    0.0010   -0.0016    0.0036   -0.0003    0.0010
   155 O8     2pz        0.0432    0.0045   -0.0251   -0.0223   -0.0209    0.0338    0.0106   -0.0327   -0.1011    0.0291
   156 O8     3pz       -0.0092    0.0056    0.0056   -0.0014    0.0057    0.0116   -0.0035    0.0088    0.0067    0.0006
   157 O8     4pz        0.0006    0.0019    0.0026   -0.0009   -0.0003    0.0014   -0.0009    0.0013    0.0024   -0.0005
   158 O8     3d2-      -0.0125    0.0018    0.0051   -0.0003   -0.0002   -0.0007    0.0003    0.0052    0.0018    0.0006
   159 O8     3d1-       0.0087   -0.0008   -0.0038   -0.0013   -0.0015    0.0022   -0.0002   -0.0036   -0.0056    0.0016
   160 O8     3d0       -0.0080    0.0015    0.0013   -0.0013   -0.0005    0.0020    0.0008    0.0048   -0.0035    0.0021
[...]
AIVX     1  Mu1.0001  In1.025 Se1.046               0.17858912      0.00071065     -0.00110445     -0.00000078
AIVX     1  Mu1.0001  In1.026 Se1.046               0.25329967     -0.00010343      0.00034222     -0.00000004
AIVX     1  Mu1.0001  In1.027 Se1.046               0.22839595     -0.00015100      0.00001687     -0.00000000
AIVX     1  Mu1.0001  In1.028 Se1.046               0.01724029     -0.00012709      0.00042380     -0.00000005
AIVX     1  Mu1.0001  In1.029 Se1.046               0.05839463      0.00007803     -0.00000306     -0.00000000
AIVX     1  Mu1.0001  In1.018 Se1.047               0.25863589     -0.00035708      0.00032990     -0.00000012
AIVX     1  Mu1.0001  In1.021 Se1.047               0.20599585     -0.00071839      0.00121053     -0.00000087
AIVX     1  Mu1.0001  In1.022 Se1.047               0.10678910     -0.00006144     -0.00006063      0.00000000
AIVX     1  Mu1.0001  In1.023 Se1.047               0.29994090      0.00106286     -0.00198353     -0.00000211
AIVX     1  Mu1.0001  In1.024 Se1.047               0.12160094     -0.00011216      0.00009956     -0.00000001
AIVX     1  Mu1.0001  In1.025 Se1.047               0.18939040      0.00058396     -0.00118645     -0.00000069
AIVX     1  Mu1.0001  In1.026 Se1.047               0.26410095      0.00002747      0.00001228      0.00000000
AIVX     1  Mu1.0001  In1.027 Se1.047               0.23919723      0.00109210     -0.00195743     -0.00000214
AIVX     1  Mu1.0001  In1.028 Se1.047               0.02804157      0.00008142     -0.00036203     -0.00000003
AIVX     1  Mu1.0001  In1.029 Se1.047               0.06919591      0.00000245      0.00000126      0.00000000
AIVX     1  Mu1.0001  In1.021 Se1.048               0.24761612     -0.00056864      0.00094989     -0.00000054
AIVX     1  Mu1.0001  In1.022 Se1.048               0.14840938     -0.00020245      0.00020833     -0.00000004
AIVX     1  Mu1.0001  In1.024 Se1.048               0.16322121     -0.00009907      0.00007425     -0.00000001
AIVX     1  Mu1.0001  In1.025 Se1.048               0.23101067      0.00006439      0.00005498      0.00000000
AIVX     1  Mu1.0001  In1.027 Se1.048               0.28081750     -0.00009689     -0.00010324      0.00000001
AIVX     1  Mu1.0001  In1.028 Se1.048               0.06966184      0.00010509     -0.00046987     -0.00000005
AIVX     1  Mu1.0001  In1.029 Se1.048               0.11081618      0.00011118     -0.00029700     -0.00000003
AIVX     1  Mu1.0001  In1.021 Se1.049               0.24881322      0.00034959     -0.00044265     -0.00000015
AIVX     1  Mu1.0001  In1.022 Se1.049               0.14960648      0.00023313     -0.00040477     -0.00000009
AIVX     1  Mu1.0001  In1.024 Se1.049               0.16441831      0.00000409      0.00001363      0.00000000
AIVX     1  Mu1.0001  In1.025 Se1.049               0.23220777      0.00009383     -0.00004616     -0.00000000
AIVX     1  Mu1.0001  In1.027 Se1.049               0.28201460     -0.00052689      0.00071251     -0.00000038
AIVX     1  Mu1.0001  In1.028 Se1.049               0.07085894     -0.00029448      0.00048863     -0.00000014
AIVX     1  Mu1.0001  In1.029 Se1.049               0.11201328     -0.00026392      0.00040853     -0.00000011
AIVX     1  Mu1.0001  In1.021 Se1.050               0.28529044     -0.00022145      0.00060965     -0.00000014
AIVX     1  Mu1.0001  In1.022 Se1.050               0.18608369      0.00008675     -0.00023606     -0.00000002
AIVX     1  Mu1.0001  In1.024 Se1.050               0.20089553      0.00003222     -0.00014396     -0.00000000
AIVX     1  Mu1.0001  In1.025 Se1.050               0.26868499      0.00112038     -0.00163260     -0.00000183
AIVX     1  Mu1.0001  In1.028 Se1.050               0.10733615     -0.00010889      0.00015784     -0.00000002
AIVX     1  Mu1.0001  In1.029 Se1.050               0.14849050     -0.00040653      0.00047770     -0.00000019
AIVX     1  Mu1.0001  In1.021 Se1.051               0.27753310      0.00008666      0.00024248      0.00000002
AIVX     1  Mu1.0001  In1.022 Se1.051               0.17832635      0.00043480     -0.00009518     -0.00000004
AIVX     1  Mu1.0001  In1.024 Se1.051               0.19313819      0.00010029     -0.00000667     -0.00000000
AIVX     1  Mu1.0001  In1.025 Se1.051               0.26092765     -0.00069567      0.00077878     -0.00000054
AIVX     1  Mu1.0001  In1.028 Se1.051               0.09957881      0.00026131     -0.00055923     -0.00000015
AIVX     1  Mu1.0001  In1.029 Se1.051               0.14073316      0.00001953     -0.00022921     -0.00000000
AIVX     1  Mu1.0001  In1.022 Se1.052               0.23456722      0.00054024     -0.00069009     -0.00000037
AIVX     1  Mu1.0001  In1.024 Se1.052               0.24937905      0.00002020      0.00001941      0.00000000
AIVX     1  Mu1.0001  In1.028 Se1.052               0.15581968      0.00016793     -0.00037798     -0.00000006
AIVX     1  Mu1.0001  In1.029 Se1.052               0.19697402     -0.00023567      0.00038192     -0.00000009
AIVX     1  Mu1.0001  In1.022 Se1.053               0.20767857     -0.00016754     -0.00010624      0.00000002
AIVX     1  Mu1.0001  In1.024 Se1.053               0.22249041     -0.00003215      0.00005343     -0.00000000
AIVX     1  Mu1.0001  In1.025 Se1.053               0.29027987     -0.00042259      0.00095286     -0.00000040
AIVX     1  Mu1.0001  In1.028 Se1.053               0.12893104      0.00005862     -0.00027967     -0.00000002
AIVX     1  Mu1.0001  In1.029 Se1.053               0.17008538      0.00016699     -0.00031482     -0.00000005
AIVX     1  Mu1.0001  In1.022 Se1.054               0.23353371     -0.00018929      0.00048747     -0.00000009
AIVX     1  Mu1.0001  In1.024 Se1.054               0.24834554     -0.00006496      0.00012282     -0.00000001
AIVX     1  Mu1.0001  In1.028 Se1.054               0.15478617     -0.00025361      0.00058146     -0.00000015
AIVX     1  Mu1.0001  In1.029 Se1.054               0.19594051     -0.00015480      0.00006991     -0.00000001
AIVX     1  Mu1.0001  In1.022 Se1.055               0.27336161      0.00004913     -0.00035462     -0.00000002
AIVX     1  Mu1.0001  In1.024 Se1.055               0.28817344     -0.00007378     -0.00001607      0.00000000
AIVX     1  Mu1.0001  In1.028 Se1.055               0.19461407     -0.00003448     -0.00012585      0.00000000
AIVX     1  Mu1.0001  In1.029 Se1.055               0.23576841     -0.00016403      0.00040741     -0.00000007
AIVX     1  Mu1.0001  In1.028 Se1.056               0.22352166      0.00022851     -0.00076570     -0.00000017
AIVX     1  Mu1.0001  In1.029 Se1.056               0.26467600      0.00056961     -0.00091162     -0.00000052
AIVX     1  Mu1.0001  In1.022 Se1.057               0.26683435      0.00011201      0.00001543      0.00000000
AIVX     1  Mu1.0001  In1.024 Se1.057               0.28164618      0.00000937     -0.00005214     -0.00000000
AIVX     1  Mu1.0001  In1.028 Se1.057               0.18808681     -0.00006603      0.00023723     -0.00000002
AIVX     1  Mu1.0001  In1.029 Se1.057               0.22924115     -0.00017829      0.00021650     -0.00000004
AIVX     1  Mu1.0001  In1.022 Se1.058               0.25291401     -0.00045149      0.00051427     -0.00000023
AIVX     1  Mu1.0001  In1.024 Se1.058               0.26772584     -0.00013619      0.00023658     -0.00000003
AIVX     1  Mu1.0001  In1.028 Se1.058               0.17416647      0.00007236     -0.00014834     -0.00000001
AIVX     1  Mu1.0001  In1.029 Se1.058               0.21532081      0.00008748     -0.00029305     -0.00000003
AIVX     1  Mu1.0001  In1.022 Se1.059               0.29472190     -0.00085266      0.00114347     -0.00000097
AIVX     1  Mu1.0001  In1.028 Se1.059               0.21597436      0.00037763     -0.00060303     -0.00000023
AIVX     1  Mu1.0001  In1.029 Se1.059               0.25712870      0.00072550     -0.00118339     -0.00000086
AIVX     1  Mu1.0001  In1.028 Se1.060               0.24854763     -0.00002623      0.00022136     -0.00000001
AIVX     1  Mu1.0001  In1.029 Se1.060               0.28970197     -0.00006755      0.00000202     -0.00000000
AIVX     1  Mu1.0001  In1.028 Se1.061               0.27637816      0.00006571     -0.00010075     -0.00000001
AIVX     1  Mu1.0001  In1.028 Se1.062               0.23655232      0.00002220      0.00013703      0.00000000
AIVX     1  Mu1.0001  In1.029 Se1.062               0.27770667     -0.00008391      0.00015636     -0.00000001
AIVX     1  Mu1.0001  In1.028 Se1.209               0.29121227     -0.00016225      0.00040544     -0.00000007
--
 
   (Skipping property calculation,
    use PROP keyword to activate)
--
 
  Total CASPT2 energies:
::    CASPT2 Root  1     Total energy:   -455.20787376
::    CASPT2 Root  2     Total energy:   -455.01377439
::    CASPT2 Root  3     Total energy:   -454.99279708
::    CASPT2 Root  4     Total energy:   -454.93998852
::    CASPT2 Root  5     Total energy:   -454.93018795
::    CASPT2 Root  6     Total energy:   -454.93904501
::    CASPT2 Root  7     Total energy:   -454.90714303
 
++ Multi-State CASPT2 section:
********************************************************************************
  MULTI-STATE CASPT2 SECTION
--------------------------------------------------------------------------------
 
  Output diagonal energies have been shifted. Add   -455.000000000000     
 
  Effective Hamiltonian matrix (Symmetric):
 
                1               2               3               4               5
   1        -0.20787376
   2         0.00026572     -0.01377439
   3         0.00054199      0.00002648      0.00720292
   4        -0.00223809      0.00007020      0.00107784      0.06001148
   5        -0.00845812      0.00065573     -0.00043056     -0.00839400      0.06981205
   6         0.01253678     -0.00121414     -0.00054234     -0.00126765      0.00708919
   7        -0.00482818     -0.00033252     -0.00131307      0.00035510     -0.00139872
 
                6               7
   6         0.06095499
   7         0.00444408      0.09285697
 
       Total MS-CASPT2 energies:
::    MS-CASPT2 Root  1     Total energy:   -455.20884332
::    MS-CASPT2 Root  2     Total energy:   -455.01380053
::    MS-CASPT2 Root  3     Total energy:   -454.99284242
::    MS-CASPT2 Root  4     Total energy:   -454.94562644
::    MS-CASPT2 Root  5     Total energy:   -454.94069678
::    MS-CASPT2 Root  6     Total energy:   -454.92253072
::    MS-CASPT2 Root  7     Total energy:   -454.90646952
 
       Eigenvectors:
            0.99817732      0.00278328      0.00264019     -0.04488455      0.03863710
           -0.00173652      0.99981487      0.00070128      0.01303382     -0.01321788
           -0.00250269     -0.00085875      0.99965443      0.01390971      0.00695128
            0.00906866     -0.00161574     -0.01954932      0.71499117      0.55533140
            0.03186332     -0.00908052      0.00412346      0.55890345     -0.09093606
           -0.04746670      0.01645450      0.00721503     -0.41334605      0.81793073
            0.01679751      0.00243317      0.01524219      0.05640579     -0.11229934
 
           -0.00413096     -0.01013925
            0.00066601     -0.00465592
           -0.01398891     -0.01570132
           -0.42403484      0.01104942
            0.82329507     -0.02068970
            0.37611876      0.12685880
           -0.02647957      0.99145634
 
--
 
  THE ORIGINAL CI ARRAYS ARE NOW MIXED AS LINEAR
  COMBINATIONS, GIVEN BY THE EIGENVECTORS.
  A NEW JOBIPH FILE NAMED 'JOBMIX' IS PREPARED.
********************************************************************************
 
++ Mixed CI coefficients:
  The CI coefficients for the MIXED state nr.   1
--------------------------------------------------------------------------------
 CI COEFFICIENTS LARGER THAN  0.50D-01
  Occupation of active orbitals, and spin coupling
  of open shells. (u,d: Spin up or down).
  SGUGA info is (Midvert:IsyUp:UpperWalk/LowerWalk)
        Conf  SGUGA info        Occupation    Coefficient         Weight
           1  ( 1:1:   1/   1)   22222200        0.971417       0.943650
           6  ( 1:1:   6/   1)   22220220       -0.077274       0.005971
           7  ( 1:1:   7/   1)   22222u0d       -0.076381       0.005834
          15  ( 1:1:  15/   1)   22222002       -0.089354       0.007984
          64  ( 2:1:   4/   3)   2u22220d       -0.079124       0.006261
          81  ( 2:1:   1/   4)   u22222d0        0.101710       0.010345
         175  ( 3:1:   5/   8)   20222202       -0.093586       0.008758
         191  ( 3:1:   1/  10)   02222220       -0.074575       0.005561
 
  The CI coefficients for the MIXED state nr.   2
--------------------------------------------------------------------------------
 CI COEFFICIENTS LARGER THAN  0.50D-01
  Occupation of active orbitals, and spin coupling
  of open shells. (u,d: Spin up or down).
  SGUGA info is (Midvert:IsyUp:UpperWalk/LowerWalk)
        Conf  SGUGA info        Occupation    Coefficient         Weight
           7  ( 1:1:   7/   1)   22222u0d       -0.060292       0.003635
          24  ( 2:1:   4/   1)   222u220d        0.962500       0.926407
          32  ( 2:1:  12/   1)   222u022d       -0.073618       0.005420
          33  ( 2:1:  13/   1)   222u2d02        0.097073       0.009423
         125  ( 3:1:   5/   3)   2u2d2202        0.185623       0.034456
         213  ( 4:1:   1/   3)   u22u22dd       -0.081533       0.006648
         269  ( 5:1:   1/   9)   022u222d        0.075172       0.005651
 
  The CI coefficients for the MIXED state nr.   3
--------------------------------------------------------------------------------
 CI COEFFICIENTS LARGER THAN  0.50D-01
  Occupation of active orbitals, and spin coupling
  of open shells. (u,d: Spin up or down).
  SGUGA info is (Midvert:IsyUp:UpperWalk/LowerWalk)
        Conf  SGUGA info        Occupation    Coefficient         Weight
           2  ( 1:1:   2/   1)   22222ud0       -0.189681       0.035979
          21  ( 2:1:   1/   1)   222u22d0        0.102864       0.010581
          41  ( 2:1:   1/   2)   22u222d0        0.930085       0.865057
          43  ( 2:1:   3/   2)   22u2d220       -0.151487       0.022948
          45  ( 2:1:   5/   2)   22u22dud       -0.063522       0.004035
          47  ( 2:1:   7/   2)   22u22udd        0.115915       0.013436
          55  ( 2:1:  15/   2)   22u220d2        0.077582       0.006019
         161  ( 3:1:   1/   7)   u2d22220       -0.117677       0.013848
         219  ( 4:1:   1/   4)   2uu222dd       -0.067475       0.004553
         222  ( 4:1:   4/   4)   2uu22dd2       -0.054867       0.003010
         294  ( 5:1:   2/  15)   20u222d2       -0.096981       0.009405
 
  The CI coefficients for the MIXED state nr.   4
--------------------------------------------------------------------------------
 CI COEFFICIENTS LARGER THAN  0.50D-01
  Occupation of active orbitals, and spin coupling
  of open shells. (u,d: Spin up or down).
  SGUGA info is (Midvert:IsyUp:UpperWalk/LowerWalk)
        Conf  SGUGA info        Occupation    Coefficient         Weight
           1  ( 1:1:   1/   1)   22222200        0.052412       0.002747
           2  ( 1:1:   2/   1)   22222ud0        0.153476       0.023555
           3  ( 1:1:   3/   1)   2222u2d0       -0.709862       0.503905
           7  ( 1:1:   7/   1)   22222u0d        0.587738       0.345436
          12  ( 1:1:  12/   1)   2222uudd       -0.073970       0.005472
          15  ( 1:1:  15/   1)   22222002       -0.110917       0.012303
          18  ( 1:1:  18/   1)   2222u0d2       -0.059670       0.003561
          41  ( 2:1:   1/   2)   22u222d0        0.072277       0.005224
          68  ( 2:1:   8/   3)   2u22u2dd        0.054910       0.003015
          73  ( 2:1:  13/   3)   2u222d02        0.153107       0.023442
          81  ( 2:1:   1/   4)   u22222d0        0.075597       0.005715
          83  ( 2:1:   3/   4)   u222d220        0.166524       0.027730
          87  ( 2:1:   7/   4)   u2222udd       -0.059400       0.003528
         175  ( 3:1:   5/   8)   20222202        0.068493       0.004691
         177  ( 3:1:   7/   8)   2022u2d2        0.073527       0.005406
 
  The CI coefficients for the MIXED state nr.   5
--------------------------------------------------------------------------------
 CI COEFFICIENTS LARGER THAN  0.50D-01
  Occupation of active orbitals, and spin coupling
  of open shells. (u,d: Spin up or down).
  SGUGA info is (Midvert:IsyUp:UpperWalk/LowerWalk)
        Conf  SGUGA info        Occupation    Coefficient         Weight
           2  ( 1:1:   2/   1)   22222ud0        0.229858       0.052835
           3  ( 1:1:   3/   1)   2222u2d0       -0.563522       0.317557
           7  ( 1:1:   7/   1)   22222u0d       -0.710665       0.505045
          12  ( 1:1:  12/   1)   2222uudd       -0.054893       0.003013
          14  ( 1:1:  14/   1)   22220u2d       -0.060297       0.003636
          15  ( 1:1:  15/   1)   22222002        0.136811       0.018717
          18  ( 1:1:  18/   1)   2222u0d2       -0.053121       0.002822
          41  ( 2:1:   1/   2)   22u222d0        0.068297       0.004664
          73  ( 2:1:  13/   3)   2u222d02       -0.185513       0.034415
          83  ( 2:1:   3/   4)   u222d220        0.143542       0.020604
          87  ( 2:1:   7/   4)   u2222udd        0.066089       0.004368
         175  ( 3:1:   5/   8)   20222202       -0.084707       0.007175
         177  ( 3:1:   7/   8)   2022u2d2        0.053803       0.002895
         193  ( 3:1:   3/  10)   02222u2d       -0.050379       0.002538
 
  The CI coefficients for the MIXED state nr.   6
--------------------------------------------------------------------------------
 CI COEFFICIENTS LARGER THAN  0.50D-01
  Occupation of active orbitals, and spin coupling
  of open shells. (u,d: Spin up or down).
  SGUGA info is (Midvert:IsyUp:UpperWalk/LowerWalk)
        Conf  SGUGA info        Occupation    Coefficient         Weight
           2  ( 1:1:   2/   1)   22222ud0       -0.890264       0.792569
           3  ( 1:1:   3/   1)   2222u2d0       -0.276803       0.076620
           7  ( 1:1:   7/   1)   22222u0d       -0.077849       0.006061
          41  ( 2:1:   1/   2)   22u222d0       -0.167971       0.028214
          65  ( 2:1:   5/   3)   2u222dud       -0.143450       0.020578
          67  ( 2:1:   7/   3)   2u222udd        0.197921       0.039173
          83  ( 2:1:   3/   4)   u222d220        0.053591       0.002872
         176  ( 3:1:   6/   8)   20222ud2        0.129897       0.016873
 
  The CI coefficients for the MIXED state nr.   7
--------------------------------------------------------------------------------
 CI COEFFICIENTS LARGER THAN  0.50D-01
  Occupation of active orbitals, and spin coupling
  of open shells. (u,d: Spin up or down).
  SGUGA info is (Midvert:IsyUp:UpperWalk/LowerWalk)
        Conf  SGUGA info        Occupation    Coefficient         Weight
           2  ( 1:1:   2/   1)   22222ud0        0.062908       0.003957
          21  ( 2:1:   1/   1)   222u22d0        0.902816       0.815077
          25  ( 2:1:   5/   1)   222u2dud        0.220571       0.048652
          27  ( 2:1:   7/   1)   222u2udd       -0.310401       0.096349
          41  ( 2:1:   1/   2)   22u222d0       -0.088044       0.007752
         210  ( 4:1:   4/   2)   2u2u2dd2        0.077704       0.006038
         262  ( 5:1:   2/   7)   202u22d2       -0.084868       0.007203
 
--
 
--- Stop Module: caspt2 at Wed Nov 13 20:41:46 2024 /rc=_RC_ALL_IS_WELL_ ---
*** files: xmldump
    saved to directory /home/pcaah4
--- Module caspt2 spent 6 minutes 53 seconds ---

.##################.
.# Happy landing! #.
.##################.

    Timing: Wall=669.58 User=583.89 System=76.78
******************************************************
*** WorkDir at /srv/COMMUNAL_SCRATCH/10397 cleaned ***
******************************************************
