   This run of MOLCAS is using the pymolcas driver

                             OPE
                             OPE          NMOL  CASOP  ENMOLC A   SO
                 OPE        NMOLC        AS  OP EN  MO LC     AS  OP
                OPENM       OL CA        SO  PE NM  OL CA     SOP EN
                OP EN      MO   LC       AS  OP ENMOL  CASO   PENMOL
                OP  EN     MO   LC       AS  OP EN     MO     LC ASO
               OP   E  NMOL  C  AS       OP  EN MO     LC     AS  OP
               OP  E   NMO   LC AS        OPEN  MO     LCASOP EN   M
               O  PEN   MO  LCA  SO
            OPE   NMO   L   CAS    OP
        OPENMOL  CASOP     ENMOL   CASOPE
     OPENMOLCA   SOPENMOLCASOPEN   MOLCASOPE
    OPENMOLCAS   OP           EN   MOL    CAS
    OPENMOLCAS       OP  ENM        O     LCA
    OPENMOLCAS    OPEN  MOLCASO     P  E  NMO
    OPENMOLCAS     OP               E  N  MOL
    OPENMOLCA   SO           PENM   O  L  CAS    OPEN    MO    LCAS
    OPENMOLCA   SOP           ENM   O  L  CAS   OP  EN  MOLC  AS   O
    OPENMOLCA   SOPE           NM      O  LCA   S      OP  EN MO
    OPENMOLC                AS         O  PEN   M      OL  CA  SOPE
    OPENMO        LCASOPE  NMOL        C  ASO   P      ENMOLC     AS
    OPE     NMO      LCA  SO     P     E   NM   OL  CA SO  PE N   MO
          OPENMOLCA            SOPE   NMO        LCAS  O    P  ENMO
     OPENMOLCASOPENMOLCASOPENMOLCASOPENMOLCA
        OPENMOLCASOPENMOLCASOPENMOLCASOPE
            OPENMOLCASOPENMOLCASOPENM
               OPENMOLCASOPENMOLCA        version: v23.06
                   OPENMOLCASO
                       OPE                tag:

 OpenMolcas is free software; you can redistribute it and/or modify it
 under the terms of the GNU Lesser General Public License version 2.1.
 OpenMolcas is distributed in the hope that it will be useful, but it
 is provided "as is" and without any express or implied warranties.
 For more details see the full text of the license in the file
 LICENSE or in <http://www.gnu.org/licenses/>.

                 Copyright (C) The OpenMolcas Authors
           For the author list and the recommended citation,
                   consult the file CONTRIBUTORS.md

           *************************************************
           * pymolcas version py2.24                       *
           *   build 4567b286dd94b1984b333a4ddf893180      *
           *   (after the EMIL interpreter by V. Veryazov) *
           *************************************************

configuration info
------------------
Host name: loginchem01.nottingham.ac.uk (Linux)
C Compiler ID: Intel
C flags: -std=gnu99 -gcc-sys -qopenmp
Fortran Compiler ID: Intel
Fortran flags: -fpp -i8 -heap-arrays -qopenmp
Definitions: _MOLCAS_;_I8_;_LINUX_
Parallel: OFF (GA=OFF)


   ------------------------------------------------------------------------------------------------------------
  |
  |              Project: orca_geometry_optimisation_240_120_BP86_def2-SVP_def2J_scf_cas1_ras12i11_cas2_ras12i8
  |       Submitted from: /home/pcaah4
  |         Scratch area: /srv/COMMUNAL_SCRATCH/10407
  |      Save outputs to: /home/pcaah4
  |               Molcas: /software/chemistry/openmolcas/openmolcas-23.06-openmp
  |
  | Scratch area is empty
  |
  |       MOLCAS_DRIVER = /software/chemistry/openmolcas/openmolcas-23.06-openmp/sbin/pymolcas
  | MOLCAS_KEEP_WORKDIR = NO
  |       MOLCAS_NPROCS = 1
  |       MOLCAS_SOURCE = /software/chemistry/openmolcas/openmolcas-23.06-openmp
  |    MOLCAS_STRUCTURE = 0
  |
   ------------------------------------------------------------------------------------------------------------

++ ---------   Input file   ---------

&SEWARD
TITLE
orca_geometry_optimisation_240_120_BP86_def2-SVP_def2J_scf_cas1_ras12i11
MULTIPOLES
2
SDIPOLE
ANGMOM
0 0 0
BASIS SET
C.ANO-S...4S3P1D.
C1           -0.011831   -0.027483    0.029299 /Angstrom
C3            2.085982    1.284478   -0.014567 /Angstrom
C4            3.007057    1.277522   -1.245125 /Angstrom
C6            3.523809    2.386265   -3.396782 /Angstrom
C19          -0.601021   -1.433473    0.037001 /Angstrom
END OF BASIS
BASIS SET
N.ANO-S...4S3P1D.
N2            1.363908    0.028738    0.064073 /Angstrom
N5            2.764193    2.261262   -2.166373 /Angstrom
END OF BASIS
BASIS SET
O.ANO-S...4S3P1D.
O7           -0.717571    0.981166    0.009155 /Angstrom
O8            3.870076    0.407652   -1.377484 /Angstrom
END OF BASIS
BASIS SET
H.ANO-S...2S1P.
H9           -1.256261   -1.538576    0.924564 /Angstrom
H10          -1.246746   -1.553040   -0.855598 /Angstrom
H11           0.156083   -2.241919    0.048876 /Angstrom
H12           1.921204   -0.824225   -0.020438 /Angstrom
H13           1.318956    2.084455   -0.033961 /Angstrom
H14           2.728009    1.431757    0.882659 /Angstrom
H15           1.997396    2.911054   -1.986934 /Angstrom
H16           2.874371    2.274065   -4.290979 /Angstrom
H17           4.045678    3.364853   -3.460270 /Angstrom
H18           4.276953    1.575567   -3.397682 /Angstrom
END OF BASIS
END OF INPUT

&RASSCF
TITLE
orca_geometry_optimisation_240_120_BP86_def2-SVP_def2J_scf_cas1_ras12i11
LUMORB
SPIN
1
SYMMETRY
1
NACTEL
12  0  0
INACTIVE
29
DELETED  ! delete Rydberg orbitals from an initial CAS(12,11) if done
3
FROZEN
0
RAS2
8
ITERATIONS
64 25
CIROOT
7 7
1 2 3 4 5 6 7
1 1 1 1 1 1 1
LEVSHFT
0.3
CIMX
20
FILEorb = /home/pcaah4/outputs/cas1_ras12i11_rasorb_files/orca_geometry_optimisation_240_120_BP86_def2-SVP_def2J_scf_cas1_ras12i11.RasOrb
ALTEr
3
 1 38 210
 1 39 211
 1 40 212
END OF INPUT

&RASSI
NROF JOBIPH
    1 7
    1 2 3 5 4 6 7
TOFILE
TRDI
TDMN
1.0D-6
END OF INPUT

&CASPT2
TITLE
orca_geometry_optimisation_240_120_BP86_def2-SVP_def2J_scf_cas1_ras12i11
MULTISTATE
7 1 2 3 4 5 6 7
SHIFT
0.35
MAXITER
50
END OF INPUT

-- ----------------------------------

--- Start Module: seward at Wed Nov 13 21:00:34 2024 ---
 
()()()()()()()()()()()()()()()()()()()()()()()()()()()()()()()()()()()()()()()()()()()()()()()()()()

                                              &SEWARD

                                   only a single process is used
                       available to each process: 2.0 GB of memory, 1 thread
                                            pid: 1804058
()()()()()()()()()()()()()()()()()()()()()()()()()()()()()()()()()()()()()()()()()()()()()()()()()()
 
               SEWARD will generate:
                  Multipole Moment integrals up to order  2
                  Kinetic Energy integrals
                  Nuclear Attraction integrals (point charge)
                  One-Electron Hamiltonian integrals
                  Velocity integrals
                  Orbital angular momentum around ( 0.0000  0.0000  0.0000 )
                  Velocity quadrupole around ( 3.2140  1.5061 -1.7244 )
                  Two-Electron Repulsion integrals
 
 Title:
            orca_geometry_optimisation_240_120_BP86_def2-SVP_def2J_scf_cas1_ras12i11    
 
 
                   Integrals are discarded if absolute value <: 0.10E-13
                   Integral cutoff threshold is set to       <: 0.10E-15
 
++    Symmetry information:
      ---------------------
 
                    Character Table for C1 
 
                             E  
                    a        1  x, y, xy, Rz, z, xz, Ry, yz, Rx, I
--
 
 
++    Basis set information:
      ----------------------
 
 
      Basis set label: C.ANO-S...4S3P1D......
 
      Electronic valence basis set:
      ------------------
      Associated Effective Charge   6.000000 au
      Associated Actual Charge      6.000000 au
      Nuclear Model: Point charge
 
      Shell  nPrim  nBasis  Cartesian Spherical Contaminant
         s      10       4        X                  
         p       6       3        X                  
         d       3       1                 X         
 
 
      Basis set label: N.ANO-S...4S3P1D......
 
      Electronic valence basis set:
      ------------------
      Associated Effective Charge   7.000000 au
      Associated Actual Charge      7.000000 au
      Nuclear Model: Point charge
 
      Shell  nPrim  nBasis  Cartesian Spherical Contaminant
         s      10       4        X                  
         p       6       3        X                  
         d       3       1                 X         
 
 
      Basis set label: O.ANO-S...4S3P1D......
 
      Electronic valence basis set:
      ------------------
      Associated Effective Charge   8.000000 au
      Associated Actual Charge      8.000000 au
      Nuclear Model: Point charge
 
      Shell  nPrim  nBasis  Cartesian Spherical Contaminant
         s      10       4        X                  
         p       6       3        X                  
         d       3       1                 X         
 
 
      Basis set label: H.ANO-S...2S1P......
 
      Electronic valence basis set:
      ------------------
      Associated Effective Charge   1.000000 au
      Associated Actual Charge      1.000000 au
      Nuclear Model: Point charge
 
      Shell  nPrim  nBasis  Cartesian Spherical Contaminant
         s       7       2        X                  
         p       3       1        X                  
--
 
 
++    Molecular structure info:
      -------------------------
 
                    ************************************************ 
                    **** Cartesian Coordinates / Bohr, Angstrom **** 
                    ************************************************ 
 
     Center  Label                x              y              z                     x              y              z
        1      C1              -0.022357      -0.051935       0.055367             -0.011831      -0.027483       0.029299
        2      C3               3.941935       2.427312      -0.027528              2.085982       1.284478      -0.014567
        3      C4               5.682514       2.414167      -2.352945              3.007057       1.277522      -1.245125
        4      C6               6.659034       4.509387      -6.418988              3.523809       2.386265      -3.396782
        5      C19             -1.135765      -2.708871       0.069922             -0.601021      -1.433473       0.037001
        6      N2               2.577413       0.054307       0.121080              1.363908       0.028738       0.064073
        7      N5               5.223568       4.273166      -4.093852              2.764193       2.261262      -2.166373
        8      O7              -1.356013       1.854135       0.017300             -0.717571       0.981166       0.009155
        9      O8               7.313384       0.770351      -2.603068              3.870076       0.407652      -1.377484
       10      H9              -2.373989      -2.907487       1.747173             -1.256261      -1.538576       0.924564
       11      H10             -2.356008      -2.934820      -1.616846             -1.246746      -1.553040      -0.855598
       12      H11              0.294954      -4.236613       0.092362              0.156083      -2.241919       0.048876
       13      H12              3.630549      -1.557560      -0.038622              1.921204      -0.824225      -0.020438
       14      H13              2.492466       3.939049      -0.064177              1.318956       2.084455      -0.033961
       15      H14              5.155190       2.705629       1.667984              2.728009       1.431757       0.882659
       16      H15              3.774531       5.501095      -3.754761              1.997396       2.911054      -1.986934
       17      H16              5.431774       4.297360      -8.108775              2.874371       2.274065      -4.290979
       18      H17              7.645223       6.358651      -6.538963              4.045678       3.364853      -3.460270
       19      H18              8.082270       2.977390      -6.420688              4.276953       1.575567      -3.397682
 
                    ************************************************* 
                    **** InterNuclear Distances / Bohr, Angstrom **** 
                    ************************************************* 
 
     Atom centers         Bohr        Angstrom
   16 H15       7 N5      1.929378        1.020983
   13 H12       6 N2      1.932024        1.022383
   19 H18       4 C6      2.091081        1.106552
   12 H11       5 C19     2.093193        1.107670
   11 H10       5 C19     2.094095        1.108147
   10 H9        5 C19     2.094235        1.108221
   14 H13       2 C3      2.094673        1.108453
   17 H16       4 C6      2.099167        1.110832
   18 H17       4 C6      2.099223        1.110861
   15 H14       2 C3      2.103380        1.113061
    8 O7        1 C1      2.326626        1.231198
    9 O8        3 C4      2.329040        1.232475
    7 N5        3 C4      2.587907        1.369462
    6 N2        1 C1      2.602770        1.377326
    6 N2        2 C3      2.741379        1.450675
    7 N5        4 C6      2.742740        1.451395
    5 C19       1 C1      2.880833        1.524471
    3 C4        2 C3      2.904713        1.537108
   11 H10      10 H9      3.364178        1.780246
   15 H14      14 H13     3.407610        1.803230
   18 H17      17 H16     3.407725        1.803290
   19 H18      17 H16     3.408385        1.803639
   12 H11      10 H9      3.410019        1.804504
   19 H18      18 H17     3.411440        1.805256
   12 H11      11 H10     3.412281        1.805701
   14 H13       6 N2      3.890085        2.058544
   16 H15       3 C4      3.890323        2.058670
   19 H18       7 N5      3.907094        2.067545
   13 H12       1 C1      3.952147        2.091386
   13 H12       2 C3      3.997034        2.115139
   15 H14       6 N2      4.008410        2.121159
   17 H16       7 N5      4.020391        2.127499
   18 H17       7 N5      4.023957        2.129386
   16 H15       4 C6      4.049931        2.143131
   15 H14       3 C4      4.065820        2.151539
   10 H9        1 C1      4.067746        2.152558
   11 H10       1 C1      4.068568        2.152994
   12 H11       1 C1      4.196854        2.220879
   16 H15      14 H13     4.207623        2.226578
   14 H13       3 C4      4.211904        2.228844
   13 H12      12 H11     4.280266        2.265019
    8 O7        6 N2      4.326891        2.289692
    9 O8        7 N5      4.342751        2.298085
   14 H13       8 O7      4.377704        2.316581
   19 H18       9 O8      4.476208        2.368707
    9 O8        2 C3      4.554733        2.410261
    8 O7        5 C19     4.568622        2.417611
    6 N2        3 C4      4.618593        2.444054
    6 N2        5 C19     4.628764        2.449437
    7 N5        2 C3      4.645939        2.458525
    2 C3        1 C1      4.676446        2.474669
    4 C6        3 C4      4.677204        2.475070
   14 H13       1 C1      4.718748        2.497054
   19 H18       3 C4      4.756320        2.516936
   17 H16      16 H15     4.811743        2.546265
   16 H15       2 C3      4.834091        2.558091
   15 H14      13 H12     4.838575        2.560463
   18 H17      16 H15     4.844526        2.563613
   12 H11       6 N2      4.860292        2.571956
   14 H13       7 N5      4.879429        2.582083
   13 H12       5 C19     4.904595        2.595400
   13 H12       3 C4      5.034010        2.663884
   13 H12       9 O8      5.055573        2.675294
   11 H10       8 O7      5.157957        2.729473
   15 H14       9 O8      5.161878        2.731548
   10 H9        8 O7      5.167377        2.734458
    8 O7        2 C3      5.329051        2.820012
    9 O8        4 C6      5.382362        2.848223
    9 O8        6 N2      5.510274        2.915912
   14 H13      13 H12     5.613252        2.970405
   19 H18      16 H15     5.659758        2.995015
--
 
 
            Nuclear Potential Energy            450.39258367 au
 
 
      Basis set specifications :
      Symmetry species         a  
      Basis functions          212
 
 
      Input file to MOLDEN was generated!
 
--- Stop Module: seward at Wed Nov 13 21:02:22 2024 /rc=_RC_ALL_IS_WELL_ ---
*** files: orca_geometry_optimisation_240_120_BP86_def2-SVP_def2J_scf_cas1_ras12i11_cas2_ras12i8.GssOrb
           orca_geometry_optimisation_240_120_BP86_def2-SVP_def2J_scf_cas1_ras12i11_cas2_ras12i8.guessorb.molden xmldump
    saved to directory /home/pcaah4
--- Module seward spent 1 minute 47 seconds ---

*** symbolic link created: INPORB -> orca_geometry_optimisation_240_120_BP86_def2-SVP_def2J_scf_cas1_ras12i11_cas2_ras12i8.GssOrb
--- Start Module: rasscf at Wed Nov 13 21:02:22 2024 ---
 
()()()()()()()()()()()()()()()()()()()()()()()()()()()()()()()()()()()()()()()()()()()()()()()()()()

                                              &RASSCF

                                   only a single process is used
                       available to each process: 2.0 GB of memory, 1 thread
                                            pid: 1804526
()()()()()()()()()()()()()()()()()()()()()()()()()()()()()()()()()()()()()()()()()()()()()()()()()()
 
 
      Header of the ONEINT file:
      --------------------------
      orca_geometry_optimisation_240_120_BP86_def2-SVP_def2J_scf_cas1_ras12i11
      Integrals generated by Gateway/Seward, Wed Nov 13 21:00:34 2024
 
 
      OrdInt status: non-squared
 
 
      Cartesian coordinates in Angstrom:
      -----------------------------------------------------
      No.  Label        X            Y            Z        
      -----------------------------------------------------
       1   C1        -0.01183100  -0.02748300   0.02929900
       2   C3         2.08598200   1.28447800  -0.01456700
       3   C4         3.00705700   1.27752200  -1.24512500
       4   C6         3.52380900   2.38626500  -3.39678200
       5   C19       -0.60102100  -1.43347300   0.03700100
       6   N2         1.36390800   0.02873800   0.06407300
       7   N5         2.76419300   2.26126200  -2.16637300
       8   O7        -0.71757100   0.98116600   0.00915500
       9   O8         3.87007600   0.40765200  -1.37748400
      10   H9        -1.25626100  -1.53857600   0.92456400
      11   H10       -1.24674600  -1.55304000  -0.85559800
      12   H11        0.15608300  -2.24191900   0.04887600
      13   H12        1.92120400  -0.82422500  -0.02043800
      14   H13        1.31895600   2.08445500  -0.03396100
      15   H14        2.72800900   1.43175700   0.88265900
      16   H15        1.99739600   2.91105400  -1.98693400
      17   H16        2.87437100   2.27406500  -4.29097900
      18   H17        4.04567800   3.36485300  -3.46027000
      19   H18        4.27695300   1.57556700  -3.39768200
      -----------------------------------------------------
      Nuclear repulsion energy =  450.39258367
 
++    Wave function specifications:
      -----------------------------
 
      Number of closed shell electrons          58
      Number of electrons in active shells      12
      Max number of holes in RAS1 space          0
      Max nr of electrons in RAS3 space          0
      Number of inactive orbitals               29
      Number of active orbitals                  8
      Number of secondary orbitals             172
      Spin quantum number                      0.0
      State symmetry                             1
--
 
++    Orbital specifications:
      -----------------------
 
      Symmetry species                           1
                                                 a
      Frozen orbitals                            0
      Inactive orbitals                         29
      Active orbitals                            8
      RAS1 orbitals                              0
      RAS2 orbitals                              8
      RAS3 orbitals                              0
      Secondary orbitals                       172
      Deleted orbitals                           3
      Number of basis functions                212
--
 
++    CI expansion specifications:
      ----------------------------
 
      Number of CSFs                           336
      Number of determinants                   406
      Number of root(s) required                 7
      Root chosen for geometry opt.              7
      CI roots used                              1     2     3     4     5     6     7
      weights                                0.143 0.143 0.143 0.143 0.143 0.143 0.143
      highest root included in the CI            7
      max. size of the explicit Hamiltonian    200
--
 
++    Optimization specifications:
      ----------------------------
 
      RASSCF algorithm: Conventional
      Maximum number of macro iterations        64
      Maximum number of SX iterations           25
      Threshold for RASSCF energy            0.100E-07
      Threshold for max MO rotation          0.100E+00
      Threshold for max BLB element          0.100E-03
      Level shift parameter                  0.300E+00
      Make Quasi-Newton update
--
 
      The MO-coefficients are taken from the file:
      /home/pcaah4/outputs/cas1_ras12i11_rasorb_files/orca_geometry_optimisation_240_120_BP86_def2-SVP_def2J_scf_cas1_ras12i11.RasOrb                                                                                                                                 
      Title: RASSCF average (pseudo-natural) orbitals                                      
 
      Total molecular charge    0.00
 
      Molecular orbitals exchanged:
        In symmetry  1 :  38 210
        In symmetry  1 :  39 211
        In symmetry  1 :  40 212
 
 
      ************************************************************************************************************************
      *                                                                                                                      *
      *                                            Wave function control section                                             *
      *                                                                                                                      *
      ************************************************************************************************************************
 
 
                                         RASSCF iterations: Energy and convergence statistics
                                         ----------------------------------------------------
 
      Iter CI   SX   CI       RASSCF       Energy    max ROT     max BLB   max BLB  Level Ln srch  Step   QN   Walltime
          iter iter root      energy       change     param      element    value   shift minimum  type update hh:mm:ss
 Nr of preliminary CI iterations:   4
        1   1   25    0  -453.68874621    0.00E+00   0.31E-01   19  93 1  0.15E-01*  0.14   0.00    SX    NO    0:00:13
        2   5    9    0  -453.70287009   -0.14E-01*  0.14E-01   13 209 1 -0.67E-02*  0.14   0.00    SX    NO    0:00:06
        3   3    9    0  -453.70473030   -0.19E-02*  0.85E-02   23  66 1  0.44E-02*  0.14   0.00    SX    NO    0:00:06
        4   5    9    0  -453.70569704   -0.97E-03*  0.54E-02   21  97 1 -0.19E-02*  0.15   0.00    SX    NO    0:00:06
        5   5    9    0  -453.70588531   -0.19E-03* -0.66E-02   21  82 1 -0.12E-02*  0.15   1.20    QN   YES    0:00:06
        6   5    9    0  -453.70597650   -0.91E-04* -0.15E-02   34 112 1 -0.45E-03*  0.15   1.03    QN   YES    0:00:06
        7   3    8    0  -453.70598086   -0.44E-05* -0.14E-02   21  82 1 -0.44E-03*  0.15   0.91    QN   YES    0:00:06
        8   6    8    0  -453.70598308   -0.22E-05*  0.30E-03   13 209 1 -0.14E-03*  0.15   0.95    QN   YES    0:00:06
        9   3    7    0  -453.70598372   -0.63E-06*  0.25E-03   21  97 1 -0.12E-03*  0.15   1.26    QN   YES    0:00:06
       10   5    7    0  -453.70598393   -0.21E-06* -0.39E-04   13 209 1  0.32E-04   0.15   0.89    QN   YES    0:00:06
       11   3    6    0  -453.70598396   -0.25E-07*  0.88E-04   21  82 1 -0.23E-04   0.15   1.45    QN   YES    0:00:06
       12   1    6    0  -453.70598397   -0.10E-07*  0.26E-04   21  97 1 -0.63E-05   0.15   0.98    QN   YES    0:00:06
       13   1    5    0  -453.70598397   -0.16E-08  -0.25E-04   13 209 1 -0.30E-05   0.15   1.64    QN   YES    0:00:06
      Convergence after 13 iterations
       14   1    5    0  -453.70598397   -0.50E-09  -0.25E-04   21  97 1  0.11E-05   0.15   1.64    QN   YES    0:00:06
 
      ************************************************************************************************************************
                                                      Wave function printout:
                       occupation of active orbitals, and spin coupling of open shells (u,d: Spin up or down)
      ************************************************************************************************************************
 
      Note: transformation to natural orbitals
      has been made, which may change the order of the CSFs.
 
      printout of CI-coefficients larger than  0.05 for root  1
      energy=    -453.959400
      conf/sym  11111111     Coeff  Weight
             1  22222200   0.96332 0.92799
             2  22222ud0  -0.13642 0.01861
             4  22222020  -0.07663 0.00587
            17  22220202  -0.08623 0.00744
            61  2u2222d0  -0.07707 0.00594
            62  2u222d20  -0.05908 0.00349
            84  u222220d   0.09493 0.00901
           171  20222220  -0.09684 0.00938
           195  02222202  -0.07654 0.00586
 
      printout of CI-coefficients larger than  0.05 for root  2
      energy=    -453.743873
      conf/sym  11111111     Coeff  Weight
            21  222u22d0   0.95447 0.91102
            22  222u2d20   0.08727 0.00762
            24  222u220d  -0.11714 0.01372
            38  222u02d2   0.08337 0.00695
            44  22u2220d  -0.05583 0.00312
           111  22ud2220   0.05362 0.00288
           121  2u2d2220   0.18020 0.03247
           213  u22u22dd   0.07807 0.00609
           270  022u22d2  -0.07665 0.00588
 
      printout of CI-coefficients larger than  0.05 for root  3
      energy=    -453.736836
      conf/sym  11111111     Coeff  Weight
             7  22222u0d   0.25888 0.06702
             8  2222u20d  -0.07671 0.00588
            21  222u22d0  -0.06672 0.00445
            24  222u220d  -0.05177 0.00268
            44  22u2220d  -0.90899 0.82627
            45  22u22dud   0.06190 0.00383
            47  22u22udd   0.10843 0.01176
            49  22u2202d   0.07780 0.00605
            54  22u2d202   0.16934 0.02867
           165  u2d22202   0.11955 0.01429
           219  2uu222dd  -0.06335 0.00401
           293  20u2222d  -0.09116 0.00831
 
      printout of CI-coefficients larger than  0.05 for root  4
      energy=    -453.643873
      conf/sym  11111111     Coeff  Weight
             1  22222200  -0.06250 0.00391
             2  22222ud0  -0.29238 0.08549
             4  22222020   0.06234 0.00389
             7  22222u0d   0.09721 0.00945
             8  2222u20d   0.88426 0.78192
            12  2222uudd  -0.08685 0.00754
            13  2222u02d  -0.07455 0.00556
            62  2u222d20  -0.07474 0.00559
            68  2u22u2dd   0.06547 0.00429
            84  u222220d  -0.09317 0.00868
            94  u222d202  -0.21833 0.04767
           174  2022u22d   0.08729 0.00762
 
      printout of CI-coefficients larger than  0.05 for root  5
      energy=    -453.636952
      conf/sym  11111111     Coeff  Weight
             1  22222200   0.06249 0.00391
             2  22222ud0   0.45769 0.20948
             4  22222020  -0.10219 0.01044
             7  22222u0d  -0.75169 0.56504
             8  2222u20d   0.23661 0.05598
            44  22u2220d  -0.23428 0.05489
            62  2u222d20   0.11943 0.01426
            65  2u222dud  -0.11685 0.01365
            67  2u222udd  -0.15282 0.02335
            94  u222d202  -0.08674 0.00752
           171  20222220   0.05487 0.00301
           173  20222u2d  -0.09950 0.00990
 
      printout of CI-coefficients larger than  0.05 for root  6
      energy=    -453.616935
      conf/sym  11111111     Coeff  Weight
             1  22222200   0.09540 0.00910
             2  22222ud0   0.73377 0.53841
             4  22222020  -0.14488 0.02099
             7  22222u0d   0.51507 0.26530
             8  2222u20d   0.21425 0.04590
            19  22220ud2  -0.07053 0.00497
            44  22u2220d   0.10872 0.01182
            62  2u222d20   0.18864 0.03558
            65  2u222dud   0.08845 0.00782
            67  2u222udd   0.13347 0.01782
            87  u2222udd   0.06731 0.00453
           171  20222220   0.07740 0.00599
           173  20222u2d   0.08214 0.00675
           196  02222ud2  -0.05412 0.00293
 
      printout of CI-coefficients larger than  0.05 for root  7
      energy=    -453.604018
      conf/sym  11111111     Coeff  Weight
            21  222u22d0   0.10622 0.01128
            24  222u220d   0.88913 0.79054
            25  222u2dud   0.22935 0.05260
            27  222u2udd   0.31590 0.09979
            44  22u2220d  -0.06112 0.00374
           112  22ud22ud  -0.06702 0.00449
           201  22uu22dd   0.06527 0.00426
           208  2u2u2d2d  -0.08098 0.00656
           261  202u222d   0.08111 0.00658
 
      Natural orbitals and occupation numbers for root  1
      sym 1:   1.971151   1.995420   1.999871   1.999850   1.994046   1.957486   0.047263   0.034914
 
      Natural orbitals and occupation numbers for root  2
      sym 1:   1.970980   1.999184   1.995920   1.004013   1.994638   1.999616   0.997149   0.038500
 
      Natural orbitals and occupation numbers for root  3
      sym 1:   1.999775   1.993272   1.008949   1.995634   1.997975   1.956293   0.053012   0.995089
 
      Natural orbitals and occupation numbers for root  4
      sym 1:   1.966705   1.968318   1.999609   1.999794   1.128474   1.873591   0.155355   0.908154
 
      Natural orbitals and occupation numbers for root  5
      sym 1:   1.991081   1.925095   1.943129   1.999424   1.997276   1.059348   0.120521   0.964126
 
      Natural orbitals and occupation numbers for root  6
      sym 1:   1.996484   1.943978   1.988422   1.999228   1.947320   1.039942   0.972722   0.111904
 
      Natural orbitals and occupation numbers for root  7
      sym 1:   1.999743   1.995867   1.994917   1.032996   1.998397   1.931778   0.076206   0.970096
 
      ************************************************************************************************************************
      *                                                                                                                      *
      *                                                    Final results                                                     *
      *                                                                                                                      *
      ************************************************************************************************************************
 
 
++    Wave function specifications:
      -----------------------------
 
      Number of closed shell electrons          58
      Number of electrons in active shells      12
      Max number of holes in RAS1 space          0
      Max nr of electrons in RAS3 space          0
      Number of inactive orbitals               29
      Number of active orbitals                  8
      Number of secondary orbitals             172
      Spin quantum number                      0.0
      State symmetry                             1
--
 
++    Orbital specifications:
      -----------------------
 
      Symmetry species                           1
                                                 a
      Frozen orbitals                            0
      Inactive orbitals                         29
      Active orbitals                            8
      RAS1 orbitals                              0
      RAS2 orbitals                              8
      RAS3 orbitals                              0
      Secondary orbitals                       172
      Deleted orbitals                           3
      Number of basis functions                212
--
 
++    CI expansion specifications:
      ----------------------------
 
      Number of CSFs                           336
      Number of determinants                   406
      Number of root(s) required                 7
      CI roots used                              1     2     3     4     5     6     7
      weights                                0.143 0.143 0.143 0.143 0.143 0.143 0.143
      highest root included in the CI            7
      Root passed to geometry opt.               7
--
 
++    Final optimization conditions:
      ------------------------------
 
      Average CI energy                            -453.70598397
      RASSCF energy for state  7                   -453.60401818
      Super-CI energy                                -0.00000000
      RASSCF energy change                            0.00000000
      Max change in MO coefficients               0.284E-04
      Max non-diagonal density matrix element    -0.250E-04
      Maximum BLB matrix element                  0.109E-05
      (orbital pair  21,  97 in symmetry   1)
      Norm of electronic gradient            0.374E+00
--
 
 
      Final state energy(ies):
      ------------------------
 
::    RASSCF root number  1 Total energy:   -453.95940047
::    RASSCF root number  2 Total energy:   -453.74387335
::    RASSCF root number  3 Total energy:   -453.73683638
::    RASSCF root number  4 Total energy:   -453.64387279
::    RASSCF root number  5 Total energy:   -453.63695176
::    RASSCF root number  6 Total energy:   -453.61693487
::    RASSCF root number  7 Total energy:   -453.60401818
 
++    Molecular orbitals:
      -------------------
 
      Pseudonatural active orbitals and approximate occupation numbers
 
 
 
 
      Molecular orbitals for symmetry species 1: a  
 
 
      Orbital                 1         2         3         4         5         6         7         8         9        10
      Energy           -20.6090  -20.5128  -15.6364  -15.5784  -11.3440  -11.2878  -11.2808  -11.2596  -11.2589   -1.4281
      Occ. No.           2.0000    2.0000    2.0000    2.0000    2.0000    2.0000    2.0000    2.0000    2.0000    2.0000
 
     1 C1     1s         0.0003    0.0001   -0.0003   -0.0000    1.0000    0.0001    0.0001   -0.0000    0.0036   -0.0392
     2 C1     2s         0.0009    0.0006   -0.0011   -0.0002    0.0021   -0.0006    0.0006   -0.0002    0.0004    0.3504
     3 C1     3s        -0.0005    0.0004   -0.0004   -0.0002   -0.0002   -0.0006    0.0005   -0.0002    0.0007   -0.0060
     4 C1     4s        -0.0004    0.0001   -0.0001   -0.0001    0.0012   -0.0003    0.0001   -0.0001    0.0002    0.0034
     5 C1     2px       -0.0015    0.0001   -0.0017   -0.0005    0.0013    0.0001    0.0005   -0.0002    0.0004   -0.0468
     6 C1     3px       -0.0010   -0.0001   -0.0012   -0.0007    0.0014   -0.0002    0.0006   -0.0003   -0.0001    0.0307
     7 C1     4px        0.0002   -0.0001    0.0001   -0.0001    0.0004   -0.0002    0.0001   -0.0001   -0.0002   -0.0141
     8 C1     2py        0.0030   -0.0001   -0.0001   -0.0002    0.0011    0.0002    0.0004   -0.0002    0.0007    0.0957
     9 C1     3py        0.0020   -0.0001   -0.0001   -0.0002    0.0009   -0.0003    0.0005   -0.0003   -0.0001   -0.0665
    10 C1     4py       -0.0004   -0.0000   -0.0000   -0.0001    0.0007   -0.0004    0.0000   -0.0001   -0.0003    0.0231
    11 C1     2pz       -0.0000   -0.0003   -0.0001   -0.0000    0.0001    0.0000   -0.0002    0.0000   -0.0000   -0.0006
    12 C1     3pz       -0.0000   -0.0004   -0.0001   -0.0000    0.0000    0.0000   -0.0002    0.0000    0.0000   -0.0015
    13 C1     4pz        0.0000   -0.0001   -0.0000   -0.0000    0.0000   -0.0000   -0.0000    0.0000    0.0000   -0.0007
    14 C1     3d2-       0.0001    0.0000   -0.0001    0.0000   -0.0004    0.0000    0.0000   -0.0000   -0.0000   -0.0337
    15 C1     3d1-       0.0000   -0.0000   -0.0000    0.0000   -0.0000   -0.0000   -0.0000    0.0000   -0.0000   -0.0008
    16 C1     3d0       -0.0000   -0.0000   -0.0001    0.0000   -0.0004   -0.0001   -0.0000    0.0000   -0.0001   -0.0281
    17 C1     3d1+       0.0000   -0.0000    0.0000   -0.0000    0.0000    0.0000   -0.0000   -0.0000    0.0000    0.0008
    18 C1     3d2+       0.0001    0.0000    0.0002    0.0000   -0.0000    0.0000    0.0000    0.0000    0.0000   -0.0084
    19 C3     1s         0.0001    0.0001   -0.0003    0.0001   -0.0001    0.9986    0.0410    0.0000   -0.0001   -0.0095
    20 C3     2s         0.0006    0.0006   -0.0014    0.0007    0.0004   -0.0016    0.0005    0.0005   -0.0008    0.0138
    21 C3     3s         0.0004    0.0003   -0.0006    0.0005    0.0003   -0.0028    0.0005    0.0003   -0.0005   -0.0199
    22 C3     4s         0.0001   -0.0001   -0.0001    0.0001   -0.0000    0.0007    0.0001    0.0000   -0.0001   -0.0023
    23 C3     2px        0.0001   -0.0007    0.0005    0.0003    0.0006   -0.0007    0.0000   -0.0001   -0.0003   -0.0206
    24 C3     3px        0.0002   -0.0007    0.0001    0.0003    0.0009   -0.0007    0.0005   -0.0004   -0.0004   -0.0079
    25 C3     4px        0.0001   -0.0000   -0.0001   -0.0000    0.0003   -0.0005    0.0002   -0.0002   -0.0001   -0.0045
    26 C3     2py       -0.0001    0.0009    0.0004   -0.0007    0.0004   -0.0001   -0.0001    0.0002    0.0001   -0.0177
    27 C3     3py       -0.0001    0.0009   -0.0001   -0.0005    0.0005    0.0001    0.0001    0.0002    0.0000   -0.0032
    28 C3     4py        0.0000    0.0000   -0.0002    0.0001    0.0001   -0.0008    0.0001    0.0000   -0.0001   -0.0041
    29 C3     2pz        0.0002   -0.0006    0.0004    0.0004   -0.0007    0.0001    0.0001   -0.0004   -0.0000    0.0020
    30 C3     3pz        0.0002   -0.0004    0.0006    0.0005   -0.0009   -0.0002   -0.0003   -0.0004   -0.0001    0.0052
    31 C3     4pz       -0.0000    0.0002    0.0001    0.0001   -0.0001   -0.0002   -0.0001    0.0000   -0.0000    0.0018
    32 C3     3d2-       0.0000    0.0000    0.0000   -0.0001    0.0000   -0.0001   -0.0000    0.0000   -0.0000    0.0034
    33 C3     3d1-      -0.0000   -0.0001    0.0000   -0.0000   -0.0000    0.0000   -0.0001    0.0000    0.0000   -0.0000
    34 C3     3d0       -0.0000    0.0000   -0.0001   -0.0000   -0.0001    0.0000   -0.0000    0.0000    0.0000   -0.0022
    35 C3     3d1+       0.0000   -0.0000   -0.0000   -0.0000   -0.0000    0.0001   -0.0000   -0.0001   -0.0000   -0.0009
    36 C3     3d2+      -0.0000   -0.0001   -0.0001   -0.0000    0.0000    0.0001   -0.0001    0.0000    0.0000   -0.0008
    37 C4     1s         0.0000    0.0003    0.0000    0.0003   -0.0002    0.0410   -0.9992    0.0004    0.0001    0.0005
    38 C4     2s         0.0003    0.0011    0.0003    0.0011   -0.0016    0.0009   -0.0028   -0.0005    0.0007    0.0311
    39 C4     3s         0.0001   -0.0003    0.0002    0.0005   -0.0013    0.0002   -0.0003   -0.0004    0.0005    0.0116
    40 C4     4s        -0.0000   -0.0003    0.0001    0.0001   -0.0004    0.0001   -0.0015   -0.0002    0.0002    0.0040
    41 C4     2px       -0.0001    0.0023   -0.0001   -0.0002    0.0002   -0.0006    0.0002    0.0002   -0.0002   -0.0033
    42 C4     3px        0.0000    0.0015   -0.0000   -0.0002    0.0002   -0.0001    0.0002   -0.0001   -0.0003   -0.0048
    43 C4     4px        0.0001   -0.0004    0.0000    0.0000   -0.0000    0.0002   -0.0001   -0.0002   -0.0001   -0.0018
    44 C4     2py       -0.0001   -0.0025    0.0001    0.0011   -0.0001    0.0001   -0.0006   -0.0003   -0.0001   -0.0055
    45 C4     3py       -0.0002   -0.0018    0.0000    0.0007   -0.0001    0.0003   -0.0003   -0.0005   -0.0001   -0.0008
    46 C4     4py       -0.0000    0.0002   -0.0001   -0.0001   -0.0001    0.0002   -0.0000   -0.0001    0.0000    0.0001
    47 C4     2pz       -0.0002   -0.0003   -0.0004   -0.0012   -0.0001    0.0012    0.0005    0.0002    0.0003    0.0059
    48 C4     3pz       -0.0005   -0.0001   -0.0006   -0.0009   -0.0001    0.0009    0.0002    0.0009    0.0003    0.0062
    49 C4     4pz       -0.0002    0.0001   -0.0001    0.0001    0.0000   -0.0000    0.0003    0.0005    0.0000    0.0021
    50 C4     3d2-       0.0000    0.0001   -0.0000    0.0001    0.0000    0.0001    0.0004   -0.0000   -0.0000   -0.0015
    51 C4     3d1-      -0.0000   -0.0001   -0.0000    0.0002    0.0000    0.0000    0.0002   -0.0001   -0.0000   -0.0008
    52 C4     3d0        0.0000    0.0001    0.0000    0.0000    0.0000    0.0000    0.0001    0.0000    0.0000   -0.0005
    53 C4     3d1+      -0.0000   -0.0000    0.0000   -0.0001    0.0000   -0.0000   -0.0000   -0.0000   -0.0000   -0.0005
    54 C4     3d2+       0.0000   -0.0000    0.0001    0.0001    0.0000    0.0001    0.0001   -0.0000   -0.0000    0.0000
    55 C6     1s         0.0000    0.0001    0.0001    0.0003   -0.0001    0.0000    0.0005    0.9997   -0.0000    0.0008
    56 C6     2s        -0.0000    0.0006    0.0008    0.0014   -0.0006   -0.0000    0.0004    0.0001   -0.0001    0.0091
    57 C6     3s        -0.0001    0.0004    0.0005    0.0003   -0.0005   -0.0000    0.0005   -0.0016   -0.0000    0.0076
    58 C6     4s        -0.0000    0.0001    0.0001   -0.0001   -0.0002   -0.0000    0.0002    0.0009    0.0000    0.0027
    59 C6     2px        0.0000    0.0000   -0.0001   -0.0003    0.0001   -0.0002   -0.0000   -0.0001   -0.0000   -0.0031
    60 C6     3px        0.0000    0.0000   -0.0000    0.0001    0.0001   -0.0002   -0.0000    0.0002   -0.0000   -0.0024
    61 C6     4px       -0.0000   -0.0000    0.0000    0.0001    0.0000    0.0000    0.0000   -0.0003    0.0000    0.0002
    62 C6     2py        0.0000   -0.0001    0.0002    0.0001   -0.0002   -0.0001   -0.0003    0.0001    0.0000    0.0014
    63 C6     3py        0.0001   -0.0001    0.0002    0.0002   -0.0001   -0.0001   -0.0004   -0.0000    0.0000    0.0012
    64 C6     4py        0.0000    0.0001    0.0000    0.0001    0.0000   -0.0000   -0.0001   -0.0001   -0.0000   -0.0003
    65 C6     2pz       -0.0001    0.0003    0.0002    0.0004   -0.0003   -0.0000    0.0004   -0.0000    0.0000    0.0057
    66 C6     3pz       -0.0001    0.0003    0.0002   -0.0002   -0.0003   -0.0001    0.0005   -0.0002    0.0000    0.0058
    67 C6     4pz       -0.0000   -0.0000    0.0000   -0.0002   -0.0000   -0.0000    0.0001    0.0006    0.0000    0.0010
    68 C6     3d2-      -0.0000   -0.0000    0.0000    0.0001   -0.0000   -0.0000   -0.0000    0.0000    0.0000    0.0003
    69 C6     3d1-       0.0000   -0.0000    0.0000    0.0000   -0.0000   -0.0000    0.0001   -0.0000   -0.0000   -0.0000
    70 C6     3d0       -0.0000    0.0000    0.0000   -0.0000    0.0000    0.0000   -0.0000   -0.0000    0.0000    0.0002
    71 C6     3d1+       0.0000   -0.0000   -0.0000    0.0001    0.0000   -0.0000   -0.0000    0.0001    0.0000   -0.0003
    72 C6     3d2+      -0.0000    0.0000   -0.0000   -0.0000    0.0000    0.0000    0.0000   -0.0000    0.0000    0.0001
    73 C19    1s         0.0002   -0.0000    0.0000   -0.0000    0.0036    0.0002    0.0000   -0.0001   -1.0000   -0.0145
    74 C19    2s         0.0012   -0.0001    0.0002   -0.0001    0.0006    0.0009   -0.0001   -0.0002   -0.0019   -0.0130
    75 C19    3s         0.0007   -0.0001    0.0001   -0.0002    0.0003    0.0005   -0.0000   -0.0002    0.0005   -0.0392
    76 C19    4s         0.0001   -0.0000    0.0000   -0.0001    0.0001    0.0000    0.0000   -0.0001   -0.0012   -0.0036
    77 C19    2px        0.0008    0.0001    0.0004    0.0000   -0.0002    0.0002   -0.0001   -0.0000    0.0002   -0.0110
    78 C19    3px        0.0005    0.0001    0.0003    0.0001   -0.0003    0.0002   -0.0001    0.0000    0.0001   -0.0076
    79 C19    4px       -0.0002    0.0000   -0.0000    0.0000   -0.0000   -0.0000   -0.0000    0.0000   -0.0002    0.0076
    80 C19    2py       -0.0001   -0.0001   -0.0003   -0.0002    0.0004    0.0003    0.0001   -0.0001    0.0003    0.0209
    81 C19    3py       -0.0002   -0.0001   -0.0003   -0.0002   -0.0001    0.0001    0.0001   -0.0001    0.0000   -0.0061
    82 C19    4py       -0.0002    0.0000    0.0001   -0.0000   -0.0001   -0.0001    0.0000   -0.0000   -0.0004    0.0058
    83 C19    2pz       -0.0000   -0.0001   -0.0000   -0.0001    0.0001    0.0001    0.0000   -0.0001   -0.0000   -0.0004
    84 C19    3pz       -0.0000   -0.0000   -0.0000   -0.0001    0.0001    0.0001    0.0000   -0.0001   -0.0000   -0.0000
    85 C19    4pz        0.0000    0.0000    0.0000   -0.0000    0.0000   -0.0000    0.0000   -0.0000   -0.0000    0.0001
    86 C19    3d2-       0.0001   -0.0000    0.0000   -0.0000    0.0000    0.0001   -0.0000   -0.0000    0.0001    0.0001
    87 C19    3d1-       0.0000    0.0000    0.0000   -0.0000    0.0000   -0.0000   -0.0000    0.0000   -0.0000    0.0001
    88 C19    3d0       -0.0001   -0.0000    0.0001    0.0000    0.0001   -0.0000    0.0000    0.0000   -0.0001    0.0015
    89 C19    3d1+       0.0000    0.0000    0.0000    0.0000   -0.0000   -0.0000    0.0000    0.0000    0.0000    0.0000
    90 C19    3d2+       0.0001   -0.0000    0.0000    0.0000   -0.0001   -0.0000   -0.0000    0.0000   -0.0001   -0.0070
    91 N2     1s         0.0001   -0.0000   -0.9999   -0.0000   -0.0002    0.0001   -0.0001    0.0000   -0.0001   -0.0175
    92 N2     2s         0.0006   -0.0003   -0.0002   -0.0001   -0.0002    0.0014   -0.0007    0.0001   -0.0006    0.1118
    93 N2     3s         0.0004   -0.0002    0.0013   -0.0001   -0.0004    0.0007   -0.0006    0.0001   -0.0004   -0.0469
    94 N2     4s         0.0001   -0.0000   -0.0005   -0.0000    0.0000    0.0002   -0.0001    0.0000   -0.0001   -0.0111
    95 N2     2px        0.0001    0.0002   -0.0006   -0.0004   -0.0001    0.0008   -0.0001   -0.0001    0.0004   -0.0318
    96 N2     3px        0.0001    0.0003   -0.0006   -0.0005    0.0002    0.0007   -0.0001   -0.0001    0.0003    0.0135
    97 N2     4px        0.0000   -0.0000    0.0002   -0.0000   -0.0002   -0.0000    0.0000   -0.0000   -0.0001   -0.0061
    98 N2     2py       -0.0015   -0.0000    0.0007   -0.0002    0.0003    0.0009   -0.0003   -0.0000    0.0003    0.0361
    99 N2     3py       -0.0018    0.0000    0.0001   -0.0003    0.0003    0.0009   -0.0004   -0.0001    0.0003    0.0153
   100 N2     4py       -0.0000    0.0000   -0.0004   -0.0001   -0.0000    0.0002    0.0001   -0.0000   -0.0001   -0.0059
   101 N2     2pz       -0.0000    0.0004    0.0000   -0.0000    0.0001   -0.0001   -0.0001    0.0001    0.0001    0.0013
   102 N2     3pz       -0.0000    0.0006   -0.0000   -0.0000    0.0000   -0.0002    0.0000    0.0001    0.0001    0.0039
   103 N2     4pz        0.0000    0.0001    0.0002    0.0000   -0.0000   -0.0001   -0.0001    0.0000   -0.0000   -0.0002
   104 N2     3d2-       0.0001   -0.0000    0.0002   -0.0000   -0.0001   -0.0000   -0.0000   -0.0000    0.0000   -0.0027
   105 N2     3d1-       0.0000    0.0000   -0.0000   -0.0000    0.0000    0.0000    0.0000    0.0000   -0.0000   -0.0005
   106 N2     3d0       -0.0000    0.0000    0.0000    0.0000    0.0001    0.0001    0.0000   -0.0000    0.0001   -0.0025
   107 N2     3d1+      -0.0000    0.0000    0.0000   -0.0000   -0.0000   -0.0000    0.0000    0.0000    0.0000    0.0002
   108 N2     3d2+      -0.0000   -0.0000    0.0000   -0.0000    0.0001   -0.0000   -0.0000   -0.0000   -0.0000    0.0048
   109 N5     1s         0.0000    0.0001   -0.0001    0.9999    0.0001    0.0000    0.0003    0.0001   -0.0000   -0.0014
   110 N5     2s         0.0002    0.0009   -0.0003    0.0005    0.0005    0.0002    0.0003    0.0017   -0.0001   -0.0002
   111 N5     3s         0.0001    0.0006   -0.0002   -0.0011    0.0004    0.0001    0.0004    0.0010   -0.0001   -0.0049
   112 N5     4s         0.0000    0.0001   -0.0000    0.0006    0.0001    0.0000   -0.0000    0.0004   -0.0000   -0.0011
   113 N5     2px       -0.0001   -0.0011   -0.0004   -0.0008    0.0003    0.0002   -0.0003    0.0005    0.0001   -0.0033
   114 N5     3px       -0.0000   -0.0013   -0.0006   -0.0004    0.0006    0.0003   -0.0003    0.0005    0.0002   -0.0052
   115 N5     4px        0.0000   -0.0000   -0.0000    0.0003    0.0001    0.0001    0.0000    0.0002    0.0000   -0.0011
   116 N5     2py        0.0001    0.0006    0.0000    0.0005    0.0001   -0.0002    0.0002    0.0002   -0.0000   -0.0028
   117 N5     3py        0.0001    0.0007   -0.0001    0.0002    0.0002   -0.0001    0.0001   -0.0001   -0.0000   -0.0025
   118 N5     4py        0.0000    0.0000   -0.0001   -0.0003    0.0001    0.0001    0.0002   -0.0001   -0.0000   -0.0011
   119 N5     2pz        0.0001    0.0008    0.0005    0.0003   -0.0004    0.0001    0.0003   -0.0008   -0.0001    0.0069
   120 N5     3pz        0.0001    0.0010    0.0007    0.0002   -0.0007   -0.0000    0.0003   -0.0007   -0.0000    0.0111
   121 N5     4pz        0.0000   -0.0000    0.0001   -0.0001   -0.0002   -0.0001   -0.0002   -0.0001    0.0000    0.0026
   122 N5     3d2-      -0.0000    0.0000   -0.0000   -0.0001    0.0000   -0.0000   -0.0001    0.0000    0.0000   -0.0000
   123 N5     3d1-      -0.0000   -0.0000    0.0000    0.0001    0.0000   -0.0000   -0.0001    0.0001    0.0000   -0.0002
   124 N5     3d0       -0.0000    0.0001   -0.0000   -0.0001   -0.0000    0.0000    0.0001   -0.0000    0.0000    0.0001
   125 N5     3d1+      -0.0000   -0.0001   -0.0000    0.0001    0.0000   -0.0000   -0.0001    0.0000   -0.0000   -0.0001
   126 N5     3d2+      -0.0000    0.0000    0.0000    0.0000    0.0000   -0.0000    0.0000    0.0000    0.0000   -0.0000
   127 O7     1s         0.9997   -0.0000   -0.0000    0.0000   -0.0002   -0.0000   -0.0000    0.0000   -0.0001   -0.0238
   128 O7     2s        -0.0016   -0.0000   -0.0003    0.0000    0.0005   -0.0002   -0.0002    0.0000   -0.0004    0.6949
   129 O7     3s        -0.0014   -0.0000   -0.0002    0.0000    0.0000   -0.0001   -0.0001    0.0000   -0.0003   -0.0344
   130 O7     4s         0.0000   -0.0000   -0.0000    0.0000    0.0000    0.0000   -0.0000    0.0000   -0.0001   -0.0139
   131 O7     2px        0.0001    0.0000    0.0003    0.0001    0.0004   -0.0001   -0.0001    0.0000   -0.0001    0.0904
   132 O7     3px       -0.0003    0.0000    0.0004    0.0001   -0.0001   -0.0001   -0.0001    0.0000   -0.0002   -0.0271
   133 O7     4px        0.0009    0.0000    0.0001    0.0000    0.0001   -0.0000   -0.0000    0.0000    0.0000   -0.0017
   134 O7     2py       -0.0001   -0.0000    0.0002    0.0001   -0.0006   -0.0000   -0.0000   -0.0000    0.0001   -0.1174
   135 O7     3py        0.0006    0.0000    0.0002    0.0001   -0.0004   -0.0001   -0.0001   -0.0000    0.0001    0.0364
   136 O7     4py       -0.0011    0.0000   -0.0001    0.0000   -0.0003   -0.0001   -0.0000    0.0000   -0.0001    0.0000
   137 O7     2pz       -0.0000    0.0000    0.0000   -0.0000    0.0001    0.0000    0.0000   -0.0000    0.0000    0.0063
   138 O7     3pz       -0.0000    0.0001    0.0000   -0.0000    0.0000    0.0000    0.0001   -0.0000    0.0000   -0.0001
   139 O7     4pz        0.0000    0.0000    0.0000    0.0000   -0.0000    0.0000    0.0000   -0.0000    0.0000    0.0002
   140 O7     3d2-       0.0001   -0.0000   -0.0000   -0.0000   -0.0002    0.0000    0.0000   -0.0000    0.0000   -0.0184
   141 O7     3d1-      -0.0000   -0.0000   -0.0000    0.0000   -0.0000    0.0000   -0.0000   -0.0000    0.0000   -0.0007
   142 O7     3d0       -0.0000   -0.0000    0.0001   -0.0000   -0.0001    0.0000   -0.0000    0.0000    0.0000   -0.0107
   143 O7     3d1+      -0.0000    0.0000   -0.0000   -0.0000    0.0000    0.0000   -0.0000   -0.0000    0.0000    0.0005
   144 O7     3d2+       0.0000   -0.0000    0.0001    0.0000   -0.0001   -0.0000   -0.0000    0.0000    0.0000   -0.0056
   145 O8     1s        -0.0000    0.9997    0.0000    0.0000    0.0000    0.0000    0.0002   -0.0000   -0.0000   -0.0014
   146 O8     2s        -0.0001   -0.0016    0.0002    0.0002    0.0002    0.0003   -0.0007   -0.0003   -0.0001    0.0131
   147 O8     3s        -0.0001   -0.0015    0.0002    0.0002    0.0002    0.0002   -0.0001   -0.0002   -0.0001   -0.0037
   148 O8     4s        -0.0000    0.0000    0.0001    0.0000    0.0001    0.0001   -0.0000   -0.0000   -0.0000   -0.0011
   149 O8     2px        0.0000   -0.0001   -0.0002   -0.0001   -0.0001   -0.0001    0.0006    0.0000    0.0001   -0.0026
   150 O8     3px        0.0000    0.0004   -0.0002   -0.0000   -0.0001   -0.0000    0.0002   -0.0000    0.0001    0.0023
   151 O8     4px       -0.0000   -0.0010   -0.0000    0.0001   -0.0000    0.0000    0.0001   -0.0000    0.0000   -0.0000
   152 O8     2py        0.0000    0.0001    0.0000   -0.0001    0.0001    0.0001   -0.0006   -0.0001   -0.0000    0.0008
   153 O8     3py        0.0000   -0.0004    0.0000   -0.0002    0.0001    0.0001   -0.0001   -0.0000    0.0000   -0.0018
   154 O8     4py        0.0000    0.0010    0.0000   -0.0001    0.0000   -0.0000   -0.0001    0.0000    0.0000    0.0002
   155 O8     2pz        0.0000   -0.0000    0.0002    0.0003    0.0000   -0.0001    0.0000    0.0000   -0.0000    0.0006
   156 O8     3pz        0.0000   -0.0001    0.0002    0.0003   -0.0001   -0.0002   -0.0001   -0.0000   -0.0001    0.0001
   157 O8     4pz        0.0000    0.0001    0.0001    0.0000   -0.0000   -0.0001   -0.0001   -0.0000   -0.0000    0.0002
   158 O8     3d2-      -0.0000    0.0001    0.0000   -0.0000    0.0000   -0.0000    0.0002    0.0000    0.0000   -0.0004
   159 O8     3d1-      -0.0000   -0.0001   -0.0000    0.0000    0.0000   -0.0000   -0.0000    0.0000   -0.0000    0.0001
   160 O8     3d0       -0.0000    0.0001   -0.0000    0.0000    0.0000    0.0000    0.0002    0.0000    0.0000   -0.0002
   161 O8     3d1+       0.0000   -0.0000   -0.0000   -0.0001    0.0000   -0.0000   -0.0000   -0.0000    0.0000   -0.0001
   162 O8     3d2+      -0.0000   -0.0000    0.0000    0.0000    0.0000   -0.0000    0.0000    0.0000   -0.0000    0.0001
   163 H9     1s         0.0002    0.0002   -0.0000   -0.0000   -0.0000   -0.0003    0.0002   -0.0000   -0.0003    0.0150
   164 H9     2s         0.0001    0.0001   -0.0000   -0.0000   -0.0000   -0.0002    0.0001   -0.0000    0.0003    0.0041
   165 H9     2px       -0.0000    0.0000   -0.0000   -0.0000    0.0000   -0.0000    0.0000   -0.0000    0.0000    0.0009
   166 H9     2py       -0.0001    0.0000    0.0000   -0.0000    0.0001   -0.0000    0.0000   -0.0000   -0.0000    0.0012
   167 H9     2pz       -0.0000   -0.0000   -0.0000    0.0000   -0.0000    0.0000   -0.0000    0.0000   -0.0001   -0.0007
   168 H10    1s         0.0001   -0.0002   -0.0002   -0.0002    0.0001   -0.0000    0.0001   -0.0001   -0.0003    0.0144
   169 H10    2s         0.0000   -0.0001   -0.0001   -0.0001    0.0001   -0.0000    0.0001   -0.0001    0.0003    0.0035
   170 H10    2px       -0.0000   -0.0000   -0.0000   -0.0000    0.0000   -0.0000    0.0000   -0.0000    0.0000    0.0009
   171 H10    2py       -0.0001   -0.0000    0.0000   -0.0000    0.0001   -0.0000   -0.0000   -0.0000   -0.0000    0.0012
   172 H10    2pz        0.0000   -0.0000    0.0000   -0.0000    0.0000   -0.0000    0.0000   -0.0000    0.0001    0.0006
   173 H11    1s        -0.0004   -0.0001   -0.0005   -0.0002    0.0003   -0.0001    0.0001   -0.0001   -0.0003    0.0210
   174 H11    2s        -0.0002   -0.0000   -0.0004   -0.0002    0.0002   -0.0000    0.0001   -0.0001    0.0002    0.0064
   175 H11    2px       -0.0000    0.0000    0.0001    0.0000   -0.0000    0.0000   -0.0000    0.0000   -0.0001   -0.0003
   176 H11    2py       -0.0000   -0.0000   -0.0000   -0.0000    0.0001    0.0000   -0.0000   -0.0000    0.0000    0.0020
   177 H11    2pz        0.0000    0.0000    0.0000    0.0000   -0.0000   -0.0000   -0.0000    0.0000    0.0000   -0.0000
   178 H12    1s        -0.0011   -0.0000    0.0010    0.0002    0.0001   -0.0001   -0.0001   -0.0001    0.0005    0.0371
   179 H12    2s        -0.0006   -0.0000    0.0007    0.0001   -0.0000   -0.0000   -0.0001   -0.0001    0.0002   -0.0014
   180 H12    2px        0.0000   -0.0000   -0.0002    0.0000   -0.0001    0.0000    0.0001    0.0000   -0.0000   -0.0042
   181 H12    2py       -0.0000   -0.0000    0.0004    0.0000    0.0000    0.0000   -0.0000   -0.0000    0.0000    0.0042
   182 H12    2pz       -0.0000    0.0000    0.0001   -0.0000    0.0000    0.0000   -0.0000   -0.0000   -0.0000    0.0005
   183 H13    1s         0.0003   -0.0008    0.0004    0.0005   -0.0003    0.0008    0.0002   -0.0001   -0.0002    0.0128
   184 H13    2s         0.0003   -0.0005    0.0002    0.0003   -0.0001    0.0000    0.0001   -0.0001   -0.0001   -0.0034
   185 H13    2px        0.0000   -0.0000   -0.0000    0.0000   -0.0000    0.0000   -0.0000    0.0000    0.0000   -0.0003
   186 H13    2py       -0.0000    0.0000    0.0000   -0.0000    0.0000   -0.0001    0.0000   -0.0000    0.0000   -0.0012
   187 H13    2pz       -0.0000    0.0000   -0.0000    0.0000    0.0000   -0.0000    0.0000   -0.0000    0.0000    0.0003
   188 H14    1s         0.0001    0.0004    0.0003   -0.0003   -0.0001    0.0011    0.0000    0.0000    0.0003    0.0112
   189 H14    2s         0.0001    0.0002    0.0001   -0.0002   -0.0001    0.0003   -0.0001    0.0000    0.0002    0.0026
   190 H14    2px       -0.0000   -0.0001   -0.0000    0.0000    0.0000   -0.0000   -0.0000   -0.0000   -0.0000   -0.0007
   191 H14    2py       -0.0000   -0.0000   -0.0000    0.0000   -0.0000   -0.0000    0.0000   -0.0000   -0.0000   -0.0004
   192 H14    2pz       -0.0000    0.0000   -0.0000    0.0000    0.0000   -0.0000    0.0001    0.0000   -0.0000   -0.0009
   193 H15    1s        -0.0001   -0.0013   -0.0004   -0.0009    0.0001    0.0001   -0.0003   -0.0001    0.0001   -0.0014
   194 H15    2s        -0.0001   -0.0007   -0.0002   -0.0006    0.0001    0.0001   -0.0001   -0.0000    0.0001   -0.0021
   195 H15    2px       -0.0000   -0.0001   -0.0000   -0.0004   -0.0000    0.0000   -0.0001    0.0000    0.0000    0.0004
   196 H15    2py        0.0000    0.0000    0.0000    0.0003    0.0000   -0.0000    0.0001    0.0000   -0.0000   -0.0001
   197 H15    2pz        0.0000   -0.0000   -0.0000    0.0001    0.0000   -0.0000   -0.0001   -0.0000   -0.0000   -0.0005
   198 H16    1s        -0.0000    0.0004    0.0001   -0.0005   -0.0002   -0.0002    0.0004    0.0005    0.0000    0.0037
   199 H16    2s        -0.0000    0.0003    0.0001   -0.0002   -0.0001   -0.0001    0.0003   -0.0001    0.0000    0.0029
   200 H16    2px       -0.0000    0.0000    0.0000    0.0000   -0.0000   -0.0000    0.0000   -0.0000   -0.0000    0.0002
   201 H16    2py       -0.0000   -0.0000   -0.0000    0.0000    0.0000    0.0000    0.0000   -0.0000   -0.0000   -0.0001
   202 H16    2pz       -0.0000    0.0000    0.0000   -0.0000   -0.0000   -0.0000    0.0001    0.0000   -0.0000    0.0001
   203 H17    1s        -0.0001    0.0002   -0.0002   -0.0005    0.0000    0.0002    0.0003    0.0005    0.0000    0.0016
   204 H17    2s        -0.0000    0.0001   -0.0001   -0.0002   -0.0000    0.0001    0.0003   -0.0001    0.0000    0.0012
   205 H17    2px        0.0000   -0.0000    0.0000    0.0000    0.0000    0.0000   -0.0000   -0.0000    0.0000   -0.0001
   206 H17    2py        0.0000   -0.0000    0.0000    0.0000   -0.0000   -0.0000   -0.0001    0.0000   -0.0000   -0.0003
   207 H17    2pz        0.0000    0.0000    0.0000   -0.0000   -0.0000   -0.0000    0.0000    0.0000   -0.0000   -0.0000
   208 H18    1s        -0.0001   -0.0000    0.0002   -0.0001   -0.0003    0.0001   -0.0000    0.0010    0.0001    0.0060
   209 H18    2s        -0.0001    0.0001    0.0001   -0.0000   -0.0002    0.0001   -0.0001    0.0001    0.0001    0.0038
   210 H18    2px        0.0000   -0.0000   -0.0000   -0.0000    0.0000   -0.0000    0.0000   -0.0001   -0.0000   -0.0005
   211 H18    2py       -0.0000    0.0000   -0.0000    0.0000   -0.0000    0.0000    0.0000    0.0001    0.0000    0.0004
   212 H18    2pz       -0.0000   -0.0000   -0.0000    0.0000    0.0000    0.0000   -0.0000    0.0000    0.0000   -0.0001
 
 
      Orbital                11        12        13        14        15        16        17        18        19        20
      Energy            -1.3556   -1.2555   -1.2092   -1.0300   -0.9702   -0.9139   -0.8189   -0.7743   -0.7183   -0.6963
      Occ. No.           2.0000    2.0000    2.0000    2.0000    2.0000    2.0000    2.0000    2.0000    2.0000    2.0000
 
     1 C1     1s        -0.0033   -0.0078   -0.0031   -0.0170   -0.0024    0.0071    0.0138    0.0011    0.0068    0.0028
     2 C1     2s        -0.0133    0.1423   -0.0015    0.2734   -0.0368   -0.0813   -0.3851   -0.0521   -0.2534   -0.0534
     3 C1     3s        -0.0169    0.0063   -0.0147   -0.0202   -0.0105    0.0149    0.0038   -0.0032    0.0085    0.0166
     4 C1     4s        -0.0053    0.0021   -0.0046   -0.0053   -0.0037    0.0055    0.0025   -0.0005    0.0041    0.0027
     5 C1     2px       -0.0335    0.1502   -0.0104   -0.0029    0.1069   -0.0921   -0.1261   -0.0106    0.1759    0.2510
     6 C1     3px       -0.0215   -0.0446   -0.0323   -0.0375   -0.0246    0.0333    0.0282   -0.0150   -0.0729   -0.0585
     7 C1     4px       -0.0092    0.0260   -0.0041   -0.0068    0.0126   -0.0067   -0.0082   -0.0032    0.0071    0.0167
     8 C1     2py       -0.0127   -0.0294   -0.0268   -0.1572    0.0565    0.0038   -0.0584    0.0333    0.0524   -0.1483
     9 C1     3py       -0.0289    0.0469   -0.0283    0.0184   -0.0532    0.0412    0.0137   -0.0007   -0.0088    0.0591
    10 C1     4py       -0.0014   -0.0052   -0.0061   -0.0243    0.0061    0.0026   -0.0064    0.0027   -0.0035   -0.0084
    11 C1     2pz       -0.0031   -0.0040    0.0028    0.0053    0.0039   -0.0063   -0.0105    0.0017    0.0087   -0.0012
    12 C1     3pz       -0.0031   -0.0110    0.0044    0.0023    0.0021   -0.0057   -0.0050    0.0000    0.0018   -0.0018
    13 C1     4pz        0.0001   -0.0010    0.0017    0.0019    0.0010   -0.0017   -0.0009    0.0008    0.0021   -0.0008
    14 C1     3d2-      -0.0028    0.0156    0.0009    0.0083   -0.0089    0.0058   -0.0132    0.0068    0.0189    0.0069
    15 C1     3d1-       0.0001    0.0000    0.0000   -0.0001    0.0002   -0.0001   -0.0003    0.0003    0.0005   -0.0000
    16 C1     3d0       -0.0002   -0.0067   -0.0005   -0.0116   -0.0006    0.0046    0.0137    0.0017    0.0060    0.0021
    17 C1     3d1+      -0.0002    0.0001   -0.0001    0.0007    0.0013   -0.0005   -0.0018    0.0009    0.0022   -0.0008
    18 C1     3d2+      -0.0025    0.0269    0.0021    0.0012    0.0156   -0.0125   -0.0092   -0.0006    0.0157    0.0160
    19 C3     1s         0.0162   -0.0287    0.0042    0.0314    0.0269   -0.0185    0.0068   -0.0047    0.0012    0.0004
    20 C3     2s        -0.0246    0.1763   -0.0073   -0.2936   -0.2720    0.3216   -0.1073    0.0645   -0.0385    0.0380
    21 C3     3s         0.0432   -0.0482    0.0140    0.0514    0.0425   -0.0070    0.0118   -0.0076    0.0059    0.0001
    22 C3     4s         0.0064   -0.0110    0.0015    0.0152    0.0107   -0.0037    0.0038   -0.0031    0.0028   -0.0018
    23 C3     2px       -0.0306   -0.0522   -0.0190   -0.0128   -0.0469    0.0341    0.0585   -0.1108   -0.2470    0.0935
    24 C3     3px       -0.0158    0.0126   -0.0227   -0.0235    0.0119    0.0432   -0.0093    0.0166    0.0279   -0.0140
    25 C3     4px       -0.0055   -0.0022   -0.0068   -0.0055   -0.0016    0.0065    0.0024   -0.0070   -0.0052    0.0026
    26 C3     2py        0.0264   -0.0897   -0.0235    0.0057   -0.0411   -0.0311   -0.1380   -0.0182   -0.0264    0.2138
    27 C3     3py        0.0024    0.0134   -0.0029   -0.0304    0.0132   -0.0164    0.0058    0.0055    0.0108   -0.0316
    28 C3     4py       -0.0046   -0.0037   -0.0025   -0.0095   -0.0070    0.0038   -0.0080    0.0056   -0.0013    0.0084
    29 C3     2pz       -0.0004    0.0169    0.0206    0.0082    0.0330    0.0609   -0.0075    0.1141    0.0754   -0.1072
    30 C3     3pz       -0.0233    0.0274   -0.0014   -0.0226   -0.0336    0.0336   -0.0109   -0.0184   -0.0151    0.0131
    31 C3     4pz        0.0061    0.0111    0.0013   -0.0111   -0.0084    0.0176   -0.0023    0.0051   -0.0023   -0.0004
    32 C3     3d2-      -0.0029    0.0181   -0.0022   -0.0034    0.0053   -0.0014    0.0050    0.0020    0.0123   -0.0200
    33 C3     3d1-      -0.0050   -0.0020    0.0035    0.0010    0.0005    0.0015    0.0001   -0.0012   -0.0051    0.0035
    34 C3     3d0        0.0005   -0.0094   -0.0043    0.0016   -0.0090   -0.0033   -0.0005   -0.0128   -0.0188    0.0130
    35 C3     3d1+       0.0033   -0.0026    0.0002    0.0047    0.0078    0.0021   -0.0005    0.0099    0.0071   -0.0071
    36 C3     3d2+      -0.0019   -0.0102    0.0008    0.0016   -0.0057   -0.0011   -0.0179   -0.0037   -0.0046    0.0177
    37 C4     1s         0.0400    0.0067    0.0057    0.0088    0.0136    0.0086    0.0017    0.0162    0.0022   -0.0024
    38 C4     2s        -0.3625    0.0209   -0.1171   -0.0867   -0.2271   -0.0678   -0.0262   -0.4095   -0.0611    0.0744
    39 C4     3s         0.0082    0.0208   -0.0066    0.0237    0.0085    0.0174    0.0030    0.0079    0.0032    0.0001
    40 C4     4s        -0.0014    0.0053   -0.0017    0.0076    0.0033    0.0053    0.0011    0.0050    0.0027   -0.0020
    41 C4     2px       -0.0749   -0.0407    0.0534    0.0443    0.1041    0.0214    0.0014    0.0220    0.0598   -0.0601
    42 C4     3px        0.0381    0.0144   -0.0516   -0.0384    0.0012    0.0369   -0.0079   -0.0173   -0.0218    0.0211
    43 C4     4px       -0.0217   -0.0063    0.0057    0.0017    0.0135    0.0079   -0.0017   -0.0025   -0.0002    0.0004
    44 C4     2py        0.0525   -0.0002   -0.1405   -0.0162   -0.0537   -0.0632   -0.0156   -0.0882    0.0541   -0.0053
    45 C4     3py       -0.0555   -0.0285    0.0267    0.0068    0.0279    0.0388   -0.0120    0.0117   -0.0253    0.0092
    46 C4     4py        0.0142   -0.0016   -0.0272   -0.0012   -0.0042   -0.0037   -0.0072   -0.0052    0.0031    0.0001
    47 C4     2pz        0.0437    0.0157    0.1064   -0.0438   -0.0719    0.0355    0.0024    0.0691   -0.1764    0.1164
    48 C4     3pz        0.0101   -0.0207    0.0413    0.0330   -0.0179   -0.1268    0.0172   -0.0049    0.0662   -0.0509
    49 C4     4pz        0.0110    0.0014    0.0255   -0.0049   -0.0118   -0.0093    0.0033    0.0071   -0.0063    0.0015
    50 C4     3d2-       0.0381    0.0073   -0.0085   -0.0014    0.0038    0.0079    0.0036   -0.0016    0.0020   -0.0079
    51 C4     3d1-       0.0031   -0.0035    0.0231    0.0012    0.0068    0.0133   -0.0043    0.0153   -0.0086    0.0109
    52 C4     3d0        0.0168    0.0055   -0.0131   -0.0053   -0.0053    0.0047    0.0007   -0.0137   -0.0002   -0.0036
    53 C4     3d1+       0.0070   -0.0023   -0.0065    0.0070    0.0067   -0.0123    0.0038    0.0083    0.0051   -0.0043
    54 C4     3d2+       0.0029    0.0020    0.0101   -0.0029    0.0012    0.0102   -0.0033    0.0034   -0.0027    0.0035
    55 C6     1s         0.0089    0.0054    0.0345   -0.0148   -0.0361   -0.0432    0.0049    0.0085    0.0037   -0.0063
    56 C6     2s        -0.0317    0.0290   -0.1604    0.0604    0.2354    0.3862   -0.0379   -0.1079   -0.0367    0.0465
    57 C6     3s         0.0126    0.0268    0.0600   -0.0306   -0.0689   -0.0690    0.0130    0.0171    0.0090   -0.0180
    58 C6     4s         0.0004    0.0074    0.0101   -0.0057   -0.0147   -0.0143    0.0036    0.0047    0.0024   -0.0048
    59 C6     2px        0.0091   -0.0048    0.0550   -0.0120   -0.0112    0.0127   -0.0197   -0.1180    0.0188    0.0278
    60 C6     3px       -0.0017   -0.0050   -0.0092    0.0020    0.0077   -0.0017    0.0005    0.0072    0.0000   -0.0061
    61 C6     4px        0.0020   -0.0003    0.0020    0.0023    0.0057    0.0099   -0.0023   -0.0085    0.0013    0.0012
    62 C6     2py        0.0081    0.0068    0.0108    0.0004    0.0022    0.0182   -0.0002    0.0848   -0.0829    0.0735
    63 C6     3py        0.0009    0.0061   -0.0037    0.0025    0.0064    0.0139   -0.0025   -0.0018    0.0077   -0.0067
    64 C6     4py        0.0009    0.0002   -0.0020    0.0000    0.0033    0.0034    0.0006    0.0043   -0.0048    0.0037
    65 C6     2pz       -0.0220    0.0116   -0.0895    0.0151    0.0103   -0.0312    0.0233    0.0553    0.0749   -0.1275
    66 C6     3pz        0.0036    0.0148    0.0190   -0.0065   -0.0216   -0.0048    0.0006   -0.0040   -0.0114    0.0176
    67 C6     4pz       -0.0030    0.0015    0.0001   -0.0022   -0.0127   -0.0179    0.0027    0.0070    0.0038   -0.0058
    68 C6     3d2-      -0.0003    0.0005   -0.0020   -0.0001   -0.0016   -0.0019    0.0002    0.0013   -0.0020    0.0016
    69 C6     3d1-       0.0013    0.0004    0.0021   -0.0008   -0.0007    0.0009    0.0003    0.0093   -0.0071    0.0059
    70 C6     3d0       -0.0031   -0.0001   -0.0135    0.0024    0.0029   -0.0023    0.0022    0.0039    0.0058   -0.0099
    71 C6     3d1+       0.0039   -0.0001    0.0185   -0.0038   -0.0056    0.0013   -0.0030   -0.0133   -0.0048    0.0116
    72 C6     3d2+      -0.0009    0.0000   -0.0060    0.0012    0.0016   -0.0004    0.0013    0.0084   -0.0010   -0.0018
    73 C19    1s        -0.0008   -0.0099   -0.0025   -0.0573    0.0420   -0.0197   -0.0130   -0.0032   -0.0092    0.0022
    74 C19    2s        -0.0064    0.0026   -0.0091    0.3075   -0.2734    0.1485    0.0762    0.0439    0.0953   -0.0025
    75 C19    3s        -0.0076   -0.0277   -0.0143   -0.1126    0.0779   -0.0336   -0.0340   -0.0049   -0.0172    0.0119
    76 C19    4s        -0.0032   -0.0033   -0.0047   -0.0238    0.0174   -0.0075   -0.0093   -0.0020   -0.0052    0.0033
    77 C19    2px       -0.0011    0.0248    0.0016    0.0534    0.0032   -0.0259   -0.0412   -0.0247   -0.0468    0.1330
    78 C19    3px        0.0021   -0.0007    0.0005    0.0043    0.0038   -0.0018    0.0025    0.0058    0.0116   -0.0125
    79 C19    4px        0.0011    0.0005    0.0008   -0.0080    0.0117   -0.0079   -0.0014   -0.0032   -0.0056    0.0032
    80 C19    2py       -0.0067    0.0089   -0.0070    0.0504   -0.0090   -0.0158   -0.0652   -0.0419   -0.2162   -0.0422
    81 C19    3py       -0.0075   -0.0036   -0.0088   -0.0293    0.0179   -0.0017    0.0118   -0.0016    0.0240    0.0098
    82 C19    4py       -0.0002    0.0008   -0.0001   -0.0129    0.0147   -0.0091   -0.0130   -0.0028   -0.0087   -0.0011
    83 C19    2pz       -0.0034   -0.0021   -0.0017   -0.0010    0.0011    0.0014   -0.0018   -0.0005    0.0048   -0.0020
    84 C19    3pz       -0.0032   -0.0017   -0.0023   -0.0015    0.0000    0.0018   -0.0001   -0.0015   -0.0013   -0.0003
    85 C19    4pz        0.0001    0.0003   -0.0004   -0.0001   -0.0004    0.0001    0.0005    0.0003   -0.0002    0.0002
    86 C19    3d2-      -0.0007    0.0061    0.0005    0.0106   -0.0017   -0.0025   -0.0074   -0.0032   -0.0134    0.0004
    87 C19    3d1-       0.0001    0.0003    0.0000    0.0000    0.0001   -0.0000   -0.0001    0.0001    0.0003   -0.0002
    88 C19    3d0        0.0001   -0.0008   -0.0001   -0.0090    0.0035    0.0006    0.0034    0.0027    0.0080   -0.0085
    89 C19    3d1+       0.0003    0.0003    0.0000   -0.0000   -0.0002   -0.0000    0.0003   -0.0000   -0.0001    0.0003
    90 C19    3d2+      -0.0003    0.0019    0.0002   -0.0080    0.0048   -0.0008    0.0038    0.0026    0.0152    0.0041
    91 N2     1s         0.0051   -0.0408   -0.0027   -0.0045   -0.0050    0.0020   -0.0049    0.0007    0.0030   -0.0008
    92 N2     2s        -0.0635    0.5891    0.0425   -0.0308    0.2067   -0.1012    0.1479    0.0096    0.1236   -0.0612
    93 N2     3s         0.0076   -0.0766   -0.0061   -0.0139   -0.0007    0.0004   -0.0108    0.0017    0.0138   -0.0017
    94 N2     4s         0.0021   -0.0248   -0.0022   -0.0017   -0.0026    0.0014   -0.0039   -0.0002    0.0007    0.0002
    95 N2     2px       -0.0152   -0.0351   -0.0111   -0.1461   -0.0504    0.1137    0.3683    0.0057   -0.1253   -0.2681
    96 N2     3px       -0.0093   -0.0147   -0.0116    0.0165    0.0418   -0.0602   -0.1090   -0.0096    0.0090    0.0607
    97 N2     4px       -0.0033    0.0010   -0.0018   -0.0067    0.0078   -0.0050    0.0023   -0.0008   -0.0015    0.0064
    98 N2     2py       -0.0014   -0.0084   -0.0061   -0.1197   -0.0561    0.1116   -0.2114    0.1354    0.2427   -0.2131
    99 N2     3py        0.0107   -0.0500    0.0007    0.0461    0.0599   -0.0552    0.0342   -0.0399   -0.0538    0.0295
   100 N2     4py        0.0011   -0.0142    0.0001    0.0001    0.0053   -0.0054   -0.0092   -0.0025   -0.0007    0.0049
   101 N2     2pz        0.0128   -0.0023    0.0012    0.0125    0.0087   -0.0026    0.0009    0.0301    0.0357   -0.0359
   102 N2     3pz        0.0126    0.0133    0.0016    0.0078    0.0008   -0.0079    0.0162    0.0006   -0.0055    0.0057
   103 N2     4pz        0.0021    0.0011   -0.0001    0.0012    0.0006   -0.0002    0.0015    0.0011   -0.0011    0.0016
   104 N2     3d2-      -0.0015    0.0073    0.0000   -0.0017   -0.0082    0.0084   -0.0074    0.0043    0.0066   -0.0026
   105 N2     3d1-       0.0007   -0.0001    0.0005    0.0013    0.0016   -0.0006    0.0024    0.0011   -0.0009   -0.0003
   106 N2     3d0        0.0019   -0.0165   -0.0013    0.0016   -0.0039    0.0015   -0.0003   -0.0007   -0.0021    0.0000
   107 N2     3d1+       0.0008    0.0001   -0.0001    0.0009    0.0002   -0.0007   -0.0029    0.0011    0.0019    0.0009
   108 N2     3d2+      -0.0009    0.0053    0.0001    0.0100    0.0068   -0.0106   -0.0190   -0.0045   -0.0011    0.0140
   109 N5     1s         0.0202   -0.0013    0.0424   -0.0019    0.0018    0.0025   -0.0011   -0.0025    0.0021   -0.0021
   110 N5     2s        -0.1360   -0.0107   -0.5759    0.0401   -0.0093   -0.2215    0.0576    0.1777    0.0595   -0.1074
   111 N5     3s         0.0501   -0.0031    0.0791   -0.0066   -0.0003   -0.0153    0.0012    0.0035    0.0105   -0.0123
   112 N5     4s         0.0119    0.0002    0.0263   -0.0031   -0.0013   -0.0017    0.0001   -0.0013    0.0011   -0.0011
   113 N5     2px       -0.0235   -0.0224    0.0043    0.0328    0.0555    0.0585   -0.0129   -0.2013    0.1481   -0.1406
   114 N5     3px        0.0013   -0.0244    0.0312    0.0103   -0.0241   -0.0613    0.0068    0.0518   -0.0235    0.0288
   115 N5     4px        0.0039   -0.0034    0.0089    0.0018    0.0001   -0.0038    0.0007   -0.0061    0.0014   -0.0002
   116 N5     2py        0.0327    0.0006    0.0077    0.0151    0.0578    0.0519    0.0294    0.3186   -0.1674    0.0974
   117 N5     3py       -0.0106   -0.0075   -0.0219   -0.0011    0.0001   -0.0083   -0.0012   -0.0800    0.0274   -0.0159
   118 N5     4py        0.0022   -0.0025   -0.0076    0.0024    0.0040   -0.0010    0.0004    0.0046   -0.0009    0.0015
   119 N5     2pz       -0.0012    0.0313   -0.0144   -0.0571   -0.1557   -0.1458   -0.0041   -0.1302    0.0108    0.0595
   120 N5     3pz        0.0166    0.0438   -0.0159    0.0062    0.0326    0.0867    0.0053    0.0356   -0.0011   -0.0189
   121 N5     4pz       -0.0075    0.0073   -0.0018   -0.0013   -0.0050    0.0043    0.0018    0.0020   -0.0010   -0.0009
   122 N5     3d2-       0.0033    0.0009    0.0061   -0.0012    0.0007    0.0068   -0.0010   -0.0070    0.0004   -0.0007
   123 N5     3d1-       0.0047   -0.0000    0.0135    0.0012    0.0052    0.0060    0.0012    0.0139   -0.0050    0.0018
   124 N5     3d0        0.0009    0.0010   -0.0085    0.0000    0.0014    0.0057   -0.0011   -0.0060    0.0013   -0.0017
   125 N5     3d1+      -0.0018   -0.0009    0.0083   -0.0019   -0.0061   -0.0075   -0.0006   -0.0085    0.0022    0.0009
   126 N5     3d2+       0.0028    0.0005    0.0025    0.0010    0.0041    0.0055    0.0005    0.0088   -0.0035    0.0010
   127 O7     1s        -0.0006    0.0022    0.0007   -0.0044    0.0023    0.0003    0.0138    0.0003    0.0155    0.0207
   128 O7     2s         0.0599   -0.3019   -0.0131   -0.2076    0.0546    0.0283    0.3545   -0.0030    0.2546    0.3334
   129 O7     3s         0.0017   -0.0100    0.0028   -0.0206    0.0102    0.0001    0.0434   -0.0001    0.0434    0.0588
   130 O7     4s        -0.0001   -0.0003    0.0011   -0.0037    0.0025   -0.0005    0.0084   -0.0004    0.0087    0.0125
   131 O7     2px        0.0067   -0.0019    0.0038   -0.0040    0.0265   -0.0306   -0.1827    0.0085   -0.1172   -0.2272
   132 O7     3px        0.0019    0.0008    0.0040   -0.0105    0.0011    0.0027    0.0231    0.0007    0.0093    0.0209
   133 O7     4px        0.0002    0.0006    0.0006   -0.0015   -0.0009    0.0011    0.0019    0.0005    0.0002    0.0014
   134 O7     2py       -0.0088    0.0396    0.0029   -0.0363    0.0233    0.0042    0.1572    0.0102    0.2931    0.3879
   135 O7     3py        0.0032    0.0009    0.0022    0.0109   -0.0015   -0.0012   -0.0252   -0.0035   -0.0347   -0.0405
   136 O7     4py        0.0009   -0.0013    0.0003   -0.0013   -0.0001    0.0009   -0.0030   -0.0001   -0.0045   -0.0061
   137 O7     2pz        0.0016    0.0008   -0.0002    0.0024    0.0020   -0.0004   -0.0049   -0.0011   -0.0079   -0.0102
   138 O7     3pz        0.0014    0.0012   -0.0011    0.0010    0.0015    0.0010    0.0020   -0.0017    0.0002    0.0011
   139 O7     4pz        0.0004    0.0003   -0.0004    0.0005    0.0006    0.0004    0.0004   -0.0007    0.0001    0.0002
   140 O7     3d2-      -0.0012    0.0037    0.0002    0.0007   -0.0020    0.0023    0.0121    0.0001    0.0114    0.0181
   141 O7     3d1-      -0.0001    0.0001   -0.0000   -0.0001   -0.0000    0.0000    0.0003   -0.0000    0.0004    0.0008
   142 O7     3d0       -0.0008    0.0042    0.0004    0.0014    0.0002   -0.0002    0.0052   -0.0003    0.0070    0.0115
   143 O7     3d1+       0.0001   -0.0001    0.0000    0.0001    0.0003   -0.0001   -0.0003    0.0000   -0.0001   -0.0006
   144 O7     3d2+      -0.0006    0.0047    0.0004   -0.0026    0.0046   -0.0028   -0.0018    0.0010    0.0116    0.0105
   145 O8     1s         0.0232    0.0023   -0.0043    0.0004    0.0026    0.0006    0.0006    0.0123    0.0018   -0.0004
   146 O8     2s        -0.6666   -0.1480    0.3254    0.1005    0.1567    0.0131   -0.0050    0.3522    0.0405    0.0065
   147 O8     3s         0.0273   -0.0036    0.0085    0.0044    0.0129    0.0016   -0.0002    0.0458    0.0066   -0.0012
   148 O8     4s         0.0122   -0.0002   -0.0002   -0.0001    0.0014    0.0000   -0.0008    0.0094    0.0016   -0.0003
   149 O8     2px        0.0982    0.0114   -0.0343    0.0105    0.0141   -0.0051   -0.0031    0.1194    0.0416   -0.0096
   150 O8     3px       -0.0298   -0.0037    0.0038    0.0013   -0.0095   -0.0070    0.0002   -0.0196   -0.0042   -0.0001
   151 O8     4px       -0.0009   -0.0005    0.0018    0.0011    0.0001   -0.0008    0.0006   -0.0021   -0.0009   -0.0001
   152 O8     2py       -0.1015   -0.0226    0.0221    0.0057   -0.0099   -0.0212   -0.0084   -0.1449    0.0259   -0.0260
   153 O8     3py        0.0322    0.0020   -0.0002    0.0046    0.0056   -0.0011   -0.0006    0.0215    0.0027    0.0006
   154 O8     4py        0.0011   -0.0003   -0.0002    0.0008   -0.0003    0.0001   -0.0015    0.0027    0.0007    0.0005
   155 O8     2pz       -0.0089    0.0071    0.0207   -0.0192   -0.0169    0.0396    0.0036    0.0126   -0.0931    0.0552
   156 O8     3pz        0.0009    0.0078   -0.0067   -0.0037    0.0026    0.0134   -0.0015    0.0035    0.0053   -0.0023
   157 O8     4pz       -0.0014    0.0023   -0.0025   -0.0012   -0.0007    0.0016   -0.0002    0.0010    0.0018   -0.0010
   158 O8     3d2-       0.0176    0.0032   -0.0063   -0.0011   -0.0009    0.0005    0.0003    0.0079   -0.0002    0.0009
   159 O8     3d1-      -0.0020    0.0001    0.0019   -0.0015   -0.0016    0.0024   -0.0002   -0.0002   -0.0054    0.0035
[...]
AIVX     1  Mu1.0001  In1.028 Se1.045               0.05328115      0.00023826     -0.00041055     -0.00000010
AIVX     1  Mu1.0001  In1.029 Se1.045               0.10118115      0.00022337     -0.00046901     -0.00000010
AIVX     1  Mu1.0001  In1.021 Se1.046               0.28121518     -0.00031116      0.00057872     -0.00000018
AIVX     1  Mu1.0001  In1.022 Se1.046               0.17813831      0.00001035     -0.00008178     -0.00000000
AIVX     1  Mu1.0001  In1.024 Se1.046               0.19991112      0.00004028     -0.00008716     -0.00000000
AIVX     1  Mu1.0001  In1.027 Se1.046               0.26953584     -0.00030510      0.00044666     -0.00000014
AIVX     1  Mu1.0001  In1.028 Se1.046               0.09733856     -0.00012528      0.00022770     -0.00000003
AIVX     1  Mu1.0001  In1.029 Se1.046               0.14523856      0.00014608     -0.00042324     -0.00000006
AIVX     1  Mu1.0001  In1.018 Se1.047               0.28444704      0.00017541     -0.00024085     -0.00000004
AIVX     1  Mu1.0001  In1.021 Se1.047               0.22785038     -0.00012022      0.00016161     -0.00000002
AIVX     1  Mu1.0001  In1.022 Se1.047               0.12477351      0.00023900     -0.00038263     -0.00000009
AIVX     1  Mu1.0001  In1.024 Se1.047               0.14654631     -0.00008279      0.00019416     -0.00000002
AIVX     1  Mu1.0001  In1.025 Se1.047               0.29142018      0.00016009     -0.00026099     -0.00000004
AIVX     1  Mu1.0001  In1.026 Se1.047               0.26628361      0.00007319     -0.00030911     -0.00000002
AIVX     1  Mu1.0001  In1.027 Se1.047               0.21617104     -0.00000192     -0.00010045      0.00000000
AIVX     1  Mu1.0001  In1.028 Se1.047               0.04397375     -0.00019546      0.00035682     -0.00000007
AIVX     1  Mu1.0001  In1.029 Se1.047               0.09187375     -0.00008935      0.00022590     -0.00000002
AIVX     1  Mu1.0001  In1.021 Se1.048               0.24949820     -0.00002310      0.00000518     -0.00000000
AIVX     1  Mu1.0001  In1.022 Se1.048               0.14642133      0.00001044      0.00012123      0.00000000
AIVX     1  Mu1.0001  In1.024 Se1.048               0.16819413      0.00009842     -0.00019440     -0.00000002
AIVX     1  Mu1.0001  In1.026 Se1.048               0.28793144      0.00011434     -0.00032771     -0.00000004
AIVX     1  Mu1.0001  In1.027 Se1.048               0.23781886     -0.00013531      0.00020363     -0.00000003
AIVX     1  Mu1.0001  In1.028 Se1.048               0.06562158     -0.00023310      0.00048134     -0.00000011
AIVX     1  Mu1.0001  In1.029 Se1.048               0.11352158     -0.00002917      0.00007651     -0.00000000
AIVX     1  Mu1.0001  In1.021 Se1.049               0.26405064      0.00003367     -0.00001420     -0.00000000
AIVX     1  Mu1.0001  In1.022 Se1.049               0.16097377      0.00000363     -0.00025370     -0.00000000
AIVX     1  Mu1.0001  In1.024 Se1.049               0.18274657     -0.00000536     -0.00003922      0.00000000
AIVX     1  Mu1.0001  In1.027 Se1.049               0.25237130     -0.00002484      0.00016521     -0.00000000
AIVX     1  Mu1.0001  In1.028 Se1.049               0.08017401     -0.00008951      0.00052211     -0.00000005
AIVX     1  Mu1.0001  In1.029 Se1.049               0.12807402     -0.00008211      0.00019430     -0.00000002
AIVX     1  Mu1.0001  In1.022 Se1.050               0.20024123     -0.00007782     -0.00013306      0.00000001
AIVX     1  Mu1.0001  In1.024 Se1.050               0.22201403     -0.00003722      0.00004488     -0.00000000
AIVX     1  Mu1.0001  In1.027 Se1.050               0.29163876      0.00026688     -0.00031603     -0.00000008
AIVX     1  Mu1.0001  In1.028 Se1.050               0.11944147      0.00027541     -0.00043778     -0.00000012
AIVX     1  Mu1.0001  In1.029 Se1.050               0.16734147      0.00007097     -0.00019764     -0.00000001
AIVX     1  Mu1.0001  In1.022 Se1.051               0.23479028     -0.00019705      0.00029000     -0.00000006
AIVX     1  Mu1.0001  In1.024 Se1.051               0.25656309     -0.00012079      0.00023009     -0.00000003
AIVX     1  Mu1.0001  In1.028 Se1.051               0.15399053     -0.00042198      0.00092670     -0.00000039
AIVX     1  Mu1.0001  In1.029 Se1.051               0.20189053     -0.00010970      0.00016410     -0.00000002
AIVX     1  Mu1.0001  In1.022 Se1.052               0.24758453     -0.00012763      0.00027653     -0.00000004
AIVX     1  Mu1.0001  In1.024 Se1.052               0.26935734      0.00002852     -0.00002496     -0.00000000
AIVX     1  Mu1.0001  In1.028 Se1.052               0.16678478      0.00008022     -0.00019985     -0.00000002
AIVX     1  Mu1.0001  In1.029 Se1.052               0.21468478      0.00003135     -0.00007436     -0.00000000
AIVX     1  Mu1.0001  In1.022 Se1.053               0.25750237      0.00003249      0.00018038      0.00000001
AIVX     1  Mu1.0001  In1.024 Se1.053               0.27927517     -0.00017904      0.00038474     -0.00000007
AIVX     1  Mu1.0001  In1.028 Se1.053               0.17670261     -0.00027472      0.00030965     -0.00000009
AIVX     1  Mu1.0001  In1.029 Se1.053               0.22460261     -0.00011574      0.00022982     -0.00000003
AIVX     1  Mu1.0001  In1.022 Se1.054               0.26464367     -0.00009340      0.00024060     -0.00000002
AIVX     1  Mu1.0001  In1.024 Se1.054               0.28641647     -0.00011118      0.00021838     -0.00000002
AIVX     1  Mu1.0001  In1.028 Se1.054               0.18384391      0.00004512     -0.00020689     -0.00000001
AIVX     1  Mu1.0001  In1.029 Se1.054               0.23174391     -0.00008196      0.00012137     -0.00000001
AIVX     1  Mu1.0001  In1.022 Se1.055               0.29216152     -0.00003056      0.00001910     -0.00000000
AIVX     1  Mu1.0001  In1.028 Se1.055               0.21136177      0.00011838     -0.00020236     -0.00000002
AIVX     1  Mu1.0001  In1.029 Se1.055               0.25926177     -0.00017425      0.00032081     -0.00000006
AIVX     1  Mu1.0001  In1.028 Se1.056               0.24022443      0.00000245      0.00002281      0.00000000
AIVX     1  Mu1.0001  In1.029 Se1.056               0.28812443      0.00011494     -0.00017059     -0.00000002
AIVX     1  Mu1.0001  In1.022 Se1.057               0.23285581     -0.00008901      0.00035343     -0.00000003
AIVX     1  Mu1.0001  In1.024 Se1.057               0.25462862      0.00002355     -0.00001086     -0.00000000
AIVX     1  Mu1.0001  In1.028 Se1.057               0.15205606     -0.00024243      0.00039089     -0.00000009
AIVX     1  Mu1.0001  In1.029 Se1.057               0.19995606      0.00006407     -0.00015053     -0.00000001
AIVX     1  Mu1.0001  In1.022 Se1.058               0.29555868     -0.00019577      0.00025770     -0.00000005
AIVX     1  Mu1.0001  In1.028 Se1.058               0.21475893      0.00003950      0.00004333      0.00000000
AIVX     1  Mu1.0001  In1.029 Se1.058               0.26265893      0.00021829     -0.00037132     -0.00000008
AIVX     1  Mu1.0001  In1.028 Se1.059               0.24476810      0.00055597     -0.00076054     -0.00000042
AIVX     1  Mu1.0001  In1.029 Se1.059               0.29266810      0.00013047     -0.00018941     -0.00000002
AIVX     1  Mu1.0001  In1.028 Se1.060               0.27173000     -0.00000584     -0.00018714      0.00000000
AIVX     1  Mu1.0001  In1.028 Se1.066               0.29483935     -0.00016949      0.00017966     -0.00000003
AIVX     1  Mu1.0001  In1.018 Se1.209               0.25554487      0.00030973     -0.00048501     -0.00000015
AIVX     1  Mu1.0001  In1.020 Se1.209               0.29524074      0.00036347     -0.00000934     -0.00000000
AIVX     1  Mu1.0001  In1.021 Se1.209               0.19894821      0.00020886     -0.00042039     -0.00000009
AIVX     1  Mu1.0001  In1.022 Se1.209               0.09587134      0.00014709     -0.00018093     -0.00000003
AIVX     1  Mu1.0001  In1.024 Se1.209               0.11764414      0.00004586     -0.00007912     -0.00000000
AIVX     1  Mu1.0001  In1.025 Se1.209               0.26251801     -0.00000689      0.00007148     -0.00000000
AIVX     1  Mu1.0001  In1.026 Se1.209               0.23738144      0.00013141     -0.00048942     -0.00000006
AIVX     1  Mu1.0001  In1.027 Se1.209               0.18726887      0.00027271     -0.00064324     -0.00000018
AIVX     1  Mu1.0001  In1.028 Se1.209               0.01507158      0.00003546     -0.00029687     -0.00000001
AIVX     1  Mu1.0001  In1.029 Se1.209               0.06297158      0.00014180     -0.00036781     -0.00000005
--
 
   (Skipping property calculation,
    use PROP keyword to activate)
--
 
  Total CASPT2 energies:
::    CASPT2 Root  1     Total energy:   -455.23188712
::    CASPT2 Root  2     Total energy:   -455.03470398
::    CASPT2 Root  3     Total energy:   -455.04033051
::    CASPT2 Root  4     Total energy:   -454.97005629
::    CASPT2 Root  5     Total energy:   -454.95888797
::    CASPT2 Root  6     Total energy:   -454.95494804
::    CASPT2 Root  7     Total energy:   -454.93002945
 
++ Multi-State CASPT2 section:
********************************************************************************
  MULTI-STATE CASPT2 SECTION
--------------------------------------------------------------------------------
 
  Output diagonal energies have been shifted. Add   -455.000000000000     
 
  Effective Hamiltonian matrix (Symmetric):
 
                1               2               3               4               5
   1        -0.23188712
   2         0.00026167     -0.03470398
   3         0.00042218     -0.00082786     -0.04033051
   4         0.01313251     -0.00016286      0.00058802      0.02994371
   5        -0.00613976      0.00066678      0.00080605     -0.00066900      0.04111203
   6        -0.00917322      0.00011564     -0.00166465      0.00078845     -0.01093214
   7         0.00096324      0.00094677      0.00083951     -0.00023366      0.00081376
 
                6               7
   6         0.04505196
   7         0.00004000      0.06997055
 
       Total MS-CASPT2 energies:
::    MS-CASPT2 Root  1     Total energy:   -455.23300545
::    MS-CASPT2 Root  2     Total energy:   -455.04049960
::    MS-CASPT2 Root  3     Total energy:   -455.03459762
::    MS-CASPT2 Root  4     Total energy:   -454.96957594
::    MS-CASPT2 Root  5     Total energy:   -454.96745642
::    MS-CASPT2 Root  6     Total energy:   -454.94572514
::    MS-CASPT2 Root  7     Total energy:   -454.92998320
 
       Eigenvectors:
            0.99788985      0.00115173      0.00168320      0.03789029     -0.05179593
           -0.00144894      0.14307181      0.98962499      0.00022829      0.00867223
           -0.00183147      0.98943426     -0.14310812      0.00745418     -0.00876195
           -0.04987929     -0.00845543      0.00341550      0.96253318     -0.26378021
            0.02360308     -0.00840018     -0.00771049      0.22735764      0.73612811
            0.03398031      0.01819101     -0.00532210      0.14264305      0.62081513
           -0.00326929     -0.00871795     -0.00775702     -0.00022227     -0.01700536
 
           -0.00926185      0.00272381
           -0.00333436      0.00918483
           -0.01845216      0.00798340
            0.03669040     -0.00570893
           -0.63608090      0.03373243
            0.76974500     -0.01484130
            0.03331897      0.99922658
 
--
 
  THE ORIGINAL CI ARRAYS ARE NOW MIXED AS LINEAR
  COMBINATIONS, GIVEN BY THE EIGENVECTORS.
  A NEW JOBIPH FILE NAMED 'JOBMIX' IS PREPARED.
********************************************************************************
 
++ Mixed CI coefficients:
  The CI coefficients for the MIXED state nr.   1
--------------------------------------------------------------------------------
 CI COEFFICIENTS LARGER THAN  0.50D-01
  Occupation of active orbitals, and spin coupling
  of open shells. (u,d: Spin up or down).
  SGUGA info is (Midvert:IsyUp:UpperWalk/LowerWalk)
        Conf  SGUGA info        Occupation    Coefficient         Weight
           1  ( 1:1:   1/   1)   22222200        0.969159       0.939269
           2  ( 1:1:   2/   1)   22222ud0       -0.085617       0.007330
           4  ( 1:1:   4/   1)   22222020       -0.086943       0.007559
          17  ( 1:1:  17/   1)   22220202       -0.089591       0.008026
          61  ( 2:1:   1/   3)   2u2222d0       -0.076880       0.005911
          84  ( 2:1:   4/   4)   u222220d        0.101489       0.010300
         171  ( 3:1:   1/   8)   20222220       -0.091162       0.008311
         195  ( 3:1:   5/  10)   02222202       -0.075252       0.005663
 
  The CI coefficients for the MIXED state nr.   2
--------------------------------------------------------------------------------
 CI COEFFICIENTS LARGER THAN  0.50D-01
  Occupation of active orbitals, and spin coupling
  of open shells. (u,d: Spin up or down).
  SGUGA info is (Midvert:IsyUp:UpperWalk/LowerWalk)
        Conf  SGUGA info        Occupation    Coefficient         Weight
           7  ( 1:1:   7/   1)   22222u0d        0.273796       0.074964
           8  ( 1:1:   8/   1)   2222u20d       -0.082025       0.006728
          21  ( 2:1:   1/   1)   222u22d0        0.070086       0.004912
          24  ( 2:1:   4/   1)   222u220d       -0.074640       0.005571
          44  ( 2:1:   4/   2)   22u2220d       -0.902544       0.814586
          45  ( 2:1:   5/   2)   22u22dud        0.061353       0.003764
          47  ( 2:1:   7/   2)   22u22udd        0.108326       0.011734
          49  ( 2:1:   9/   2)   22u2202d        0.077444       0.005998
          54  ( 2:1:  14/   2)   22u2d202        0.168647       0.028442
         165  ( 3:1:   5/   7)   u2d22202        0.118820       0.014118
         219  ( 4:1:   1/   4)   2uu222dd       -0.062839       0.003949
         293  ( 5:1:   1/  15)   20u2222d       -0.090429       0.008177
 
  The CI coefficients for the MIXED state nr.   3
--------------------------------------------------------------------------------
 CI COEFFICIENTS LARGER THAN  0.50D-01
  Occupation of active orbitals, and spin coupling
  of open shells. (u,d: Spin up or down).
  SGUGA info is (Midvert:IsyUp:UpperWalk/LowerWalk)
        Conf  SGUGA info        Occupation    Coefficient         Weight
          21  ( 2:1:   1/   1)   222u22d0        0.952994       0.908198
          22  ( 2:1:   2/   1)   222u2d20        0.087103       0.007587
          24  ( 2:1:   4/   1)   222u220d       -0.115622       0.013368
          38  ( 2:1:  18/   1)   222u02d2        0.083186       0.006920
          44  ( 2:1:   4/   2)   22u2220d        0.076376       0.005833
         111  ( 3:1:   1/   2)   22ud2220        0.053559       0.002869
         121  ( 3:1:   1/   3)   2u2d2220        0.179911       0.032368
         213  ( 4:1:   1/   3)   u22u22dd        0.077806       0.006054
         270  ( 5:1:   2/   9)   022u22d2       -0.076518       0.005855
 
  The CI coefficients for the MIXED state nr.   4
--------------------------------------------------------------------------------
 CI COEFFICIENTS LARGER THAN  0.50D-01
  Occupation of active orbitals, and spin coupling
  of open shells. (u,d: Spin up or down).
  SGUGA info is (Midvert:IsyUp:UpperWalk/LowerWalk)
        Conf  SGUGA info        Occupation    Coefficient         Weight
           2  ( 1:1:   2/   1)   22222ud0       -0.077937       0.006074
           8  ( 1:1:   8/   1)   2222u20d        0.935492       0.875145
          10  ( 1:1:  10/   1)   2222udud       -0.050404       0.002541
          12  ( 1:1:  12/   1)   2222uudd       -0.091164       0.008311
          13  ( 1:1:  13/   1)   2222u02d       -0.080356       0.006457
          44  ( 2:1:   4/   2)   22u2220d       -0.086505       0.007483
          68  ( 2:1:   8/   3)   2u22u2dd        0.068180       0.004648
          84  ( 2:1:   4/   4)   u222220d       -0.073887       0.005459
          94  ( 2:1:  14/   4)   u222d202       -0.238520       0.056892
         174  ( 3:1:   4/   8)   2022u22d        0.091299       0.008336
 
  The CI coefficients for the MIXED state nr.   5
--------------------------------------------------------------------------------
 CI COEFFICIENTS LARGER THAN  0.50D-01
  Occupation of active orbitals, and spin coupling
  of open shells. (u,d: Spin up or down).
  SGUGA info is (Midvert:IsyUp:UpperWalk/LowerWalk)
        Conf  SGUGA info        Occupation    Coefficient         Weight
           1  ( 1:1:   1/   1)   22222200        0.071952       0.005177
           2  ( 1:1:   2/   1)   22222ud0        0.877177       0.769440
           4  ( 1:1:   4/   1)   22222020       -0.177820       0.031620
           7  ( 1:1:   7/   1)   22222u0d       -0.261484       0.068374
           8  ( 1:1:   8/   1)   2222u20d        0.073826       0.005450
          19  ( 1:1:  19/   1)   22220ud2       -0.082247       0.006764
          44  ( 2:1:   4/   2)   22u2220d       -0.084555       0.007150
          62  ( 2:1:   2/   3)   2u222d20        0.227971       0.051971
          84  ( 2:1:   4/   4)   u222220d        0.065964       0.004351
          85  ( 2:1:   5/   4)   u2222dud        0.055200       0.003047
          87  ( 2:1:   7/   4)   u2222udd        0.086579       0.007496
         171  ( 3:1:   1/   8)   20222220        0.101655       0.010334
         196  ( 3:1:   6/  10)   02222ud2       -0.068276       0.004662
 
  The CI coefficients for the MIXED state nr.   6
--------------------------------------------------------------------------------
 CI COEFFICIENTS LARGER THAN  0.50D-01
  Occupation of active orbitals, and spin coupling
  of open shells. (u,d: Spin up or down).
  SGUGA info is (Midvert:IsyUp:UpperWalk/LowerWalk)
        Conf  SGUGA info        Occupation    Coefficient         Weight
           2  ( 1:1:   2/   1)   22222ud0        0.263088       0.069215
           7  ( 1:1:   7/   1)   22222u0d        0.872600       0.761430
          24  ( 2:1:   4/   1)   222u220d        0.075759       0.005739
          44  ( 2:1:   4/   2)   22u2220d        0.246133       0.060581
          62  ( 2:1:   2/   3)   2u222d20        0.066765       0.004458
          65  ( 2:1:   5/   3)   2u222dud        0.142915       0.020425
          67  ( 2:1:   7/   3)   2u222udd        0.200082       0.040033
         173  ( 3:1:   3/   8)   20222u2d        0.126357       0.015966
 
  The CI coefficients for the MIXED state nr.   7
--------------------------------------------------------------------------------
 CI COEFFICIENTS LARGER THAN  0.50D-01
  Occupation of active orbitals, and spin coupling
  of open shells. (u,d: Spin up or down).
  SGUGA info is (Midvert:IsyUp:UpperWalk/LowerWalk)
        Conf  SGUGA info        Occupation    Coefficient         Weight
           7  ( 1:1:   7/   1)   22222u0d       -0.050802       0.002581
          21  ( 2:1:   1/   1)   222u22d0        0.114515       0.013114
          24  ( 2:1:   4/   1)   222u220d        0.885882       0.784788
          25  ( 2:1:   5/   1)   222u2dud        0.229093       0.052484
          27  ( 2:1:   7/   1)   222u2udd        0.315521       0.099554
          44  ( 2:1:   4/   2)   22u2220d       -0.078142       0.006106
         112  ( 3:1:   2/   2)   22ud22ud       -0.067054       0.004496
         201  ( 4:1:   1/   1)   22uu22dd        0.065125       0.004241
         208  ( 4:1:   2/   2)   2u2u2d2d       -0.080882       0.006542
         261  ( 5:1:   1/   7)   202u222d        0.080838       0.006535
 
--
 
--- Stop Module: caspt2 at Wed Nov 13 21:11:53 2024 /rc=_RC_ALL_IS_WELL_ ---
*** files: xmldump
    saved to directory /home/pcaah4
--- Module caspt2 spent 6 minutes 58 seconds ---

.##################.
.# Happy landing! #.
.##################.

    Timing: Wall=675.39 User=589.24 System=76.96
******************************************************
*** WorkDir at /srv/COMMUNAL_SCRATCH/10407 cleaned ***
******************************************************
