   This run of MOLCAS is using the pymolcas driver

                             OPE
                             OPE          NMOL  CASOP  ENMOLC A   SO
                 OPE        NMOLC        AS  OP EN  MO LC     AS  OP
                OPENM       OL CA        SO  PE NM  OL CA     SOP EN
                OP EN      MO   LC       AS  OP ENMOL  CASO   PENMOL
                OP  EN     MO   LC       AS  OP EN     MO     LC ASO
               OP   E  NMOL  C  AS       OP  EN MO     LC     AS  OP
               OP  E   NMO   LC AS        OPEN  MO     LCASOP EN   M
               O  PEN   MO  LCA  SO
            OPE   NMO   L   CAS    OP
        OPENMOL  CASOP     ENMOL   CASOPE
     OPENMOLCA   SOPENMOLCASOPEN   MOLCASOPE
    OPENMOLCAS   OP           EN   MOL    CAS
    OPENMOLCAS       OP  ENM        O     LCA
    OPENMOLCAS    OPEN  MOLCASO     P  E  NMO
    OPENMOLCAS     OP               E  N  MOL
    OPENMOLCA   SO           PENM   O  L  CAS    OPEN    MO    LCAS
    OPENMOLCA   SOP           ENM   O  L  CAS   OP  EN  MOLC  AS   O
    OPENMOLCA   SOPE           NM      O  LCA   S      OP  EN MO
    OPENMOLC                AS         O  PEN   M      OL  CA  SOPE
    OPENMO        LCASOPE  NMOL        C  ASO   P      ENMOLC     AS
    OPE     NMO      LCA  SO     P     E   NM   OL  CA SO  PE N   MO
          OPENMOLCA            SOPE   NMO        LCAS  O    P  ENMO
     OPENMOLCASOPENMOLCASOPENMOLCASOPENMOLCA
        OPENMOLCASOPENMOLCASOPENMOLCASOPE
            OPENMOLCASOPENMOLCASOPENM
               OPENMOLCASOPENMOLCA        version: v23.06
                   OPENMOLCASO
                       OPE                tag:

 OpenMolcas is free software; you can redistribute it and/or modify it
 under the terms of the GNU Lesser General Public License version 2.1.
 OpenMolcas is distributed in the hope that it will be useful, but it
 is provided "as is" and without any express or implied warranties.
 For more details see the full text of the license in the file
 LICENSE or in <http://www.gnu.org/licenses/>.

                 Copyright (C) The OpenMolcas Authors
           For the author list and the recommended citation,
                   consult the file CONTRIBUTORS.md

           *************************************************
           * pymolcas version py2.24                       *
           *   build 4567b286dd94b1984b333a4ddf893180      *
           *   (after the EMIL interpreter by V. Veryazov) *
           *************************************************

configuration info
------------------
Host name: loginchem01.nottingham.ac.uk (Linux)
C Compiler ID: Intel
C flags: -std=gnu99 -gcc-sys -qopenmp
Fortran Compiler ID: Intel
Fortran flags: -fpp -i8 -heap-arrays -qopenmp
Definitions: _MOLCAS_;_I8_;_LINUX_
Parallel: OFF (GA=OFF)


   --------------------------------------------------------------------------------------------------
  |
  |              Project: orca_geometry_optimisation_0_270_BP86_def2-SVP_def2J_scf_cas1_ras12i11_cas8
  |       Submitted from: /home/pcaah4/diamide_project
  |         Scratch area: /srv/COMMUNAL_SCRATCH/12370
  |      Save outputs to: /home/pcaah4/diamide_project
  |               Molcas: /software/chemistry/openmolcas/openmolcas-23.06-openmp
  |
  | Scratch area is empty
  |
  |       MOLCAS_DRIVER = /software/chemistry/openmolcas/openmolcas-23.06-openmp/sbin/pymolcas
  | MOLCAS_KEEP_WORKDIR = NO
  |       MOLCAS_NPROCS = 1
  |       MOLCAS_SOURCE = /software/chemistry/openmolcas/openmolcas-23.06-openmp
  |    MOLCAS_STRUCTURE = 0
  |
   --------------------------------------------------------------------------------------------------

++ ---------   Input file   ---------

&SEWARD
TITLE
orca_geometry_optimisation_0_270_BP86_def2-SVP_def2J_scf_cas1_ras12i11
MULTIPOLES
2
SDIPOLE
ANGMOM
0 0 0
BASIS SET
C.ANO-S...4S3P1D.
C1           -0.119086   -0.151901   -0.046067 /Angstrom
C3            2.003561    1.236191   -0.096574 /Angstrom
C4            1.158197    2.533874   -0.050528 /Angstrom
C6           -0.121372    4.144316   -1.388643 /Angstrom
C19          -0.612580   -1.580310    0.179094 /Angstrom
END OF BASIS
BASIS SET
N.ANO-S...4S3P1D.
N2            1.250927   -0.018072   -0.089345 /Angstrom
N5            0.804898    3.030466   -1.283952 /Angstrom
END OF BASIS
BASIS SET
O.ANO-S...4S3P1D.
O7           -0.898029    0.789333   -0.182204 /Angstrom
O8            0.966369    3.127059    1.006033 /Angstrom
END OF BASIS
BASIS SET
H.ANO-S...2S1P.
H9           -1.435711   -1.785168   -0.531876 /Angstrom
H10          -1.040674   -1.649073    1.200124 /Angstrom
H11           0.168700   -2.358475    0.068870 /Angstrom
H12           1.804190   -0.859940    0.078851 /Angstrom
H13           2.650603    1.285516    0.803274 /Angstrom
H14           2.668698    1.266143   -0.990100 /Angstrom
H15           0.820743    2.369109   -2.062831 /Angstrom
H16          -1.179075    3.800878   -1.426932 /Angstrom
H17           0.001231    4.769437   -0.484598 /Angstrom
H18           0.097752    4.752387   -2.289355 /Angstrom
END OF BASIS
END OF INPUT

&RASSCF
TITLE
orca_geometry_optimisation_0_270_BP86_def2-SVP_def2J_scf_cas1_ras12i11
LUMORB
SPIN
1
SYMMETRY
1
NACTEL
12  0  0
INACTIVE
29
DELETED  ! delete Rydberg orbitals from an initial CAS(12,11) if done
3
FROZEN
0
RAS2
8
ITERATIONS
64 25
CIROOT
7 7
1 2 3 4 5 6 7
1 1 1 1 1 1 1
LEVSHFT
0.3
CIMX
20
FILEorb = /home/pcaah4/diamide_project/cas/ras12i11/ras_orb/orca_geometry_optimisation_0_270_BP86_def2-SVP_def2J_scf_cas1_ras12i11.RasOrb
ALTEr
2
 1 36 38
 1 37 39
END OF INPUT

&RASSI
NROF JOBIPH
    1 7
    1 2 3 5 4 6 7
TOFILE
TRDI
TDMN
1.0D-6
END OF INPUT

&CASPT2
TITLE
orca_geometry_optimisation_0_270_BP86_def2-SVP_def2J_scf_cas1_ras12i11
MULTISTATE
7 1 2 3 4 5 6 7
SHIFT
0.35
MAXITER
50
END OF INPUT

-- ----------------------------------

--- Start Module: seward at Tue Jun 10 16:48:55 2025 ---
 
()()()()()()()()()()()()()()()()()()()()()()()()()()()()()()()()()()()()()()()()()()()()()()()()()()

                                              &SEWARD

                                   only a single process is used
                       available to each process: 2.0 GB of memory, 1 thread
                                            pid: 3111429
()()()()()()()()()()()()()()()()()()()()()()()()()()()()()()()()()()()()()()()()()()()()()()()()()()
 
               SEWARD will generate:
                  Multipole Moment integrals up to order  2
                  Kinetic Energy integrals
                  Nuclear Attraction integrals (point charge)
                  One-Electron Hamiltonian integrals
                  Velocity integrals
                  Orbital angular momentum around ( 0.0000  0.0000  0.0000 )
                  Velocity quadrupole around ( 0.9033  2.7704 -0.4150 )
                  Two-Electron Repulsion integrals
 
 Title:
             orca_geometry_optimisation_0_270_BP86_def2-SVP_def2J_scf_cas1_ras12i11     
 
 
                   Integrals are discarded if absolute value <: 0.10E-13
                   Integral cutoff threshold is set to       <: 0.10E-15
 
++    Symmetry information:
      ---------------------
 
                    Character Table for C1 
 
                             E  
                    a        1  x, y, xy, Rz, z, xz, Ry, yz, Rx, I
--
 
 
++    Basis set information:
      ----------------------
 
 
      Basis set label: C.ANO-S...4S3P1D......
 
      Electronic valence basis set:
      ------------------
      Associated Effective Charge   6.000000 au
      Associated Actual Charge      6.000000 au
      Nuclear Model: Point charge
 
      Shell  nPrim  nBasis  Cartesian Spherical Contaminant
         s      10       4        X                  
         p       6       3        X                  
         d       3       1                 X         
 
 
      Basis set label: N.ANO-S...4S3P1D......
 
      Electronic valence basis set:
      ------------------
      Associated Effective Charge   7.000000 au
      Associated Actual Charge      7.000000 au
      Nuclear Model: Point charge
 
      Shell  nPrim  nBasis  Cartesian Spherical Contaminant
         s      10       4        X                  
         p       6       3        X                  
         d       3       1                 X         
 
 
      Basis set label: O.ANO-S...4S3P1D......
 
      Electronic valence basis set:
      ------------------
      Associated Effective Charge   8.000000 au
      Associated Actual Charge      8.000000 au
      Nuclear Model: Point charge
 
      Shell  nPrim  nBasis  Cartesian Spherical Contaminant
         s      10       4        X                  
         p       6       3        X                  
         d       3       1                 X         
 
 
      Basis set label: H.ANO-S...2S1P......
 
      Electronic valence basis set:
      ------------------
      Associated Effective Charge   1.000000 au
      Associated Actual Charge      1.000000 au
      Nuclear Model: Point charge
 
      Shell  nPrim  nBasis  Cartesian Spherical Contaminant
         s       7       2        X                  
         p       3       1        X                  
--
 
 
++    Molecular structure info:
      -------------------------
 
                    ************************************************ 
                    **** Cartesian Coordinates / Bohr, Angstrom **** 
                    ************************************************ 
 
     Center  Label                x              y              z                     x              y              z
        1      C1              -0.225040      -0.287051      -0.087054             -0.119086      -0.151901      -0.046067
        2      C3               3.786182       2.336062      -0.182498              2.003561       1.236191      -0.096574
        3      C4               2.188675       4.788328      -0.095484              1.158197       2.533874      -0.050528
        4      C6              -0.229360       7.831622      -2.624155             -0.121372       4.144316      -1.388643
        5      C19             -1.157608      -2.986353       0.338439             -0.612580      -1.580310       0.179094
        6      N2               2.363909      -0.034151      -0.168838              1.250927      -0.018072      -0.089345
        7      N5               1.521037       5.726751      -2.426318              0.804898       3.030466      -1.283952
        8      O7              -1.697029       1.491623      -0.344316             -0.898029       0.789333      -0.182204
        9      O8               1.826173       5.909285       1.901127              0.966369       3.127059       1.006033
       10      H9              -2.713101      -3.373479      -1.005100             -1.435711      -1.785168      -0.531876
       11      H10             -1.966589      -3.116296       2.267906             -1.040674      -1.649073       1.200124
       12      H11              0.318797      -4.456872       0.130145              0.168700      -2.358475       0.068870
       13      H12              3.409425      -1.625051       0.149007              1.804190      -0.859940       0.078851
       14      H13              5.008914       2.429273       1.517968              2.650603       1.285516       0.803274
       15      H14              5.043108       2.392664      -1.871018              2.668698       1.266143      -0.990100
       16      H15              1.550979       4.476967      -3.898186              0.820743       2.369109      -2.062831
       17      H16             -2.228129       7.182618      -2.696511             -1.179075       3.800878      -1.426932
       18      H17              0.002326       9.012930      -0.915758              0.001231       4.769437      -0.484598
       19      H18              0.184725       8.980710      -4.326254              0.097752       4.752387      -2.289355
 
                    ************************************************* 
                    **** InterNuclear Distances / Bohr, Angstrom **** 
                    ************************************************* 
 
     Atom centers         Bohr        Angstrom
   13 H12       6 N2      1.930049        1.021338
   16 H15       7 N5      1.931127        1.021908
   18 H17       4 C6      2.089925        1.105941
   10 H9        5 C19     2.091535        1.106793
   12 H11       5 C19     2.094179        1.108192
   19 H18       4 C6      2.094996        1.108624
   11 H10       5 C19     2.096229        1.109277
   14 H13       2 C3      2.096508        1.109425
   17 H16       4 C6      2.102741        1.112722
   15 H14       2 C3      2.105746        1.114313
    9 O8        3 C4      2.318277        1.226779
    8 O7        1 C1      2.323062        1.229312
    7 N5        3 C4      2.599839        1.375776
    6 N2        1 C1      2.602558        1.377214
    7 N5        4 C6      2.744724        1.452446
    6 N2        2 C3      2.764228        1.462767
    5 C19       1 C1      2.887379        1.527935
    3 C4        2 C3      2.928003        1.549433
   11 H10      10 H9      3.366896        1.781685
   15 H14      14 H13     3.389356        1.793570
   18 H17      17 H16     3.390583        1.794219
   12 H11      11 H10     3.404431        1.801547
   12 H11      10 H9      3.413931        1.806574
   19 H18      18 H17     3.415522        1.807417
   19 H18      17 H16     3.422142        1.810920
   16 H15       3 C4      3.868351        2.047043
   13 H12       1 C1      3.880116        2.053269
   18 H17       7 N5      3.922658        2.075781
   14 H13       6 N2      3.988712        2.110735
   13 H12       2 C3      3.992776        2.112886
   15 H14       6 N2      3.995617        2.114389
   19 H18       7 N5      3.997967        2.115633
   16 H15       4 C6      4.005805        2.119781
   14 H13       3 C4      4.015235        2.124771
   17 H16       7 N5      4.030980        2.133103
   10 H9        1 C1      4.069310        2.153386
   11 H10       1 C1      4.072279        2.154957
   15 H14       3 C4      4.127895        2.184388
   13 H12      12 H11     4.191843        2.218228
   12 H11       1 C1      4.210741        2.228228
    8 O7        6 N2      4.341659        2.297507
    9 O8        7 N5      4.342027        2.297702
   16 H15      15 H14     4.544084        2.404625
    8 O7        5 C19     4.561732        2.413965
   14 H13      13 H12     4.568366        2.417475
   18 H17       9 O8      4.570981        2.418859
    9 O8        2 C3      4.577232        2.422167
    6 N2        5 C19     4.623193        2.446488
    4 C6        3 C4      4.637101        2.453848
    7 N5        2 C3      4.654285        2.462942
   19 H18      16 H15     4.725843        2.500808
   14 H13       9 O8      4.731504        2.503804
   13 H12       5 C19     4.769363        2.523838
   15 H14      13 H12     4.784501        2.531849
    2 C3        1 C1      4.793718        2.536726
   17 H16      16 H15     4.800649        2.540394
    6 N2        3 C4      4.826219        2.553925
   18 H17       3 C4      4.827031        2.554355
   16 H15       2 C3      4.835900        2.559048
   15 H14       7 N5      4.881545        2.583202
   12 H11       6 N2      4.881837        2.583357
   10 H9        8 O7      5.013806        2.653192
    8 O7        3 C4      5.101850        2.699783
   11 H10       8 O7      5.303705        2.806600
    9 O8        4 C6      5.329050        2.820012
    8 O7        2 C3      5.550213        2.937046
    3 C4        1 C1      5.620104        2.974031
   18 H17      16 H15     5.645189        2.987305
   17 H16       3 C4      5.657396        2.993765
   16 H15       8 O7      5.664965        2.997770
--
 
 
            Nuclear Potential Energy            465.74180440 au
 
 
      Basis set specifications :
      Symmetry species         a  
      Basis functions          212
 
 
      Input file to MOLDEN was generated!
 
--- Stop Module: seward at Tue Jun 10 16:50:46 2025 /rc=_RC_ALL_IS_WELL_ ---
*** files: orca_geometry_optimisation_0_270_BP86_def2-SVP_def2J_scf_cas1_ras12i11_cas8.GssOrb
           orca_geometry_optimisation_0_270_BP86_def2-SVP_def2J_scf_cas1_ras12i11_cas8.guessorb.molden xmldump
    saved to directory /home/pcaah4/diamide_project
--- Module seward spent 1 minute 50 seconds ---

*** symbolic link created: INPORB -> orca_geometry_optimisation_0_270_BP86_def2-SVP_def2J_scf_cas1_ras12i11_cas8.GssOrb
--- Start Module: rasscf at Tue Jun 10 16:50:46 2025 ---
 
()()()()()()()()()()()()()()()()()()()()()()()()()()()()()()()()()()()()()()()()()()()()()()()()()()

                                              &RASSCF

                                   only a single process is used
                       available to each process: 2.0 GB of memory, 1 thread
                                            pid: 3117017
()()()()()()()()()()()()()()()()()()()()()()()()()()()()()()()()()()()()()()()()()()()()()()()()()()
 
 
      Header of the ONEINT file:
      --------------------------
      orca_geometry_optimisation_0_270_BP86_def2-SVP_def2J_scf_cas1_ras12i11
      Integrals generated by Gateway/Seward, Tue Jun 10 16:48:55 2025
 
 
      OrdInt status: non-squared
 
 
      Cartesian coordinates in Angstrom:
      -----------------------------------------------------
      No.  Label        X            Y            Z        
      -----------------------------------------------------
       1   C1        -0.11908600  -0.15190100  -0.04606700
       2   C3         2.00356100   1.23619100  -0.09657400
       3   C4         1.15819700   2.53387400  -0.05052800
       4   C6        -0.12137200   4.14431600  -1.38864300
       5   C19       -0.61258000  -1.58031000   0.17909400
       6   N2         1.25092700  -0.01807200  -0.08934500
       7   N5         0.80489800   3.03046600  -1.28395200
       8   O7        -0.89802900   0.78933300  -0.18220400
       9   O8         0.96636900   3.12705900   1.00603300
      10   H9        -1.43571100  -1.78516800  -0.53187600
      11   H10       -1.04067400  -1.64907300   1.20012400
      12   H11        0.16870000  -2.35847500   0.06887000
      13   H12        1.80419000  -0.85994000   0.07885100
      14   H13        2.65060300   1.28551600   0.80327400
      15   H14        2.66869800   1.26614300  -0.99010000
      16   H15        0.82074300   2.36910900  -2.06283100
      17   H16       -1.17907500   3.80087800  -1.42693200
      18   H17        0.00123100   4.76943700  -0.48459800
      19   H18        0.09775200   4.75238700  -2.28935500
      -----------------------------------------------------
      Nuclear repulsion energy =  465.74180440
 
++    Wave function specifications:
      -----------------------------
 
      Number of closed shell electrons          58
      Number of electrons in active shells      12
      Max number of holes in RAS1 space          0
      Max nr of electrons in RAS3 space          0
      Number of inactive orbitals               29
      Number of active orbitals                  8
      Number of secondary orbitals             172
      Spin quantum number                      0.0
      State symmetry                             1
--
 
++    Orbital specifications:
      -----------------------
 
      Symmetry species                           1
                                                 a
      Frozen orbitals                            0
      Inactive orbitals                         29
      Active orbitals                            8
      RAS1 orbitals                              0
      RAS2 orbitals                              8
      RAS3 orbitals                              0
      Secondary orbitals                       172
      Deleted orbitals                           3
      Number of basis functions                212
--
 
++    CI expansion specifications:
      ----------------------------
 
      Number of CSFs                           336
      Number of determinants                   406
      Number of root(s) required                 7
      Root chosen for geometry opt.              7
      CI roots used                              1     2     3     4     5     6     7
      weights                                0.143 0.143 0.143 0.143 0.143 0.143 0.143
      highest root included in the CI            7
      max. size of the explicit Hamiltonian    200
--
 
++    Optimization specifications:
      ----------------------------
 
      RASSCF algorithm: Conventional
      Maximum number of macro iterations        64
      Maximum number of SX iterations           25
      Threshold for RASSCF energy            0.100E-07
      Threshold for max MO rotation          0.100E+00
      Threshold for max BLB element          0.100E-03
      Level shift parameter                  0.300E+00
      Make Quasi-Newton update
--
 
      The MO-coefficients are taken from the file:
      /home/pcaah4/diamide_project/cas/ras12i11/ras_orb/orca_geometry_optimisation_0_270_BP86_def2-SVP_def2J_scf_cas1_ras12i11.RasOrb                                                                                                                                 
      Title: RASSCF average (pseudo-natural) orbitals                                      
 
      Total molecular charge    0.00
 
      Molecular orbitals exchanged:
        In symmetry  1 :  36  38
        In symmetry  1 :  37  39
 
 
      ************************************************************************************************************************
      *                                                                                                                      *
      *                                            Wave function control section                                             *
      *                                                                                                                      *
      ************************************************************************************************************************
 
 
                                         RASSCF iterations: Energy and convergence statistics
                                         ----------------------------------------------------
 
      Iter CI   SX   CI       RASSCF       Energy    max ROT     max BLB   max BLB  Level Ln srch  Step   QN   Walltime
          iter iter root      energy       change     param      element    value   shift minimum  type update hh:mm:ss
 Nr of preliminary CI iterations:   4
        1   1   25    0  -453.67976576    0.00E+00  -0.92E-01   36  40 1 -0.17E-01*  0.16   0.00    SX    NO    0:00:13
        2   6   27    0  -453.69586395   -0.16E-01*  0.60E-01   36  40 1 -0.10E-01*  0.13   0.00    SX    NO    0:00:07
        3   3   11    0  -453.69895777   -0.31E-02*  0.34E-01   36  40 1 -0.58E-02*  0.13   0.00    SX    NO    0:00:07
        4   6   11    0  -453.70002077   -0.11E-02*  0.20E-01   36  40 1 -0.34E-02*  0.13   0.00    SX    NO    0:00:06
        5   4   11    0  -453.70033997   -0.32E-03*  0.30E-01   36  40 1 -0.21E-02*  0.13   1.67    QN   YES    0:00:06
        6   6   10    0  -453.70054421   -0.20E-03*  0.22E-02   34  39 1 -0.32E-03*  0.13   1.03    QN   YES    0:00:06
        7   1    9    0  -453.70054829   -0.41E-05*  0.26E-02   19  68 1 -0.47E-03*  0.13   0.78    QN   YES    0:00:06
        8   7    9    0  -453.70055458   -0.63E-05*  0.11E-02   19  68 1 -0.22E-03*  0.13   1.02    QN   YES    0:00:06
        9   3    9    0  -453.70055709   -0.25E-05*  0.95E-03   19  68 1 -0.21E-03*  0.13   1.39    QN   YES    0:00:06
       10   6    8    0  -453.70055846   -0.14E-05*  0.50E-03   20  66 1  0.77E-04   0.13   0.86    QN   YES    0:00:06
       11   4    8    0  -453.70055869   -0.23E-06*  0.33E-03   19  68 1 -0.58E-04   0.13   1.42    QN   YES    0:00:06
       12   6    7    0  -453.70055884   -0.15E-06*  0.77E-04   32  38 1  0.24E-04   0.13   1.00    QN   YES    0:00:06
       13   1    7    0  -453.70055886   -0.24E-07*  0.34E-03   19  68 1 -0.26E-04   0.13   1.37    QN   YES    0:00:06
       14   6    8    0  -453.70055884    0.24E-07*  0.11E-03   19  68 1  0.52E-04   0.13   0.52    LS   YES    0:00:06
       15   4    7    0  -453.70055888   -0.44E-07*  0.17E-03   22  68 1 -0.28E-04   0.13   2.50    LS   YES    0:00:06
       16   5    7    0  -453.70055888    0.35E-09   0.64E-04   19  68 1 -0.37E-04   0.13   0.60    QN   YES    0:00:06
      Convergence after 16 iterations
       17   5    7    0  -453.70055890   -0.19E-07*  0.64E-04   19  39 1  0.11E-04   0.13   0.60    QN   YES    0:00:06
 
      ************************************************************************************************************************
                                                      Wave function printout:
                       occupation of active orbitals, and spin coupling of open shells (u,d: Spin up or down)
      ************************************************************************************************************************
 
      Note: transformation to natural orbitals
      has been made, which may change the order of the CSFs.
 
      printout of CI-coefficients larger than  0.05 for root  1
      energy=    -453.952109
      conf/sym  11111111     Coeff  Weight
             1  22222200  -0.94157 0.88655
             2  22222ud0  -0.16324 0.02665
            24  222u220d   0.06841 0.00468
            41  22u222d0  -0.11461 0.01314
            64  2u22220d  -0.12008 0.01442
            81  u22222d0  -0.07489 0.00561
           105  22202202   0.09123 0.00832
           125  2u2d2202  -0.05641 0.00318
           141  22022220   0.09797 0.00960
           161  u2d22220   0.07514 0.00565
           175  20222202   0.07460 0.00557
           191  02222220   0.08791 0.00773
 
      printout of CI-coefficients larger than  0.05 for root  2
      energy=    -453.747422
      conf/sym  11111111     Coeff  Weight
             3  2222u2d0   0.93637 0.87679
             5  2222ud20   0.10319 0.01065
             8  2222u20d   0.10952 0.01199
            28  222uu2dd  -0.06773 0.00459
            41  22u222d0   0.07834 0.00614
            43  22u2d220  -0.14262 0.02034
            66  2u22d2ud   0.06481 0.00420
            68  2u22u2dd   0.10828 0.01172
            83  u222d220  -0.16164 0.02613
           107  2220u2d2  -0.09377 0.00879
           127  2u2du2d2   0.05860 0.00343
           177  2022u2d2  -0.07503 0.00563
 
      printout of CI-coefficients larger than  0.05 for root  3
      energy=    -453.741443
      conf/sym  11111111     Coeff  Weight
             2  22222ud0  -0.05470 0.00299
             7  22222u0d   0.92625 0.85794
             9  222220ud   0.14560 0.02120
            24  222u220d   0.11751 0.01381
            33  222u2d02   0.15608 0.02436
            44  22u2220d   0.10457 0.01093
            45  22u22dud   0.07743 0.00599
            47  22u22udd  -0.08285 0.00686
            73  2u222d02  -0.11211 0.01257
            87  u2222udd  -0.08365 0.00700
           143  22022u2d   0.09789 0.00958
           163  u2d22u2d   0.07295 0.00532
           193  02222u2d   0.08499 0.00722
 
      printout of CI-coefficients larger than  0.05 for root  4
      energy=    -453.630526
      conf/sym  11111111     Coeff  Weight
             1  22222200   0.08737 0.00763
             2  22222ud0  -0.16370 0.02680
             7  22222u0d  -0.11911 0.01419
             8  2222u20d   0.31266 0.09775
            10  2222udud  -0.05904 0.00349
            12  2222uudd  -0.06984 0.00488
            24  222u220d   0.83590 0.69872
            27  222u2udd   0.08324 0.00693
            41  22u222d0   0.06082 0.00370
            44  22u2220d   0.11863 0.01407
            45  22u22dud  -0.05373 0.00289
            48  22u2u2dd   0.06015 0.00362
            64  2u22220d   0.10438 0.01089
           112  22ud22ud   0.05236 0.00274
           125  2u2d2202  -0.20916 0.04375
           201  22uu22dd  -0.08298 0.00689
           213  u22u22dd  -0.07017 0.00492
           249  220u222d   0.09112 0.00830
           257  u2du222d   0.06487 0.00421
           269  022u222d   0.07627 0.00582
 
      printout of CI-coefficients larger than  0.05 for root  5
      energy=    -453.622364
      conf/sym  11111111     Coeff  Weight
             1  22222200  -0.08112 0.00658
             2  22222ud0  -0.19233 0.03699
             3  2222u2d0  -0.05156 0.00266
             8  2222u20d  -0.14668 0.02152
            24  222u220d  -0.05487 0.00301
            41  22u222d0   0.85711 0.73463
            44  22u2220d   0.17192 0.02956
            81  u22222d0  -0.15859 0.02515
           141  22022220   0.14952 0.02236
           152  2ud222ud   0.05906 0.00349
           161  u2d22220  -0.23962 0.05742
           191  02222220  -0.07568 0.00573
           201  22uu22dd   0.05459 0.00298
           219  2uu222dd   0.09649 0.00931
           238  22u022d2   0.08567 0.00734
           294  20u222d2  -0.06873 0.00472
 
      printout of CI-coefficients larger than  0.05 for root  6
      energy=    -453.609756
      conf/sym  11111111     Coeff  Weight
             3  2222u2d0   0.07301 0.00533
             8  2222u20d  -0.62359 0.38887
            10  2222udud   0.19222 0.03695
            12  2222uudd   0.21919 0.04804
            13  2222u02d   0.07998 0.00640
            24  222u220d   0.33739 0.11383
            36  222udud2   0.06701 0.00449
            44  22u2220d  -0.51740 0.26770
            45  22u22dud   0.15141 0.02292
            46  22u2d2ud   0.11238 0.01263
            47  22u22udd   0.05688 0.00324
            48  22u2u2dd  -0.16875 0.02848
           125  2u2d2202  -0.08015 0.00642
           162  u2d222ud   0.06532 0.00427
           225  u2u222dd   0.08605 0.00740
           301  02u2222d  -0.05719 0.00327
 
      printout of CI-coefficients larger than  0.05 for root  7
      energy=    -453.600292
      conf/sym  11111111     Coeff  Weight
             3  2222u2d0  -0.06242 0.00390
             7  22222u0d   0.10147 0.01030
             8  2222u20d   0.46675 0.21786
            10  2222udud  -0.15072 0.02272
            12  2222uudd  -0.16799 0.02822
            13  2222u02d  -0.06190 0.00383
            24  222u220d  -0.09283 0.00862
            36  222udud2  -0.05134 0.00264
            41  22u222d0   0.20877 0.04359
            44  22u2220d  -0.70726 0.50022
            45  22u22dud   0.23696 0.05615
            46  22u2d2ud  -0.09343 0.00873
            47  22u22udd   0.07028 0.00494
            48  22u2u2dd   0.12676 0.01607
            49  22u2202d   0.06354 0.00404
            85  u2222dud   0.07656 0.00586
           116  22ud2ud2   0.05543 0.00307
           155  2ud22202   0.05428 0.00295
           161  u2d22220  -0.05547 0.00308
           162  u2d222ud   0.09071 0.00823
           225  u2u222dd   0.12169 0.01481
           301  02u2222d  -0.07940 0.00630
 
      Natural orbitals and occupation numbers for root  1
      sym 1:   1.996533   1.959238   1.948207   1.995660   1.999767   1.999067   0.056101   0.045427
 
      Natural orbitals and occupation numbers for root  2
      sym 1:   1.999374   1.995790   1.999825   1.957553   0.991712   1.999068   1.009491   0.047186
 
      Natural orbitals and occupation numbers for root  3
      sym 1:   1.995715   1.999944   1.944559   1.999746   1.999420   1.004533   0.059536   0.996548
 
      Natural orbitals and occupation numbers for root  4
      sym 1:   1.991198   1.984099   1.931873   1.081493   1.965073   1.948167   0.122937   0.975160
 
      Natural orbitals and occupation numbers for root  5
      sym 1:   1.954919   1.994450   1.167250   1.956559   1.978291   1.992466   0.882584   0.073481
 
      Natural orbitals and occupation numbers for root  6
      sym 1:   1.981749   1.996206   1.928206   1.970271   1.105395   1.895898   0.154853   0.967422
 
      Natural orbitals and occupation numbers for root  7
      sym 1:   1.944221   1.997916   1.050094   1.990157   1.978787   1.889490   0.168140   0.981194
 
      ************************************************************************************************************************
      *                                                                                                                      *
      *                                                    Final results                                                     *
      *                                                                                                                      *
      ************************************************************************************************************************
 
 
++    Wave function specifications:
      -----------------------------
 
      Number of closed shell electrons          58
      Number of electrons in active shells      12
      Max number of holes in RAS1 space          0
      Max nr of electrons in RAS3 space          0
      Number of inactive orbitals               29
      Number of active orbitals                  8
      Number of secondary orbitals             172
      Spin quantum number                      0.0
      State symmetry                             1
--
 
++    Orbital specifications:
      -----------------------
 
      Symmetry species                           1
                                                 a
      Frozen orbitals                            0
      Inactive orbitals                         29
      Active orbitals                            8
      RAS1 orbitals                              0
      RAS2 orbitals                              8
      RAS3 orbitals                              0
      Secondary orbitals                       172
      Deleted orbitals                           3
      Number of basis functions                212
--
 
++    CI expansion specifications:
      ----------------------------
 
      Number of CSFs                           336
      Number of determinants                   406
      Number of root(s) required                 7
      CI roots used                              1     2     3     4     5     6     7
      weights                                0.143 0.143 0.143 0.143 0.143 0.143 0.143
      highest root included in the CI            7
      Root passed to geometry opt.               7
--
 
++    Final optimization conditions:
      ------------------------------
 
      Average CI energy                            -453.70055890
      RASSCF energy for state  7                   -453.60029246
      Super-CI energy                                -0.00000004
      RASSCF energy change                            0.00000000
      Max change in MO coefficients               0.565E-04
      Max non-diagonal density matrix element     0.644E-04
      Maximum BLB matrix element                  0.112E-04
      (orbital pair  19,  39 in symmetry   1)
      Norm of electronic gradient            0.274E+00
--
 
 
      Final state energy(ies):
      ------------------------
 
::    RASSCF root number  1 Total energy:   -453.95210881
::    RASSCF root number  2 Total energy:   -453.74742207
::    RASSCF root number  3 Total energy:   -453.74144303
::    RASSCF root number  4 Total energy:   -453.63052607
::    RASSCF root number  5 Total energy:   -453.62236437
::    RASSCF root number  6 Total energy:   -453.60975551
::    RASSCF root number  7 Total energy:   -453.60029246
 
++    Molecular orbitals:
      -------------------
 
      Pseudonatural active orbitals and approximate occupation numbers
 
 
 
 
      Molecular orbitals for symmetry species 1: a  
 
 
      Orbital                 1         2         3         4         5         6         7         8         9        10
      Energy           -20.5887  -20.5286  -15.6206  -15.5834  -11.3316  -11.2934  -11.2773  -11.2750  -11.2246   -1.4148
      Occ. No.           2.0000    2.0000    2.0000    2.0000    2.0000    2.0000    2.0000    2.0000    2.0000    2.0000
 
     1 C1     1s         0.0001    0.0003    0.0000    0.0002   -0.0002   -0.0007    0.0000    0.9999   -0.0059   -0.0037
     2 C1     2s         0.0005    0.0007    0.0001    0.0010   -0.0008   -0.0012    0.0001    0.0020   -0.0003    0.0293
     3 C1     3s         0.0003   -0.0006    0.0000    0.0004   -0.0005   -0.0009    0.0000   -0.0004   -0.0006    0.0033
     4 C1     4s         0.0000   -0.0004   -0.0000    0.0001   -0.0001   -0.0003   -0.0000    0.0013   -0.0002    0.0028
     5 C1     2px        0.0002   -0.0012    0.0000    0.0016    0.0000   -0.0003    0.0001    0.0013   -0.0002   -0.0031
     6 C1     3px        0.0002   -0.0006   -0.0001    0.0011   -0.0000   -0.0005    0.0001    0.0012    0.0002    0.0045
     7 C1     4px        0.0000    0.0002   -0.0001   -0.0002   -0.0001   -0.0002   -0.0000    0.0004    0.0002    0.0029
     8 C1     2py       -0.0002    0.0025   -0.0001    0.0002   -0.0005    0.0002   -0.0004    0.0008   -0.0008    0.0235
     9 C1     3py       -0.0004    0.0016   -0.0002   -0.0000   -0.0005   -0.0001   -0.0005    0.0008   -0.0001    0.0198
    10 C1     4py       -0.0002   -0.0004   -0.0000   -0.0001   -0.0001   -0.0002   -0.0001    0.0007    0.0003    0.0076
    11 C1     2pz        0.0000   -0.0003    0.0002   -0.0000    0.0001   -0.0001   -0.0000   -0.0001    0.0001   -0.0037
    12 C1     3pz       -0.0000   -0.0002    0.0002   -0.0001    0.0001   -0.0000   -0.0000   -0.0001    0.0000   -0.0036
    13 C1     4pz       -0.0000    0.0001    0.0000   -0.0000   -0.0000    0.0000    0.0000   -0.0001   -0.0000   -0.0014
    14 C1     3d2-       0.0000    0.0002    0.0000    0.0001   -0.0000    0.0000    0.0000   -0.0004    0.0001   -0.0025
    15 C1     3d1-      -0.0000   -0.0000    0.0000    0.0000    0.0000    0.0000   -0.0000   -0.0001    0.0000   -0.0004
    16 C1     3d0       -0.0000   -0.0000   -0.0000    0.0001   -0.0000   -0.0000   -0.0000   -0.0003    0.0001   -0.0025
    17 C1     3d1+      -0.0000   -0.0000    0.0000    0.0000    0.0000    0.0000   -0.0000    0.0001   -0.0000    0.0009
    18 C1     3d2+      -0.0000    0.0000    0.0000   -0.0002    0.0000    0.0000   -0.0000    0.0001   -0.0001    0.0003
    19 C3     1s         0.0000   -0.0000   -0.0001    0.0005    0.0072    0.9995   -0.0001    0.0005    0.0000   -0.0114
    20 C3     2s         0.0000   -0.0003   -0.0002    0.0025   -0.0004   -0.0012    0.0001   -0.0006    0.0001    0.0185
    21 C3     3s        -0.0000   -0.0002    0.0000    0.0013   -0.0005   -0.0024   -0.0000   -0.0005    0.0000   -0.0299
    22 C3     4s        -0.0000   -0.0000    0.0000    0.0002   -0.0000    0.0007   -0.0001   -0.0002   -0.0000   -0.0042
    23 C3     2px        0.0001   -0.0003   -0.0002   -0.0008    0.0002    0.0002   -0.0001    0.0006    0.0002   -0.0076
    24 C3     3px        0.0003   -0.0002   -0.0001   -0.0003    0.0004    0.0001   -0.0000    0.0007    0.0003    0.0087
    25 C3     4px        0.0001    0.0000    0.0001    0.0003   -0.0000   -0.0006    0.0000    0.0002    0.0001   -0.0038
    26 C3     2py       -0.0002    0.0001   -0.0001   -0.0002    0.0004   -0.0003    0.0003    0.0004   -0.0001    0.0082
    27 C3     3py       -0.0001    0.0003   -0.0000    0.0006   -0.0001   -0.0001    0.0003    0.0006    0.0001   -0.0149
    28 C3     4py        0.0000    0.0001    0.0000    0.0003   -0.0002   -0.0003   -0.0000    0.0001    0.0001    0.0024
    29 C3     2pz       -0.0009   -0.0001    0.0007    0.0000    0.0004   -0.0002   -0.0003    0.0000   -0.0002    0.0242
    30 C3     3pz       -0.0007   -0.0000    0.0006   -0.0001    0.0004   -0.0001   -0.0004    0.0001   -0.0001    0.0107
    31 C3     4pz        0.0001    0.0000   -0.0000   -0.0001   -0.0000   -0.0000   -0.0001   -0.0000    0.0000   -0.0036
    32 C3     3d2-       0.0000    0.0000   -0.0000   -0.0000    0.0000   -0.0000   -0.0000    0.0000    0.0000   -0.0010
    33 C3     3d1-      -0.0001    0.0000    0.0000   -0.0000    0.0000   -0.0000    0.0000   -0.0000   -0.0000    0.0043
    34 C3     3d0        0.0000   -0.0000    0.0000    0.0000   -0.0001    0.0001   -0.0000   -0.0000   -0.0000   -0.0038
    35 C3     3d1+       0.0001   -0.0000    0.0000   -0.0000   -0.0000    0.0000   -0.0000   -0.0000   -0.0000   -0.0020
    36 C3     3d2+      -0.0000   -0.0000   -0.0000    0.0001    0.0000    0.0000   -0.0000    0.0001   -0.0000   -0.0022
    37 C4     1s         0.0005    0.0001    0.0004   -0.0001    1.0000   -0.0072    0.0002    0.0001    0.0000   -0.0420
    38 C4     2s         0.0020    0.0010    0.0024   -0.0005    0.0025    0.0009    0.0001    0.0002    0.0000    0.3302
    39 C4     3s         0.0004    0.0007    0.0014   -0.0002    0.0001    0.0003    0.0000    0.0001    0.0000   -0.0267
    40 C4     4s        -0.0001    0.0002    0.0004   -0.0000    0.0013    0.0001   -0.0000   -0.0000   -0.0000   -0.0031
    41 C4     2px       -0.0010   -0.0004   -0.0009   -0.0003   -0.0006    0.0007   -0.0003   -0.0005   -0.0002   -0.0015
    42 C4     3px       -0.0011   -0.0005   -0.0007   -0.0004   -0.0009    0.0005   -0.0001   -0.0007   -0.0003    0.0368
    43 C4     4px       -0.0001   -0.0001   -0.0000   -0.0001   -0.0004    0.0000    0.0002   -0.0002   -0.0001    0.0001
    44 C4     2py        0.0015   -0.0003    0.0004    0.0006    0.0009   -0.0009    0.0000    0.0001    0.0001    0.0788
    45 C4     3py        0.0010   -0.0004    0.0002    0.0005    0.0005   -0.0002   -0.0005    0.0002    0.0002   -0.0296
    46 C4     4py       -0.0001   -0.0001   -0.0001   -0.0000    0.0005    0.0002   -0.0004    0.0001    0.0001    0.0163
    47 C4     2pz        0.0025   -0.0006   -0.0019   -0.0006   -0.0004    0.0000    0.0001   -0.0004   -0.0001    0.0874
    48 C4     3pz        0.0018   -0.0006   -0.0015   -0.0005   -0.0005    0.0000    0.0001   -0.0005   -0.0001   -0.0504
    49 C4     4pz       -0.0002    0.0000    0.0001    0.0000   -0.0000   -0.0000    0.0001   -0.0001   -0.0000    0.0227
    50 C4     3d2-      -0.0001   -0.0000   -0.0000    0.0000   -0.0001    0.0000   -0.0001   -0.0000    0.0000   -0.0090
    51 C4     3d1-      -0.0001   -0.0000    0.0001   -0.0000    0.0003   -0.0000   -0.0000   -0.0000   -0.0000    0.0287
    52 C4     3d0       -0.0001    0.0000   -0.0002   -0.0001    0.0005   -0.0001    0.0001   -0.0000   -0.0000    0.0312
    53 C4     3d1+       0.0001    0.0000   -0.0000    0.0000   -0.0000   -0.0000    0.0000    0.0000    0.0000   -0.0069
    54 C4     3d2+      -0.0001   -0.0000    0.0000    0.0001   -0.0001   -0.0000   -0.0000   -0.0000   -0.0000   -0.0096
    55 C6     1s         0.0001   -0.0001    0.0003   -0.0001   -0.0002    0.0001    0.9996   -0.0000   -0.0000   -0.0060
    56 C6     2s         0.0004   -0.0004    0.0010   -0.0008   -0.0001    0.0000   -0.0003   -0.0002   -0.0001    0.0347
    57 C6     3s         0.0002   -0.0003    0.0001   -0.0007   -0.0002   -0.0000   -0.0018   -0.0003   -0.0001   -0.0024
    58 C6     4s         0.0000   -0.0001   -0.0002   -0.0002   -0.0002   -0.0000    0.0009   -0.0001   -0.0000    0.0012
    59 C6     2px        0.0006    0.0000    0.0002   -0.0002   -0.0003    0.0001    0.0002   -0.0001    0.0000    0.0033
    60 C6     3px        0.0005    0.0000   -0.0001   -0.0002   -0.0003    0.0000   -0.0000   -0.0001    0.0000   -0.0111
    61 C6     4px       -0.0000   -0.0000   -0.0001   -0.0000   -0.0001   -0.0001    0.0005   -0.0000   -0.0000    0.0015
    62 C6     2py        0.0003    0.0000   -0.0004    0.0002    0.0001   -0.0001    0.0000    0.0000    0.0000   -0.0233
    63 C6     3py        0.0002   -0.0000    0.0001    0.0002    0.0002   -0.0000    0.0002    0.0001    0.0000   -0.0039
    64 C6     4py       -0.0001   -0.0000    0.0002   -0.0000    0.0000    0.0000   -0.0006    0.0000   -0.0000   -0.0006
    65 C6     2pz       -0.0003   -0.0000   -0.0001    0.0001   -0.0002    0.0001   -0.0001    0.0000   -0.0000    0.0159
    66 C6     3pz       -0.0003    0.0000   -0.0002    0.0000   -0.0004    0.0000    0.0000   -0.0000   -0.0000    0.0077
    67 C6     4pz       -0.0000    0.0000   -0.0000   -0.0000   -0.0002   -0.0000    0.0001   -0.0000   -0.0000    0.0002
    68 C6     3d2-      -0.0000   -0.0000    0.0001    0.0000   -0.0000   -0.0000    0.0001   -0.0000   -0.0000   -0.0035
    69 C6     3d1-       0.0000   -0.0000   -0.0001    0.0000   -0.0000   -0.0000   -0.0000    0.0000    0.0000   -0.0006
    70 C6     3d0        0.0000    0.0000   -0.0000    0.0000    0.0000   -0.0000    0.0001    0.0000    0.0000   -0.0025
    71 C6     3d1+       0.0000    0.0000    0.0000    0.0000    0.0001    0.0000    0.0000    0.0000   -0.0000    0.0013
    72 C6     3d2+      -0.0000   -0.0000   -0.0000    0.0000   -0.0000   -0.0000    0.0000    0.0000   -0.0000   -0.0007
    73 C19    1s        -0.0001    0.0001   -0.0000   -0.0000    0.0000    0.0002   -0.0001    0.0059    0.9999    0.0002
    74 C19    2s        -0.0005    0.0009   -0.0004    0.0001    0.0000    0.0009   -0.0004    0.0007    0.0019    0.0099
    75 C19    3s        -0.0004    0.0005   -0.0003    0.0001    0.0000    0.0005   -0.0004    0.0003   -0.0005    0.0082
    76 C19    4s        -0.0001    0.0000   -0.0001   -0.0000    0.0000    0.0001   -0.0001    0.0001    0.0012    0.0038
    77 C19    2px       -0.0001    0.0007    0.0001   -0.0003    0.0001    0.0002   -0.0000   -0.0002   -0.0001   -0.0016
    78 C19    3px       -0.0001    0.0005    0.0001   -0.0002    0.0001    0.0002   -0.0000   -0.0003   -0.0001   -0.0017
    79 C19    4px       -0.0000   -0.0002    0.0000    0.0000   -0.0000   -0.0000   -0.0000   -0.0001    0.0001    0.0005
    80 C19    2py       -0.0001   -0.0001   -0.0002    0.0003    0.0001    0.0002   -0.0002    0.0003   -0.0005    0.0078
    81 C19    3py       -0.0001   -0.0002   -0.0002    0.0003    0.0001    0.0001   -0.0001   -0.0002   -0.0001    0.0056
    82 C19    4py        0.0000   -0.0001    0.0000   -0.0001    0.0000   -0.0001    0.0000   -0.0001    0.0003    0.0003
    83 C19    2pz       -0.0000   -0.0001   -0.0000   -0.0000   -0.0000   -0.0001    0.0000   -0.0001    0.0000    0.0010
    84 C19    3pz        0.0000   -0.0001   -0.0001    0.0000   -0.0000   -0.0001    0.0000   -0.0000   -0.0000    0.0012
    85 C19    4pz        0.0000    0.0000   -0.0000    0.0000   -0.0000    0.0000   -0.0000    0.0000   -0.0000   -0.0001
    86 C19    3d2-      -0.0000    0.0001   -0.0000   -0.0000    0.0000    0.0000   -0.0000   -0.0000   -0.0001    0.0002
    87 C19    3d1-      -0.0000    0.0000    0.0000   -0.0000   -0.0000   -0.0000    0.0000    0.0000    0.0000   -0.0000
    88 C19    3d0        0.0000   -0.0001   -0.0000   -0.0001   -0.0000   -0.0000   -0.0000    0.0001    0.0001    0.0004
    89 C19    3d1+      -0.0000   -0.0000   -0.0000    0.0000   -0.0000    0.0000    0.0000   -0.0000    0.0000    0.0000
    90 C19    3d2+       0.0000    0.0001   -0.0000   -0.0000   -0.0000   -0.0000   -0.0000   -0.0001    0.0001   -0.0002
    91 N2     1s         0.0000    0.0001   -0.0000    0.9998    0.0001    0.0002   -0.0000   -0.0002    0.0001   -0.0023
    92 N2     2s         0.0001    0.0004   -0.0003   -0.0002    0.0005    0.0018   -0.0001   -0.0002    0.0005    0.0321
    93 N2     3s         0.0000    0.0003   -0.0002   -0.0016    0.0004    0.0011   -0.0001   -0.0003    0.0004   -0.0023
    94 N2     4s         0.0000    0.0000   -0.0001    0.0004    0.0001    0.0004   -0.0000    0.0000    0.0001   -0.0007
    95 N2     2px        0.0000    0.0004    0.0001    0.0005    0.0001    0.0002    0.0001   -0.0001   -0.0003   -0.0076
    96 N2     3px       -0.0001    0.0005    0.0001    0.0004    0.0001    0.0000    0.0001    0.0002   -0.0002   -0.0065
    97 N2     4px       -0.0000    0.0000   -0.0001   -0.0000   -0.0000    0.0000   -0.0000   -0.0002    0.0001    0.0000
    98 N2     2py       -0.0001   -0.0014   -0.0003   -0.0007    0.0004    0.0010    0.0001    0.0005   -0.0001    0.0121
    99 N2     3py       -0.0001   -0.0016   -0.0004    0.0001    0.0005    0.0009    0.0001    0.0005   -0.0001    0.0039
   100 N2     4py        0.0000    0.0000   -0.0000    0.0006   -0.0001    0.0001    0.0000   -0.0001    0.0001   -0.0005
   101 N2     2pz        0.0002    0.0002   -0.0001    0.0002   -0.0001    0.0000    0.0001    0.0000    0.0001   -0.0030
   102 N2     3pz        0.0002    0.0002   -0.0002   -0.0001   -0.0001    0.0000    0.0001    0.0000    0.0001   -0.0033
   103 N2     4pz        0.0000   -0.0000   -0.0000    0.0001    0.0000    0.0000    0.0000    0.0000   -0.0000    0.0006
   104 N2     3d2-      -0.0000    0.0001   -0.0000   -0.0002    0.0000   -0.0000    0.0000   -0.0001   -0.0000    0.0004
   105 N2     3d1-       0.0000   -0.0000   -0.0000   -0.0000   -0.0000    0.0000    0.0000    0.0000   -0.0000   -0.0002
   106 N2     3d0       -0.0000   -0.0000    0.0000    0.0001   -0.0000    0.0001    0.0000    0.0001   -0.0001   -0.0008
   107 N2     3d1+       0.0000   -0.0000   -0.0000    0.0000   -0.0000   -0.0000    0.0000    0.0000   -0.0000   -0.0002
   108 N2     3d2+      -0.0000   -0.0001   -0.0000    0.0000   -0.0000   -0.0000   -0.0000    0.0000    0.0000    0.0003
   109 N5     1s         0.0001   -0.0001    0.9998   -0.0000   -0.0003    0.0000    0.0001    0.0000    0.0000   -0.0165
   110 N5     2s         0.0005   -0.0007   -0.0004   -0.0001   -0.0004    0.0003    0.0015   -0.0000    0.0000    0.1164
   111 N5     3s         0.0004   -0.0005   -0.0016   -0.0001   -0.0005    0.0002    0.0008   -0.0001    0.0000   -0.0418
   112 N5     4s         0.0001   -0.0001    0.0004   -0.0000   -0.0000    0.0000    0.0003   -0.0000    0.0000   -0.0100
   113 N5     2px        0.0004   -0.0001   -0.0001   -0.0003    0.0002   -0.0000   -0.0007    0.0001   -0.0000   -0.0009
   114 N5     3px        0.0005   -0.0001    0.0001   -0.0005    0.0000   -0.0001   -0.0006    0.0001   -0.0000   -0.0026
   115 N5     4px        0.0000   -0.0000   -0.0004   -0.0001    0.0001   -0.0001   -0.0001   -0.0000    0.0000    0.0032
   116 N5     2py       -0.0012    0.0002   -0.0005    0.0004    0.0002   -0.0002    0.0006   -0.0000   -0.0001    0.0212
   117 N5     3py       -0.0015    0.0003   -0.0000    0.0006   -0.0001   -0.0001    0.0003    0.0001   -0.0001    0.0263
   118 N5     4py       -0.0001   -0.0000   -0.0001    0.0001   -0.0002    0.0001    0.0001    0.0001   -0.0000   -0.0038
   119 N5     2pz       -0.0006   -0.0001   -0.0007   -0.0003    0.0003    0.0000   -0.0002   -0.0003    0.0000    0.0384
   120 N5     3pz       -0.0006   -0.0000   -0.0003   -0.0004    0.0001   -0.0000    0.0001   -0.0003    0.0000   -0.0164
   121 N5     4pz        0.0000    0.0001    0.0005    0.0000    0.0002   -0.0000    0.0002    0.0000    0.0000    0.0000
   122 N5     3d2-      -0.0001   -0.0000    0.0001   -0.0000    0.0001   -0.0000    0.0001   -0.0000   -0.0000   -0.0000
   123 N5     3d1-      -0.0000    0.0000    0.0002    0.0000   -0.0000    0.0000    0.0000    0.0000    0.0000   -0.0011
   124 N5     3d0       -0.0001   -0.0000    0.0001   -0.0000    0.0000    0.0000   -0.0000    0.0000    0.0000    0.0058
   125 N5     3d1+       0.0000    0.0000   -0.0000   -0.0000   -0.0000    0.0000   -0.0000    0.0000    0.0000    0.0011
   126 N5     3d2+      -0.0000    0.0000   -0.0000    0.0000    0.0001   -0.0000    0.0000   -0.0000   -0.0000    0.0015
   127 O7     1s        -0.0000    0.9997   -0.0000    0.0000    0.0000   -0.0000    0.0000   -0.0002    0.0001   -0.0026
   128 O7     2s        -0.0001   -0.0012   -0.0001    0.0003    0.0003   -0.0002    0.0001    0.0007    0.0004    0.0479
   129 O7     3s        -0.0001   -0.0012   -0.0001    0.0002    0.0003   -0.0001    0.0000    0.0001    0.0003   -0.0040
   130 O7     4s        -0.0001    0.0001   -0.0000    0.0001    0.0001   -0.0000    0.0000    0.0001    0.0001   -0.0009
   131 O7     2px       -0.0002    0.0001   -0.0001   -0.0002    0.0002   -0.0001   -0.0001    0.0005    0.0001    0.0120
   132 O7     3px       -0.0003   -0.0004   -0.0001   -0.0003    0.0002   -0.0000   -0.0001    0.0000    0.0001    0.0021
   133 O7     4px       -0.0001    0.0009    0.0000   -0.0001   -0.0000    0.0000   -0.0000    0.0001   -0.0000    0.0010
   134 O7     2py       -0.0001   -0.0003   -0.0002   -0.0002   -0.0001    0.0000   -0.0002   -0.0007   -0.0002    0.0030
   135 O7     3py       -0.0003    0.0002   -0.0003   -0.0002   -0.0002   -0.0000   -0.0003   -0.0005   -0.0002    0.0161
   136 O7     4py       -0.0001   -0.0010   -0.0001    0.0001   -0.0001    0.0000   -0.0001   -0.0003   -0.0000    0.0039
   137 O7     2pz       -0.0001    0.0000    0.0000    0.0001    0.0000    0.0000    0.0001    0.0001    0.0000    0.0014
   138 O7     3pz       -0.0002   -0.0000    0.0000    0.0001   -0.0000    0.0000    0.0001    0.0001    0.0000    0.0000
   139 O7     4pz       -0.0000    0.0001    0.0000    0.0000   -0.0000    0.0000    0.0000    0.0000    0.0000    0.0001
   140 O7     3d2-      -0.0000    0.0001   -0.0000    0.0000    0.0000    0.0000   -0.0000   -0.0002   -0.0000   -0.0010
   141 O7     3d1-      -0.0000   -0.0000    0.0000   -0.0000    0.0000    0.0000    0.0000   -0.0000   -0.0000   -0.0001
   142 O7     3d0        0.0000    0.0000    0.0000   -0.0000   -0.0000   -0.0000    0.0000   -0.0001   -0.0000   -0.0011
   143 O7     3d1+      -0.0000   -0.0000   -0.0000    0.0000    0.0000   -0.0000    0.0000    0.0000    0.0000    0.0004
   144 O7     3d2+      -0.0000    0.0000    0.0000   -0.0001    0.0000   -0.0000   -0.0000   -0.0000   -0.0000    0.0002
   145 O8     1s         0.9997    0.0000    0.0000    0.0000   -0.0003    0.0000   -0.0001    0.0000    0.0000   -0.0235
   146 O8     2s        -0.0016    0.0001    0.0000    0.0001    0.0003    0.0002   -0.0004    0.0000    0.0000    0.6932
   147 O8     3s        -0.0016   -0.0000   -0.0000    0.0000   -0.0001    0.0002   -0.0003    0.0000    0.0000   -0.0309
   148 O8     4s        -0.0000   -0.0000   -0.0001   -0.0000   -0.0000    0.0000   -0.0001   -0.0000    0.0000   -0.0126
   149 O8     2px        0.0001    0.0001    0.0002    0.0000    0.0004   -0.0000    0.0001    0.0002    0.0001    0.0258
   150 O8     3px       -0.0000    0.0002    0.0003    0.0000    0.0002   -0.0001    0.0001    0.0003    0.0001   -0.0114
   151 O8     4px        0.0002    0.0001    0.0000   -0.0000    0.0001   -0.0000    0.0000    0.0001    0.0000   -0.0010
   152 O8     2py       -0.0001    0.0000   -0.0002   -0.0000   -0.0002   -0.0000    0.0000    0.0001   -0.0001   -0.0624
   153 O8     3py        0.0003    0.0001   -0.0001    0.0000   -0.0002    0.0000   -0.0000    0.0001   -0.0001    0.0203
   154 O8     4py       -0.0007    0.0000    0.0000    0.0000   -0.0002    0.0000   -0.0000    0.0000   -0.0000   -0.0007
   155 O8     2pz       -0.0003    0.0000    0.0002    0.0000   -0.0006   -0.0001    0.0001    0.0000    0.0000   -0.1329
   156 O8     3pz        0.0004    0.0001    0.0004    0.0001   -0.0001   -0.0001    0.0001    0.0000    0.0000    0.0397
   157 O8     4pz       -0.0013    0.0000    0.0001    0.0000   -0.0002    0.0000   -0.0000    0.0000    0.0000    0.0015
   158 O8     3d2-      -0.0001   -0.0000   -0.0001    0.0000    0.0000   -0.0000   -0.0000   -0.0000   -0.0000   -0.0028
   159 O8     3d1-      -0.0000   -0.0000    0.0000    0.0000    0.0002    0.0000   -0.0000   -0.0000    0.0000    0.0151
   160 O8     3d0       -0.0000    0.0000   -0.0000    0.0000    0.0001    0.0000   -0.0000    0.0000    0.0000    0.0144
   161 O8     3d1+       0.0000   -0.0000   -0.0000   -0.0000   -0.0001    0.0000   -0.0000   -0.0000   -0.0000   -0.0053
   162 O8     3d2+      -0.0000    0.0000   -0.0000    0.0000   -0.0000   -0.0000   -0.0000    0.0000   -0.0000   -0.0033
   163 H9     1s        -0.0001    0.0002    0.0001    0.0000   -0.0000   -0.0002    0.0000   -0.0000    0.0003    0.0049
   164 H9     2s        -0.0001    0.0001    0.0001    0.0000   -0.0000   -0.0002   -0.0000   -0.0000   -0.0003    0.0034
   165 H9     2px       -0.0000   -0.0000    0.0000    0.0000    0.0000   -0.0000   -0.0000    0.0000   -0.0001    0.0005
   166 H9     2py       -0.0000   -0.0001    0.0000   -0.0000   -0.0000   -0.0000    0.0000    0.0001    0.0000    0.0003
   167 H9     2pz       -0.0000    0.0000    0.0000   -0.0000    0.0000   -0.0000   -0.0000    0.0000   -0.0001    0.0002
   168 H10    1s         0.0001    0.0002    0.0001    0.0000   -0.0000   -0.0001    0.0000   -0.0000    0.0003    0.0013
   169 H10    2s         0.0001    0.0001    0.0001   -0.0000   -0.0000   -0.0000    0.0000    0.0000   -0.0003    0.0008
   170 H10    2px       -0.0000   -0.0000   -0.0000    0.0000   -0.0000   -0.0000   -0.0000    0.0000   -0.0000    0.0003
   171 H10    2py        0.0000   -0.0000   -0.0000   -0.0000   -0.0000   -0.0000    0.0000    0.0001    0.0000   -0.0001
   172 H10    2pz       -0.0000   -0.0000   -0.0000   -0.0000   -0.0000    0.0000    0.0000   -0.0000    0.0001   -0.0003
   173 H11    1s        -0.0001   -0.0004   -0.0002    0.0003   -0.0001   -0.0001   -0.0001    0.0002    0.0001    0.0094
   174 H11    2s        -0.0000   -0.0002   -0.0001    0.0003   -0.0001   -0.0001   -0.0001    0.0001   -0.0003    0.0059
   175 H11    2px        0.0000   -0.0000    0.0000   -0.0000    0.0000    0.0000    0.0000   -0.0000    0.0001   -0.0007
   176 H11    2py       -0.0000   -0.0000   -0.0000   -0.0000   -0.0000    0.0000   -0.0000    0.0001   -0.0001    0.0008
   177 H11    2pz       -0.0000   -0.0000    0.0000    0.0000   -0.0000    0.0000   -0.0000    0.0000   -0.0000    0.0001
   178 H12    1s        -0.0002   -0.0010   -0.0002   -0.0004    0.0002    0.0002    0.0000    0.0005   -0.0003    0.0119
   179 H12    2s        -0.0001   -0.0006   -0.0002   -0.0003    0.0001    0.0002    0.0000    0.0002   -0.0001    0.0029
   180 H12    2px        0.0000    0.0000    0.0000    0.0003   -0.0000    0.0000    0.0000   -0.0002    0.0000   -0.0010
   181 H12    2py       -0.0000   -0.0000   -0.0000   -0.0004    0.0000    0.0001    0.0000    0.0000   -0.0000    0.0012
   182 H12    2pz        0.0000    0.0000    0.0000    0.0001    0.0000   -0.0000   -0.0000   -0.0000    0.0000   -0.0001
   183 H13    1s         0.0004    0.0006    0.0000   -0.0003   -0.0002    0.0009    0.0001   -0.0002    0.0001    0.0034
   184 H13    2s         0.0003    0.0004    0.0000   -0.0001   -0.0002    0.0001    0.0001   -0.0002    0.0001   -0.0077
   185 H13    2px       -0.0000   -0.0001    0.0000    0.0000   -0.0000   -0.0001   -0.0000    0.0000   -0.0000   -0.0006
   186 H13    2py       -0.0001   -0.0000    0.0001    0.0000    0.0000   -0.0000   -0.0000    0.0000    0.0000    0.0006
   187 H13    2pz       -0.0000   -0.0001   -0.0000   -0.0001   -0.0000   -0.0000   -0.0000    0.0000    0.0000    0.0003
   188 H14    1s        -0.0001    0.0003    0.0006   -0.0004    0.0002    0.0006   -0.0001   -0.0002   -0.0002    0.0201
   189 H14    2s        -0.0001    0.0002    0.0004   -0.0002    0.0002   -0.0001   -0.0001   -0.0002   -0.0001    0.0053
   190 H14    2px        0.0000   -0.0000   -0.0000    0.0000   -0.0001   -0.0000   -0.0000    0.0000    0.0000   -0.0024
   191 H14    2py        0.0000   -0.0000   -0.0000    0.0000    0.0000   -0.0000   -0.0000   -0.0000    0.0000    0.0001
   192 H14    2pz        0.0001    0.0000    0.0001    0.0000    0.0000   -0.0000   -0.0000   -0.0000   -0.0000   -0.0003
   193 H15    1s        -0.0010   -0.0000   -0.0007   -0.0003    0.0002   -0.0004   -0.0005   -0.0007   -0.0001    0.0428
   194 H15    2s        -0.0006   -0.0000   -0.0005   -0.0002    0.0000   -0.0002   -0.0002   -0.0005   -0.0001    0.0015
   195 H15    2px       -0.0001    0.0000   -0.0000    0.0000    0.0001    0.0000   -0.0000    0.0000    0.0000    0.0005
   196 H15    2py       -0.0001    0.0000   -0.0003    0.0000    0.0000   -0.0000    0.0000   -0.0000   -0.0000    0.0029
   197 H15    2pz       -0.0000   -0.0000   -0.0003   -0.0001    0.0001   -0.0000   -0.0000   -0.0001   -0.0000    0.0053
   198 H16    1s         0.0007    0.0002   -0.0005   -0.0001   -0.0004    0.0000    0.0009   -0.0000    0.0001   -0.0013
   199 H16    2s         0.0005    0.0001   -0.0002   -0.0000   -0.0003    0.0000    0.0001   -0.0000    0.0000   -0.0063
   200 H16    2px        0.0001    0.0000   -0.0000   -0.0000   -0.0001    0.0000    0.0001   -0.0000    0.0000    0.0004
   201 H16    2py       -0.0000   -0.0000    0.0000   -0.0000    0.0000    0.0000   -0.0000   -0.0000   -0.0000   -0.0003
   202 H16    2pz        0.0000    0.0000   -0.0000   -0.0000   -0.0000    0.0000    0.0000    0.0000    0.0000   -0.0004
   203 H17    1s        -0.0000    0.0000   -0.0001   -0.0002   -0.0002   -0.0000    0.0009   -0.0001   -0.0000    0.0097
   204 H17    2s         0.0000    0.0000   -0.0000   -0.0001   -0.0001   -0.0000    0.0001   -0.0000   -0.0000   -0.0032
   205 H17    2px       -0.0001   -0.0000   -0.0000    0.0000    0.0000   -0.0000    0.0000    0.0000   -0.0000    0.0009
   206 H17    2py       -0.0000   -0.0000   -0.0000    0.0000    0.0000   -0.0000   -0.0001    0.0000    0.0000   -0.0008
   207 H17    2pz        0.0000   -0.0000   -0.0000    0.0000    0.0000    0.0000   -0.0001    0.0000    0.0000   -0.0001
   208 H18    1s        -0.0003    0.0001   -0.0003    0.0001   -0.0002    0.0001    0.0006    0.0000    0.0000    0.0145
   209 H18    2s        -0.0002    0.0001   -0.0001    0.0000   -0.0001    0.0000   -0.0001    0.0000    0.0000    0.0048
   210 H18    2px        0.0000   -0.0000   -0.0000   -0.0000    0.0000   -0.0000    0.0000   -0.0000   -0.0000   -0.0000
   211 H18    2py        0.0000    0.0000    0.0000   -0.0000    0.0000   -0.0000   -0.0000    0.0000   -0.0000   -0.0009
   212 H18    2pz       -0.0000   -0.0000   -0.0000    0.0000   -0.0000    0.0000   -0.0000    0.0000   -0.0000    0.0015
 
 
      Orbital                11        12        13        14        15        16        17        18        19        20
      Energy            -1.3623   -1.2456   -1.2140   -1.0101   -0.9618   -0.9177   -0.8087   -0.7722   -0.6952   -0.6767
      Occ. No.           2.0000    2.0000    2.0000    2.0000    2.0000    2.0000    2.0000    2.0000    2.0000    2.0000
 
     1 C1     1s         0.0394    0.0020    0.0066   -0.0130   -0.0083    0.0048    0.0072   -0.0138    0.0044    0.0053
     2 C1     2s        -0.3550    0.0089   -0.1117    0.2188    0.1489   -0.0167   -0.1729    0.3400   -0.1166   -0.1328
     3 C1     3s         0.0040    0.0114   -0.0033   -0.0087   -0.0094    0.0115   -0.0019   -0.0041    0.0076    0.0104
     4 C1     4s        -0.0031    0.0039   -0.0012   -0.0033   -0.0018    0.0046    0.0004   -0.0032    0.0024    0.0036
     5 C1     2px        0.0563    0.0289   -0.1410    0.0369   -0.0483   -0.1084   -0.0868    0.1203    0.0366    0.0782
     6 C1     3px       -0.0261    0.0021    0.0440   -0.0517   -0.0174    0.0258    0.0281   -0.0208   -0.0117   -0.0252
     7 C1     4px        0.0166    0.0093   -0.0276   -0.0028   -0.0094   -0.0105   -0.0064    0.0086    0.0044    0.0051
     8 C1     2py       -0.0942    0.0152    0.0255   -0.1012   -0.1131   -0.0310   -0.0144    0.0343   -0.0556   -0.0026
     9 C1     3py        0.0537    0.0390   -0.0383    0.0067    0.0364    0.0589    0.0048   -0.0145    0.0238    0.0150
    10 C1     4py       -0.0229    0.0053    0.0052   -0.0166   -0.0144   -0.0007   -0.0012    0.0042   -0.0018   -0.0006
    11 C1     2pz        0.0152   -0.0055   -0.0087    0.0143    0.0136    0.0162   -0.0025   -0.0088    0.0116   -0.0075
    12 C1     3pz       -0.0081   -0.0120    0.0011   -0.0032   -0.0117    0.0024   -0.0072   -0.0036   -0.0044   -0.0057
    13 C1     4pz        0.0037   -0.0032   -0.0014    0.0009    0.0018    0.0023   -0.0021   -0.0021    0.0001   -0.0021
    14 C1     3d2-       0.0331    0.0045   -0.0182    0.0058    0.0081    0.0050   -0.0042    0.0117   -0.0068    0.0026
    15 C1     3d1-       0.0076    0.0003   -0.0016   -0.0015   -0.0031   -0.0016    0.0003   -0.0023    0.0019    0.0017
    16 C1     3d0        0.0270   -0.0000    0.0057   -0.0092   -0.0046    0.0031    0.0070   -0.0122    0.0030    0.0033
    17 C1     3d1+      -0.0046   -0.0010    0.0024   -0.0014   -0.0016    0.0001    0.0012   -0.0027    0.0022   -0.0026
    18 C1     3d2+       0.0014    0.0035   -0.0230    0.0066   -0.0096   -0.0166   -0.0073    0.0080    0.0030    0.0062
    19 C3     1s         0.0076   -0.0094    0.0302    0.0390   -0.0011   -0.0244   -0.0077   -0.0024    0.0028    0.0047
    20 C3     2s        -0.0266    0.0589   -0.1964   -0.3350   -0.0034    0.3684    0.0576    0.0864   -0.1013   -0.0556
    21 C3     3s         0.0125   -0.0177    0.0506    0.0717   -0.0030   -0.0185   -0.0186   -0.0005   -0.0047    0.0138
    22 C3     4s         0.0015   -0.0029    0.0119    0.0190    0.0005   -0.0059   -0.0047   -0.0019   -0.0001    0.0038
    23 C3     2px        0.0185   -0.0216    0.0527   -0.0018   -0.0144    0.0397    0.0722   -0.0545   -0.0581   -0.1200
    24 C3     3px        0.0022    0.0043   -0.0218   -0.0386   -0.0182    0.0072   -0.0074   -0.0031    0.0044    0.0049
    25 C3     4px        0.0025    0.0020   -0.0078   -0.0179   -0.0060    0.0166    0.0066    0.0025   -0.0025   -0.0026
    26 C3     2py        0.0271   -0.0033    0.1094   -0.0470    0.0590    0.0155   -0.1443    0.1645    0.1759    0.0863
    27 C3     3py        0.0144   -0.0072    0.0249    0.0147   -0.0464   -0.0409    0.0046   -0.0021   -0.0339   -0.0078
    28 C3     4py        0.0082   -0.0012    0.0172   -0.0020   -0.0005   -0.0050   -0.0080    0.0070   -0.0003    0.0007
    29 C3     2pz       -0.0017   -0.0239   -0.0061    0.0221   -0.0336    0.0308   -0.0019    0.0063    0.1282   -0.1745
    30 C3     3pz       -0.0032   -0.0037   -0.0041    0.0138   -0.0204    0.0172   -0.0075   -0.0052   -0.0062    0.0111
    31 C3     4pz       -0.0006    0.0016   -0.0021    0.0003   -0.0035    0.0056   -0.0036   -0.0013    0.0020   -0.0060
    32 C3     3d2-      -0.0034    0.0006   -0.0160    0.0091   -0.0132   -0.0073    0.0113   -0.0093   -0.0215   -0.0090
    33 C3     3d1-       0.0007   -0.0048    0.0003    0.0010   -0.0020    0.0019    0.0013    0.0025    0.0045   -0.0049
    34 C3     3d0        0.0026   -0.0041    0.0116    0.0063    0.0003    0.0016    0.0051    0.0008   -0.0043   -0.0078
    35 C3     3d1+      -0.0008    0.0023    0.0003   -0.0006    0.0000    0.0006   -0.0004    0.0001    0.0037   -0.0076
    36 C3     3d2+       0.0010   -0.0020    0.0101    0.0053    0.0017   -0.0010   -0.0036    0.0126   -0.0070   -0.0039
    37 C4     1s        -0.0040   -0.0086   -0.0018    0.0136   -0.0110    0.0039    0.0184    0.0016   -0.0055   -0.0001
    38 C4     2s         0.0075    0.1339   -0.0139   -0.2161    0.1811    0.0342   -0.3578   -0.0791    0.2346    0.0421
    39 C4     3s        -0.0082   -0.0067   -0.0023    0.0222   -0.0118    0.0121    0.0274   -0.0097   -0.0068    0.0116
    40 C4     4s        -0.0021   -0.0024   -0.0013    0.0083   -0.0039    0.0020    0.0082   -0.0033   -0.0029    0.0004
    41 C4     2px       -0.0122   -0.0174   -0.0319   -0.0641    0.0499    0.0630    0.0032    0.0849    0.0745    0.0348
    42 C4     3px       -0.0150    0.0037   -0.0083    0.0101    0.0557   -0.0293   -0.0052   -0.0406   -0.0162   -0.0206
    43 C4     4px       -0.0060   -0.0028   -0.0069   -0.0078    0.0121    0.0047    0.0021    0.0012    0.0027   -0.0004
    44 C4     2py        0.0176    0.0292    0.0366    0.0958   -0.0513   -0.0661   -0.0550   -0.1404   -0.0728   -0.1032
    45 C4     3py       -0.0023    0.0430   -0.0118   -0.0259   -0.0593    0.0764   -0.0109    0.0557    0.0203    0.0473
    46 C4     4py        0.0038    0.0090    0.0070    0.0092   -0.0150    0.0025   -0.0069   -0.0069    0.0011   -0.0021
    47 C4     2pz        0.0042   -0.1486   -0.0367    0.0484   -0.0698    0.0683    0.0740    0.0719    0.2180   -0.2078
    48 C4     3pz       -0.0176    0.0636   -0.0146   -0.0300    0.0438   -0.0161   -0.0043   -0.0226   -0.0748    0.0545
    49 C4     4pz        0.0021   -0.0261   -0.0051    0.0034   -0.0040    0.0087    0.0055    0.0051    0.0150   -0.0140
    50 C4     3d2-      -0.0013   -0.0044    0.0024    0.0113   -0.0043   -0.0097    0.0119   -0.0023   -0.0016    0.0021
    51 C4     3d1-       0.0031   -0.0252   -0.0036    0.0038   -0.0055    0.0043    0.0104    0.0115    0.0247   -0.0026
    52 C4     3d0        0.0032    0.0078    0.0039    0.0020    0.0107   -0.0188   -0.0007   -0.0094    0.0044    0.0039
    53 C4     3d1+      -0.0009    0.0151    0.0025   -0.0017    0.0035   -0.0035   -0.0045   -0.0056   -0.0072   -0.0012
    54 C4     3d2+      -0.0005    0.0015    0.0029    0.0040   -0.0001   -0.0014    0.0082    0.0028   -0.0003    0.0021
    55 C6     1s        -0.0020   -0.0309   -0.0128   -0.0305    0.0383   -0.0311    0.0097   -0.0031   -0.0036   -0.0068
    56 C6     2s        -0.0130    0.1672    0.0117    0.1829   -0.2960    0.3032   -0.1133    0.0152    0.0260    0.0783
    57 C6     3s        -0.0106   -0.0460   -0.0390   -0.0585    0.0695   -0.0452    0.0221   -0.0100   -0.0093   -0.0206
    58 C6     4s        -0.0028   -0.0073   -0.0095   -0.0122    0.0154   -0.0095    0.0065   -0.0029   -0.0020   -0.0067
    59 C6     2px       -0.0019    0.0641    0.0084    0.0205   -0.0081   -0.0183    0.0450   -0.0235   -0.0828   -0.2355
    60 C6     3px       -0.0039   -0.0147   -0.0117   -0.0090    0.0044    0.0021   -0.0040    0.0018    0.0086    0.0344
    61 C6     4px       -0.0009   -0.0002   -0.0008   -0.0054    0.0103   -0.0096    0.0060   -0.0006   -0.0027   -0.0102
    62 C6     2py       -0.0000   -0.0843   -0.0107   -0.0144   -0.0113    0.0369   -0.0990   -0.0000    0.0177    0.2109
    63 C6     3py       -0.0011    0.0145    0.0135    0.0181   -0.0194    0.0032   -0.0038   -0.0004   -0.0080   -0.0331
    64 C6     4py       -0.0007    0.0006    0.0008    0.0086   -0.0128    0.0141   -0.0094    0.0003    0.0005    0.0105
    65 C6     2pz        0.0029    0.0079    0.0020   -0.0113    0.0222   -0.0169   -0.0824   -0.0924   -0.1509   -0.0247
    66 C6     3pz        0.0022   -0.0061   -0.0029   -0.0138    0.0210   -0.0115    0.0101    0.0062    0.0168   -0.0005
    67 C6     4pz        0.0000   -0.0025   -0.0014   -0.0021    0.0041   -0.0028   -0.0058   -0.0070   -0.0063   -0.0031
    68 C6     3d2-      -0.0002   -0.0195   -0.0045   -0.0069    0.0033    0.0035   -0.0100    0.0028    0.0100    0.0329
    69 C6     3d1-       0.0002   -0.0019   -0.0004    0.0000   -0.0013    0.0011    0.0033    0.0027   -0.0006    0.0022
    70 C6     3d0        0.0003   -0.0129   -0.0026   -0.0023   -0.0003    0.0034   -0.0087   -0.0006    0.0012    0.0153
    71 C6     3d1+       0.0002    0.0020    0.0008   -0.0002    0.0010   -0.0011   -0.0088   -0.0083   -0.0103   -0.0021
    72 C6     3d2+      -0.0005   -0.0051   -0.0013   -0.0012    0.0004    0.0011   -0.0044   -0.0006    0.0013    0.0061
    73 C19    1s         0.0148    0.0005    0.0097   -0.0357   -0.0536   -0.0345   -0.0100    0.0102   -0.0002   -0.0030
    74 C19    2s         0.0089    0.0065    0.0040    0.1870    0.3162    0.2439    0.0554   -0.0744   -0.0083    0.0211
    75 C19    3s         0.0391    0.0087    0.0297   -0.0687   -0.1023   -0.0590   -0.0256    0.0236    0.0006   -0.0048
    76 C19    4s         0.0036    0.0040    0.0042   -0.0138   -0.0220   -0.0128   -0.0067    0.0067    0.0007   -0.0009
    77 C19    2px        0.0104    0.0021   -0.0226    0.0435    0.0216   -0.0144   -0.0307    0.0369    0.0403    0.0119
    78 C19    3px        0.0055   -0.0014    0.0016    0.0101   -0.0011   -0.0030   -0.0001   -0.0050   -0.0005    0.0006
    79 C19    4px       -0.0076   -0.0003   -0.0000   -0.0018   -0.0096   -0.0098   -0.0030    0.0010    0.0030    0.0002
    80 C19    2py       -0.0192    0.0077   -0.0081    0.0351    0.0260   -0.0032   -0.0360    0.0730   -0.0229   -0.0857
    81 C19    3py        0.0086    0.0089    0.0037   -0.0189   -0.0250   -0.0103    0.0033   -0.0107    0.0081    0.0126
    82 C19    4py       -0.0054    0.0003   -0.0009   -0.0079   -0.0152   -0.0137   -0.0060    0.0116   -0.0020   -0.0037
    83 C19    2pz        0.0039    0.0008    0.0020   -0.0079   -0.0080   -0.0037    0.0075   -0.0103    0.0058    0.0095
    84 C19    3pz       -0.0006    0.0015   -0.0000    0.0014    0.0003   -0.0035    0.0026    0.0016    0.0027   -0.0028
    85 C19    4pz        0.0009    0.0006    0.0001    0.0017    0.0031    0.0022    0.0015   -0.0013    0.0003    0.0005
    86 C19    3d2-       0.0005    0.0009   -0.0059    0.0072    0.0051   -0.0007   -0.0042    0.0071   -0.0019   -0.0048
    87 C19    3d1-       0.0011    0.0000    0.0001   -0.0022   -0.0021   -0.0008    0.0007   -0.0015    0.0005    0.0019
    88 C19    3d0       -0.0014    0.0001    0.0007   -0.0056   -0.0060   -0.0018    0.0019   -0.0031   -0.0020    0.0010
    89 C19    3d1+      -0.0008   -0.0002    0.0012   -0.0014   -0.0006    0.0004    0.0010   -0.0016   -0.0012   -0.0003
    90 C19    3d2+       0.0066    0.0008   -0.0013   -0.0053   -0.0064   -0.0029    0.0017   -0.0047    0.0021    0.0061
    91 N2     1s         0.0180   -0.0059    0.0396   -0.0074    0.0021    0.0035   -0.0026    0.0037   -0.0005    0.0011
    92 N2     2s        -0.1319    0.0896   -0.5780    0.0939   -0.1529   -0.1967    0.0113   -0.1083    0.0244    0.0580
    93 N2     3s         0.0445   -0.0083    0.0673   -0.0126   -0.0056   -0.0034   -0.0100    0.0037    0.0024    0.0071
    94 N2     4s         0.0107   -0.0032    0.0228   -0.0028    0.0010    0.0018   -0.0031    0.0018    0.0006    0.0009
    95 N2     2px        0.0345   -0.0014    0.0220   -0.1050   -0.0685    0.0737    0.1945   -0.3422    0.0315   -0.0278
    96 N2     3px       -0.0108   -0.0058    0.0200    0.0400   -0.0163   -0.0628   -0.0627    0.0872   -0.0014    0.0079
    97 N2     4px        0.0068    0.0006    0.0003   -0.0001   -0.0087   -0.0083   -0.0022   -0.0021    0.0034    0.0018
    98 N2     2py       -0.0263    0.0052    0.0096   -0.1254   -0.0383    0.0823    0.0067    0.1291   -0.2295   -0.0552
    99 N2     3py       -0.0059   -0.0092    0.0460    0.0364   -0.0138   -0.0603   -0.0155   -0.0176    0.0446    0.0004
   100 N2     4py        0.0084   -0.0022    0.0135   -0.0032   -0.0021   -0.0040   -0.0055    0.0079   -0.0001   -0.0003
   101 N2     2pz        0.0044    0.0044   -0.0133    0.0101    0.0078   -0.0097    0.0025   -0.0147    0.0558   -0.0327
   102 N2     3pz        0.0043    0.0050    0.0045   -0.0083    0.0090   -0.0048    0.0031    0.0083   -0.0161    0.0168
   103 N2     4pz       -0.0011    0.0009   -0.0014    0.0002    0.0006   -0.0013    0.0016   -0.0006   -0.0013    0.0028
   104 N2     3d2-       0.0017    0.0020   -0.0094   -0.0031    0.0024    0.0086    0.0019    0.0063   -0.0119   -0.0038
   105 N2     3d1-      -0.0006   -0.0005    0.0020   -0.0012    0.0002    0.0016   -0.0011    0.0034   -0.0009   -0.0040
   106 N2     3d0        0.0031   -0.0029    0.0159   -0.0004    0.0033    0.0024   -0.0001   -0.0001    0.0006   -0.0004
   107 N2     3d1+      -0.0004   -0.0001    0.0003   -0.0011   -0.0013    0.0001    0.0020   -0.0038    0.0024   -0.0017
   108 N2     3d2+      -0.0051    0.0003   -0.0043    0.0096    0.0005   -0.0088   -0.0092    0.0158   -0.0038   -0.0020
   109 N5     1s        -0.0007   -0.0417   -0.0082   -0.0007   -0.0023    0.0024   -0.0043   -0.0024   -0.0034   -0.0025
   110 N5     2s        -0.0075    0.5742    0.1224    0.0265    0.0961   -0.1977    0.1669   -0.0191   -0.0974   -0.1384
   111 N5     3s        -0.0060   -0.0799   -0.0188   -0.0058    0.0048   -0.0077   -0.0053   -0.0105   -0.0148   -0.0112
   112 N5     4s        -0.0016   -0.0258   -0.0066   -0.0030    0.0012    0.0004   -0.0028   -0.0020   -0.0011   -0.0005
   113 N5     2px       -0.0031   -0.0081   -0.0244   -0.0831    0.0940   -0.0568   -0.0488   -0.0154   -0.0059    0.1899
   114 N5     3px       -0.0048    0.0293   -0.0149    0.0191   -0.0403    0.0394    0.0256    0.0036    0.0012   -0.0287
   115 N5     4px       -0.0008    0.0016   -0.0033   -0.0012   -0.0011    0.0045    0.0024    0.0002    0.0019   -0.0036
   116 N5     2py        0.0119   -0.0184    0.0258    0.1142   -0.1295    0.1001   -0.0601   -0.0626   -0.0950   -0.3206
   117 N5     3py        0.0128   -0.0068    0.0276   -0.0227    0.0629   -0.0526    0.0093    0.0174    0.0295    0.0564
   118 N5     4py        0.0013   -0.0045    0.0035    0.0021    0.0009   -0.0016   -0.0060   -0.0019   -0.0007    0.0070
   119 N5     2pz       -0.0004    0.0261   -0.0047   -0.0536    0.0748   -0.0306   -0.3503   -0.2692   -0.2484    0.0465
   120 N5     3pz       -0.0029   -0.0273   -0.0163    0.0117   -0.0075    0.0033    0.0835    0.0433    0.0393   -0.0188
   121 N5     4pz        0.0005   -0.0118   -0.0036   -0.0037    0.0028   -0.0002   -0.0049   -0.0032    0.0007   -0.0036
   122 N5     3d2-      -0.0000   -0.0131   -0.0026   -0.0047    0.0058   -0.0044   -0.0000    0.0005    0.0047    0.0094
   123 N5     3d1-       0.0006   -0.0063    0.0002    0.0045   -0.0037   -0.0013    0.0179    0.0097    0.0091   -0.0045
   124 N5     3d0        0.0008    0.0056    0.0019   -0.0051    0.0101   -0.0112   -0.0077   -0.0078   -0.0019    0.0096
   125 N5     3d1+      -0.0000    0.0070    0.0011   -0.0028    0.0030   -0.0017   -0.0019    0.0003    0.0011    0.0038
   126 N5     3d2+       0.0005   -0.0051   -0.0006    0.0009   -0.0016    0.0021   -0.0043   -0.0032   -0.0007   -0.0029
   127 O7     1s         0.0243    0.0007   -0.0031   -0.0031   -0.0031   -0.0016    0.0041   -0.0108    0.0089    0.0093
   128 O7     2s        -0.6802   -0.0776    0.3073   -0.1658   -0.1423   -0.0149    0.1269   -0.2919    0.1834    0.1696
   129 O7     3s         0.0334   -0.0027    0.0096   -0.0184   -0.0157   -0.0074    0.0141   -0.0368    0.0279    0.0277
   130 O7     4s         0.0142   -0.0001    0.0001   -0.0038   -0.0030   -0.0022    0.0022   -0.0072    0.0057    0.0055
   131 O7     2px       -0.0934   -0.0032    0.0093    0.0009   -0.0061   -0.0284   -0.0727    0.1533   -0.1164   -0.1036
   132 O7     3px        0.0293    0.0024    0.0011   -0.0052   -0.0021   -0.0001    0.0050   -0.0195    0.0118    0.0069
   133 O7     4px        0.0018    0.0002    0.0005   -0.0004    0.0008    0.0004    0.0004   -0.0022    0.0006   -0.0001
   134 O7     2py        0.1072    0.0221   -0.0434   -0.0144   -0.0219   -0.0143    0.0104   -0.1038    0.1356    0.1550
   135 O7     3py       -0.0377    0.0104    0.0008    0.0119    0.0084    0.0102   -0.0130    0.0153   -0.0130   -0.0173
   136 O7     4py       -0.0013    0.0032    0.0018    0.0010    0.0005    0.0033   -0.0021    0.0012   -0.0019   -0.0025
   137 O7     2pz       -0.0108   -0.0039    0.0040    0.0030    0.0083    0.0002   -0.0073    0.0187   -0.0207   -0.0229
   138 O7     3pz        0.0063   -0.0022    0.0004   -0.0026    0.0032   -0.0063    0.0017   -0.0016    0.0012    0.0023
   139 O7     4pz        0.0001   -0.0006    0.0002   -0.0005    0.0013   -0.0020    0.0006   -0.0003    0.0004    0.0004
   140 O7     3d2-       0.0182    0.0019   -0.0049    0.0002    0.0011    0.0012    0.0028   -0.0089    0.0083    0.0081
   141 O7     3d1-       0.0030    0.0001   -0.0016    0.0002   -0.0004   -0.0008   -0.0003   -0.0004    0.0011    0.0015
   142 O7     3d0        0.0102    0.0007   -0.0043    0.0013    0.0007   -0.0003    0.0011   -0.0036    0.0043    0.0042
   143 O7     3d1+      -0.0023   -0.0005    0.0005   -0.0001   -0.0000   -0.0001   -0.0008    0.0013   -0.0011   -0.0014
   144 O7     3d2+       0.0023    0.0008   -0.0039   -0.0007   -0.0032   -0.0044   -0.0032    0.0033    0.0012    0.0035
   145 O8     1s        -0.0015    0.0033    0.0009    0.0028   -0.0025   -0.0010    0.0130    0.0041   -0.0205    0.0140
[...]
AIVX     1  Mu1.0001  In1.025 Se1.046               0.15094789      0.00014347     -0.00022093     -0.00000003
AIVX     1  Mu1.0001  In1.026 Se1.046               0.28185105      0.00009503      0.00012094      0.00000001
AIVX     1  Mu1.0001  In1.027 Se1.046               0.15637230     -0.00017159      0.00050471     -0.00000009
AIVX     1  Mu1.0001  In1.028 Se1.046               0.12769224      0.00009669     -0.00020175     -0.00000002
AIVX     1  Mu1.0001  In1.029 Se1.046               0.29415641      0.00010993      0.00038267      0.00000004
AIVX     1  Mu1.0001  In1.021 Se1.047               0.29241649     -0.00019464      0.00034251     -0.00000007
AIVX     1  Mu1.0001  In1.022 Se1.047               0.21351007      0.00031144     -0.00058651     -0.00000018
AIVX     1  Mu1.0001  In1.023 Se1.047               0.26276165      0.00007559     -0.00020410     -0.00000002
AIVX     1  Mu1.0001  In1.025 Se1.047               0.16037882      0.00016437     -0.00028608     -0.00000005
AIVX     1  Mu1.0001  In1.026 Se1.047               0.29128198     -0.00001454      0.00005593     -0.00000000
AIVX     1  Mu1.0001  In1.027 Se1.047               0.16580323     -0.00004351      0.00011573     -0.00000001
AIVX     1  Mu1.0001  In1.028 Se1.047               0.13712317     -0.00004297      0.00009144     -0.00000000
AIVX     1  Mu1.0001  In1.021 Se1.048               0.29793303     -0.00003324      0.00019207     -0.00000001
AIVX     1  Mu1.0001  In1.022 Se1.048               0.21902661     -0.00041826      0.00064356     -0.00000027
AIVX     1  Mu1.0001  In1.023 Se1.048               0.26827818     -0.00096139      0.00147366     -0.00000142
AIVX     1  Mu1.0001  In1.025 Se1.048               0.16589536      0.00013020     -0.00020701     -0.00000003
AIVX     1  Mu1.0001  In1.026 Se1.048               0.29679852     -0.00002977      0.00012382     -0.00000000
AIVX     1  Mu1.0001  In1.027 Se1.048               0.17131976      0.00005684     -0.00010217     -0.00000001
AIVX     1  Mu1.0001  In1.028 Se1.048               0.14263971      0.00019394     -0.00030162     -0.00000006
AIVX     1  Mu1.0001  In1.022 Se1.049               0.23643845     -0.00014438      0.00053822     -0.00000008
AIVX     1  Mu1.0001  In1.023 Se1.049               0.28569003     -0.00055416      0.00112910     -0.00000063
AIVX     1  Mu1.0001  In1.025 Se1.049               0.18330720     -0.00010551      0.00014954     -0.00000002
AIVX     1  Mu1.0001  In1.027 Se1.049               0.18873161     -0.00007861      0.00008616     -0.00000001
AIVX     1  Mu1.0001  In1.028 Se1.049               0.16005155      0.00004397     -0.00010939     -0.00000000
AIVX     1  Mu1.0001  In1.022 Se1.050               0.24436261      0.00007145     -0.00013166     -0.00000001
AIVX     1  Mu1.0001  In1.023 Se1.050               0.29361418     -0.00003973     -0.00001215      0.00000000
AIVX     1  Mu1.0001  In1.025 Se1.050               0.19123135      0.00000285      0.00004967      0.00000000
AIVX     1  Mu1.0001  In1.027 Se1.050               0.19665576     -0.00018906      0.00034449     -0.00000007
AIVX     1  Mu1.0001  In1.028 Se1.050               0.16797570      0.00006299     -0.00000329     -0.00000000
AIVX     1  Mu1.0001  In1.025 Se1.051               0.28668120      0.00001443     -0.00006535     -0.00000000
AIVX     1  Mu1.0001  In1.027 Se1.051               0.29210560     -0.00001604      0.00002085     -0.00000000
AIVX     1  Mu1.0001  In1.028 Se1.051               0.26342555      0.00017257     -0.00030300     -0.00000005
AIVX     1  Mu1.0001  In1.022 Se1.052               0.29531690     -0.00007877      0.00001902     -0.00000000
AIVX     1  Mu1.0001  In1.025 Se1.052               0.24218564      0.00007050     -0.00012061     -0.00000001
AIVX     1  Mu1.0001  In1.027 Se1.052               0.24761005      0.00005326     -0.00002871     -0.00000000
AIVX     1  Mu1.0001  In1.028 Se1.052               0.21892999     -0.00024626      0.00045387     -0.00000011
AIVX     1  Mu1.0001  In1.022 Se1.053               0.28560141     -0.00012017      0.00018772     -0.00000002
AIVX     1  Mu1.0001  In1.025 Se1.053               0.23247015      0.00004113     -0.00004407     -0.00000000
AIVX     1  Mu1.0001  In1.027 Se1.053               0.23789456     -0.00012349      0.00018800     -0.00000002
AIVX     1  Mu1.0001  In1.028 Se1.053               0.20921451      0.00034876     -0.00064693     -0.00000023
AIVX     1  Mu1.0001  In1.025 Se1.054               0.26447595      0.00000477     -0.00001881     -0.00000000
AIVX     1  Mu1.0001  In1.027 Se1.054               0.26990035      0.00003714     -0.00004092     -0.00000000
AIVX     1  Mu1.0001  In1.028 Se1.054               0.24122030      0.00020096     -0.00032259     -0.00000006
AIVX     1  Mu1.0001  In1.025 Se1.055               0.27659901      0.00006909     -0.00009327     -0.00000001
AIVX     1  Mu1.0001  In1.027 Se1.055               0.28202342      0.00000440     -0.00005226     -0.00000000
AIVX     1  Mu1.0001  In1.028 Se1.055               0.25334337     -0.00000248     -0.00002712      0.00000000
AIVX     1  Mu1.0001  In1.028 Se1.056               0.27703931     -0.00014666      0.00027215     -0.00000004
AIVX     1  Mu1.0001  In1.028 Se1.057               0.29285813     -0.00003319      0.00015919     -0.00000001
AIVX     1  Mu1.0001  In1.028 Se1.059               0.28321507     -0.00010813     -0.00001068      0.00000000
AIVX     1  Mu1.0001  In1.018 Se1.209               0.28791344     -0.00088436      0.00160989     -0.00000142
AIVX     1  Mu1.0001  In1.021 Se1.209               0.20863775      0.00037121     -0.00054777     -0.00000020
AIVX     1  Mu1.0001  In1.022 Se1.209               0.12973133     -0.00016508      0.00019920     -0.00000003
AIVX     1  Mu1.0001  In1.023 Se1.209               0.17898291      0.00024996     -0.00070615     -0.00000018
AIVX     1  Mu1.0001  In1.024 Se1.209               0.24554089     -0.00051046      0.00142368     -0.00000073
AIVX     1  Mu1.0001  In1.025 Se1.209               0.07660008     -0.00006119      0.00015005     -0.00000001
AIVX     1  Mu1.0001  In1.026 Se1.209               0.20750324      0.00008085     -0.00000578     -0.00000000
AIVX     1  Mu1.0001  In1.027 Se1.209               0.08202448     -0.00005734      0.00023360     -0.00000001
AIVX     1  Mu1.0001  In1.028 Se1.209               0.05334443      0.00007579     -0.00006693     -0.00000001
AIVX     1  Mu1.0001  In1.029 Se1.209               0.21980860     -0.00013837      0.00037106     -0.00000005
--
 
   (Skipping property calculation,
    use PROP keyword to activate)
--
 
  Total CASPT2 energies:
::    CASPT2 Root  1     Total energy:   -455.36991783
::    CASPT2 Root  2     Total energy:   -455.16567782
::    CASPT2 Root  3     Total energy:   -455.16116345
::    CASPT2 Root  4     Total energy:   -455.11712195
::    CASPT2 Root  5     Total energy:   -455.12558861
::    CASPT2 Root  6     Total energy:   -455.06783462
::    CASPT2 Root  7     Total energy:   -455.05601736
 
++ Multi-State CASPT2 section:
********************************************************************************
  MULTI-STATE CASPT2 SECTION
--------------------------------------------------------------------------------
 
  Output diagonal energies have been shifted. Add   -455.000000000000     
 
  Effective Hamiltonian matrix (Symmetric):
 
                1               2               3               4               5
   1        -0.36991783
   2        -0.00090221     -0.16567782
   3        -0.00009187      0.00010259     -0.16116345
   4         0.01803373     -0.00117097      0.00217079     -0.11712195
   5        -0.02083463     -0.00387007      0.00053707     -0.00129844     -0.12558861
   6         0.00868347      0.00037103     -0.00156914     -0.01157653      0.00656804
   7        -0.00603374     -0.00020895     -0.00262291      0.00367551     -0.01011801
 
                6               7
   6        -0.06783462
   7        -0.00471777     -0.05601736
 
       Total MS-CASPT2 energies:
::    MS-CASPT2 Root  1     Total energy:   -455.37341506
::    MS-CASPT2 Root  2     Total energy:   -455.16607474
::    MS-CASPT2 Root  3     Total energy:   -455.16135095
::    MS-CASPT2 Root  4     Total energy:   -455.12544915
::    MS-CASPT2 Root  5     Total energy:   -455.11801342
::    MS-CASPT2 Root  6     Total energy:   -455.06757206
::    MS-CASPT2 Root  7     Total energy:   -455.05144624
 
       Eigenvectors:
            0.99305060     -0.01168819     -0.00382911     -0.07505997      0.08903307
            0.00557357      0.99414295      0.04469059     -0.09745013     -0.01191612
            0.00097199     -0.04247226      0.99750328      0.01791340      0.04145894
           -0.07120544      0.03053531     -0.04516715      0.16486288      0.95891364
            0.08495168      0.09336769     -0.00909545      0.96918299     -0.13906880
           -0.03240532     -0.00568110      0.01327514     -0.05489000      0.22048149
            0.02194062      0.00755480      0.02600509      0.12263864     -0.05238970
 
            0.00448746     -0.01087227
            0.00339767      0.00118704
           -0.03086826     -0.01377614
           -0.17453539      0.12165345
            0.02601158     -0.15700497
            0.88282961     -0.40954642
            0.43415221      0.89023155
 
--
 
  THE ORIGINAL CI ARRAYS ARE NOW MIXED AS LINEAR
  COMBINATIONS, GIVEN BY THE EIGENVECTORS.
  A NEW JOBIPH FILE NAMED 'JOBMIX' IS PREPARED.
********************************************************************************
 
++ Mixed CI coefficients:
  The CI coefficients for the MIXED state nr.   1
--------------------------------------------------------------------------------
 CI COEFFICIENTS LARGER THAN  0.50D-01
  Occupation of active orbitals, and spin coupling
  of open shells. (u,d: Spin up or down).
  SGUGA info is (Midvert:IsyUp:UpperWalk/LowerWalk)
        Conf  SGUGA info        Occupation    Coefficient         Weight
           1  ( 1:1:   1/   1)   22222200       -0.949417       0.901393
           2  ( 1:1:   2/   1)   22222ud0       -0.167691       0.028120
          64  ( 2:1:   4/   3)   2u22220d       -0.130224       0.016958
          81  ( 2:1:   1/   4)   u22222d0       -0.089150       0.007948
         105  ( 3:1:   5/   1)   22202202        0.094248       0.008883
         141  ( 3:1:   1/   5)   22022220        0.110375       0.012183
         161  ( 3:1:   1/   7)   u2d22220        0.054642       0.002986
         175  ( 3:1:   5/   8)   20222202        0.071333       0.005088
         191  ( 3:1:   1/  10)   02222220        0.081336       0.006615
 
  The CI coefficients for the MIXED state nr.   2
--------------------------------------------------------------------------------
 CI COEFFICIENTS LARGER THAN  0.50D-01
  Occupation of active orbitals, and spin coupling
  of open shells. (u,d: Spin up or down).
  SGUGA info is (Midvert:IsyUp:UpperWalk/LowerWalk)
        Conf  SGUGA info        Occupation    Coefficient         Weight
           3  ( 1:1:   3/   1)   2222u2d0        0.922986       0.851903
           5  ( 1:1:   5/   1)   2222ud20        0.102046       0.010413
           7  ( 1:1:   7/   1)   22222u0d       -0.058311       0.003400
           8  ( 1:1:   8/   1)   2222u20d        0.112720       0.012706
          28  ( 2:1:   8/   1)   222uu2dd       -0.066491       0.004421
          41  ( 2:1:   1/   2)   22u222d0        0.163173       0.026625
          43  ( 2:1:   3/   2)   22u2d220       -0.139950       0.019586
          66  ( 2:1:   6/   3)   2u22d2ud        0.063950       0.004090
          68  ( 2:1:   8/   3)   2u22u2dd        0.106595       0.011362
          83  ( 2:1:   3/   4)   u222d220       -0.158346       0.025073
         107  ( 3:1:   7/   1)   2220u2d2       -0.092356       0.008530
         127  ( 3:1:   7/   3)   2u2du2d2        0.057756       0.003336
         177  ( 3:1:   7/   8)   2022u2d2       -0.073996       0.005475
 
  The CI coefficients for the MIXED state nr.   3
--------------------------------------------------------------------------------
 CI COEFFICIENTS LARGER THAN  0.50D-01
  Occupation of active orbitals, and spin coupling
  of open shells. (u,d: Spin up or down).
  SGUGA info is (Midvert:IsyUp:UpperWalk/LowerWalk)
        Conf  SGUGA info        Occupation    Coefficient         Weight
           3  ( 1:1:   3/   1)   2222u2d0        0.062102       0.003857
           7  ( 1:1:   7/   1)   22222u0d        0.931419       0.867541
           9  ( 1:1:   9/   1)   222220ud        0.144769       0.020958
          24  ( 2:1:   4/   1)   222u220d        0.081685       0.006672
          33  ( 2:1:  13/   1)   222u2d02        0.154898       0.023993
          44  ( 2:1:   4/   2)   22u2220d        0.072591       0.005269
          45  ( 2:1:   5/   2)   22u22dud        0.087935       0.007733
          47  ( 2:1:   7/   2)   22u22udd       -0.079099       0.006257
          73  ( 2:1:  13/   3)   2u222d02       -0.113109       0.012794
          87  ( 2:1:   7/   4)   u2222udd       -0.082502       0.006807
         143  ( 3:1:   3/   5)   22022u2d        0.098759       0.009753
         163  ( 3:1:   3/   7)   u2d22u2d        0.073370       0.005383
         193  ( 3:1:   3/  10)   02222u2d        0.085284       0.007273
 
  The CI coefficients for the MIXED state nr.   4
--------------------------------------------------------------------------------
 CI COEFFICIENTS LARGER THAN  0.50D-01
  Occupation of active orbitals, and spin coupling
  of open shells. (u,d: Spin up or down).
  SGUGA info is (Midvert:IsyUp:UpperWalk/LowerWalk)
        Conf  SGUGA info        Occupation    Coefficient         Weight
           2  ( 1:1:   2/   1)   22222ud0       -0.206121       0.042486
           3  ( 1:1:   3/   1)   2222u2d0       -0.160295       0.025694
          24  ( 2:1:   4/   1)   222u220d        0.051858       0.002689
          41  ( 2:1:   1/   2)   22u222d0        0.865382       0.748887
          44  ( 2:1:   4/   2)   22u2220d        0.131140       0.017198
          81  ( 2:1:   1/   4)   u22222d0       -0.154739       0.023944
         141  ( 3:1:   1/   5)   22022220        0.143369       0.020555
         152  ( 3:1:   2/   6)   2ud222ud        0.060921       0.003711
         161  ( 3:1:   1/   7)   u2d22220       -0.245427       0.060235
         191  ( 3:1:   1/  10)   02222220       -0.082847       0.006864
         219  ( 4:1:   1/   4)   2uu222dd        0.098494       0.009701
         238  ( 5:1:   2/   1)   22u022d2        0.086939       0.007558
         294  ( 5:1:   2/  15)   20u222d2       -0.068446       0.004685
 
  The CI coefficients for the MIXED state nr.   5
--------------------------------------------------------------------------------
 CI COEFFICIENTS LARGER THAN  0.50D-01
  Occupation of active orbitals, and spin coupling
  of open shells. (u,d: Spin up or down).
  SGUGA info is (Midvert:IsyUp:UpperWalk/LowerWalk)
        Conf  SGUGA info        Occupation    Coefficient         Weight
           2  ( 1:1:   2/   1)   22222ud0       -0.143058       0.020465
           7  ( 1:1:   7/   1)   22222u0d       -0.081924       0.006712
           8  ( 1:1:   8/   1)   2222u20d        0.156444       0.024475
          24  ( 2:1:   4/   1)   222u220d        0.899415       0.808948
          27  ( 2:1:   7/   1)   222u2udd        0.093673       0.008775
          41  ( 2:1:   1/   2)   22u222d0       -0.077041       0.005935
          64  ( 2:1:   4/   3)   2u22220d        0.100745       0.010150
         112  ( 3:1:   2/   2)   22ud22ud        0.060792       0.003696
         125  ( 3:1:   5/   3)   2u2d2202       -0.226564       0.051331
         201  ( 4:1:   1/   1)   22uu22dd       -0.095209       0.009065
         213  ( 4:1:   1/   3)   u22u22dd       -0.072685       0.005283
         249  ( 5:1:   1/   4)   220u222d        0.095991       0.009214
         257  ( 5:1:   1/   6)   u2du222d        0.072608       0.005272
         269  ( 5:1:   1/   9)   022u222d        0.082988       0.006887
 
  The CI coefficients for the MIXED state nr.   6
--------------------------------------------------------------------------------
 CI COEFFICIENTS LARGER THAN  0.50D-01
  Occupation of active orbitals, and spin coupling
  of open shells. (u,d: Spin up or down).
  SGUGA info is (Midvert:IsyUp:UpperWalk/LowerWalk)
        Conf  SGUGA info        Occupation    Coefficient         Weight
           8  ( 1:1:   8/   1)   2222u20d       -0.405160       0.164155
          10  ( 1:1:  10/   1)   2222udud        0.115498       0.013340
          12  ( 1:1:  12/   1)   2222uudd        0.133208       0.017744
          24  ( 2:1:   4/   1)   222u220d        0.106905       0.011429
          41  ( 2:1:   1/   2)   22u222d0        0.128799       0.016589
          44  ( 2:1:   4/   2)   22u2220d       -0.783400       0.613715
          45  ( 2:1:   5/   2)   22u22dud        0.243112       0.059103
          46  ( 2:1:   6/   2)   22u2d2ud        0.066279       0.004393
          47  ( 2:1:   7/   2)   22u22udd        0.085519       0.007314
          48  ( 2:1:   8/   2)   22u2u2dd       -0.105320       0.011092
          49  ( 2:1:   9/   2)   22u2202d        0.071410       0.005099
          85  ( 2:1:   5/   4)   u2222dud        0.070162       0.004923
         116  ( 3:1:   6/   2)   22ud2ud2        0.061706       0.003808
         155  ( 3:1:   5/   6)   2ud22202        0.061749       0.003813
         162  ( 3:1:   2/   7)   u2d222ud        0.099704       0.009941
         225  ( 4:1:   1/   5)   u2u222dd        0.132525       0.017563
         301  ( 5:1:   1/  17)   02u2222d       -0.087237       0.007610
 
  The CI coefficients for the MIXED state nr.   7
--------------------------------------------------------------------------------
 CI COEFFICIENTS LARGER THAN  0.50D-01
  Occupation of active orbitals, and spin coupling
  of open shells. (u,d: Spin up or down).
  SGUGA info is (Midvert:IsyUp:UpperWalk/LowerWalk)
        Conf  SGUGA info        Occupation    Coefficient         Weight
           3  ( 1:1:   3/   1)   2222u2d0       -0.081661       0.006669
           7  ( 1:1:   7/   1)   22222u0d        0.066221       0.004385
           8  ( 1:1:   8/   1)   2222u20d        0.732368       0.536363
          10  ( 1:1:  10/   1)   2222udud       -0.223817       0.050094
          12  ( 1:1:  12/   1)   2222uudd       -0.252356       0.063684
          13  ( 1:1:  13/   1)   2222u02d       -0.093435       0.008730
          24  ( 2:1:   4/   1)   222u220d       -0.112875       0.012741
          36  ( 2:1:  16/   1)   222udud2       -0.078697       0.006193
          44  ( 2:1:   4/   2)   22u2220d       -0.431400       0.186106
          45  ( 2:1:   5/   2)   22u22dud        0.143827       0.020686
          46  ( 2:1:   6/   2)   22u2d2ud       -0.138118       0.019076
          48  ( 2:1:   8/   2)   22u2u2dd        0.194639       0.037884
          74  ( 2:1:  14/   3)   2u22d202       -0.060102       0.003612
          85  ( 2:1:   5/   4)   u2222dud        0.051916       0.002695
          91  ( 2:1:  11/   4)   u222ud2d       -0.053375       0.002849
         162  ( 3:1:   2/   7)   u2d222ud        0.058391       0.003410
         194  ( 3:1:   4/  10)   0222u22d        0.056998       0.003249
         225  ( 4:1:   1/   5)   u2u222dd        0.072966       0.005324
 
--
 
--- Stop Module: caspt2 at Tue Jun 10 17:00:32 2025 /rc=_RC_ALL_IS_WELL_ ---
*** files: xmldump
    saved to directory /home/pcaah4/diamide_project
--- Module caspt2 spent 6 minutes 51 seconds ---

.##################.
.# Happy landing! #.
.##################.

    Timing: Wall=692.54 User=604.04 System=78.13
******************************************************
*** WorkDir at /srv/COMMUNAL_SCRATCH/12370 cleaned ***
******************************************************
