   This run of MOLCAS is using the pymolcas driver

                             OPE
                             OPE          NMOL  CASOP  ENMOLC A   SO
                 OPE        NMOLC        AS  OP EN  MO LC     AS  OP
                OPENM       OL CA        SO  PE NM  OL CA     SOP EN
                OP EN      MO   LC       AS  OP ENMOL  CASO   PENMOL
                OP  EN     MO   LC       AS  OP EN     MO     LC ASO
               OP   E  NMOL  C  AS       OP  EN MO     LC     AS  OP
               OP  E   NMO   LC AS        OPEN  MO     LCASOP EN   M
               O  PEN   MO  LCA  SO
            OPE   NMO   L   CAS    OP
        OPENMOL  CASOP     ENMOL   CASOPE
     OPENMOLCA   SOPENMOLCASOPEN   MOLCASOPE
    OPENMOLCAS   OP           EN   MOL    CAS
    OPENMOLCAS       OP  ENM        O     LCA
    OPENMOLCAS    OPEN  MOLCASO     P  E  NMO
    OPENMOLCAS     OP               E  N  MOL
    OPENMOLCA   SO           PENM   O  L  CAS    OPEN    MO    LCAS
    OPENMOLCA   SOP           ENM   O  L  CAS   OP  EN  MOLC  AS   O
    OPENMOLCA   SOPE           NM      O  LCA   S      OP  EN MO
    OPENMOLC                AS         O  PEN   M      OL  CA  SOPE
    OPENMO        LCASOPE  NMOL        C  ASO   P      ENMOLC     AS
    OPE     NMO      LCA  SO     P     E   NM   OL  CA SO  PE N   MO
          OPENMOLCA            SOPE   NMO        LCAS  O    P  ENMO
     OPENMOLCASOPENMOLCASOPENMOLCASOPENMOLCA
        OPENMOLCASOPENMOLCASOPENMOLCASOPE
            OPENMOLCASOPENMOLCASOPENM
               OPENMOLCASOPENMOLCA        version: v23.06
                   OPENMOLCASO
                       OPE                tag:

 OpenMolcas is free software; you can redistribute it and/or modify it
 under the terms of the GNU Lesser General Public License version 2.1.
 OpenMolcas is distributed in the hope that it will be useful, but it
 is provided "as is" and without any express or implied warranties.
 For more details see the full text of the license in the file
 LICENSE or in <http://www.gnu.org/licenses/>.

                 Copyright (C) The OpenMolcas Authors
           For the author list and the recommended citation,
                   consult the file CONTRIBUTORS.md

           *************************************************
           * pymolcas version py2.24                       *
           *   build 4567b286dd94b1984b333a4ddf893180      *
           *   (after the EMIL interpreter by V. Veryazov) *
           *************************************************

configuration info
------------------
Host name: loginchem01.nottingham.ac.uk (Linux)
C Compiler ID: Intel
C flags: -std=gnu99 -gcc-sys -qopenmp
Fortran Compiler ID: Intel
Fortran flags: -fpp -i8 -heap-arrays -qopenmp
Definitions: _MOLCAS_;_I8_;_LINUX_
Parallel: OFF (GA=OFF)


   ---------------------------------------------------------------------------------------------------
  |
  |              Project: orca_geometry_optimisation_30_315_BP86_def2-SVP_def2J_scf_cas1_ras12i11_cas8
  |       Submitted from: /home/pcaah4/diamide_project
  |         Scratch area: /srv/COMMUNAL_SCRATCH/12463
  |      Save outputs to: /home/pcaah4/diamide_project
  |               Molcas: /software/chemistry/openmolcas/openmolcas-23.06-openmp
  |
  | Scratch area is empty
  |
  |       MOLCAS_DRIVER = /software/chemistry/openmolcas/openmolcas-23.06-openmp/sbin/pymolcas
  | MOLCAS_KEEP_WORKDIR = NO
  |       MOLCAS_NPROCS = 1
  |       MOLCAS_SOURCE = /software/chemistry/openmolcas/openmolcas-23.06-openmp
  |    MOLCAS_STRUCTURE = 0
  |
   ---------------------------------------------------------------------------------------------------

++ ---------   Input file   ---------

&SEWARD
TITLE
orca_geometry_optimisation_30_315_BP86_def2-SVP_def2J_scf_cas1_ras12i11
MULTIPOLES
2
SDIPOLE
ANGMOM
0 0 0
BASIS SET
C.ANO-S...4S3P1D.
C1           -0.154677   -0.422979   -0.238307 /Angstrom
C3            1.829287    1.145408    0.331808 /Angstrom
C4            1.139440    2.370451    0.997329 /Angstrom
C6           -0.787241    3.880783    1.088950 /Angstrom
C19          -0.495943   -1.909506   -0.251450 /Angstrom
END OF BASIS
BASIS SET
N.ANO-S...4S3P1D.
N2            1.149948   -0.133061    0.051666 /Angstrom
N5           -0.094442    2.723268    0.555521 /Angstrom
END OF BASIS
BASIS SET
O.ANO-S...4S3P1D.
O7           -1.024209    0.414960   -0.517213 /Angstrom
O8            1.817879    3.021896    1.797354 /Angstrom
END OF BASIS
BASIS SET
H.ANO-S...2S1P.
H9           -0.949941   -2.157112   -1.230919 /Angstrom
H10          -1.270565   -2.099028    0.518641 /Angstrom
H11           0.364241   -2.582693   -0.068575 /Angstrom
H12           1.720160   -0.947093    0.285695 /Angstrom
H13           2.673059    0.920245    1.008655 /Angstrom
H14           2.278814    1.536260   -0.611906 /Angstrom
H15          -0.606531    2.016169   -0.011257 /Angstrom
H16          -0.105748    4.398674    1.790210 /Angstrom
H17          -1.073907    4.586145    0.279534 /Angstrom
H18          -1.711755    3.588117    1.632256 /Angstrom
END OF BASIS
END OF INPUT

&RASSCF
TITLE
orca_geometry_optimisation_30_315_BP86_def2-SVP_def2J_scf_cas1_ras12i11
LUMORB
SPIN
1
SYMMETRY
1
NACTEL
12  0  0
INACTIVE
29
DELETED  ! delete Rydberg orbitals from an initial CAS(12,11) if done
3
FROZEN
0
RAS2
8
ITERATIONS
64 25
CIROOT
7 7
1 2 3 4 5 6 7
1 1 1 1 1 1 1
LEVSHFT
0.3
CIMX
20
FILEorb = /home/pcaah4/diamide_project/cas/ras12i11/ras_orb/orca_geometry_optimisation_30_315_BP86_def2-SVP_def2J_scf_cas1_ras12i11.RasOrb
ALTEr
0
END OF INPUT

&RASSI
NROF JOBIPH
    1 7
    1 2 3 5 4 6 7
TOFILE
TRDI
TDMN
1.0D-6
END OF INPUT

&CASPT2
TITLE
orca_geometry_optimisation_30_315_BP86_def2-SVP_def2J_scf_cas1_ras12i11
MULTISTATE
7 1 2 3 4 5 6 7
SHIFT
0.35
MAXITER
50
END OF INPUT

-- ----------------------------------

--- Start Module: seward at Tue Jun 10 20:49:07 2025 ---
 
()()()()()()()()()()()()()()()()()()()()()()()()()()()()()()()()()()()()()()()()()()()()()()()()()()

                                              &SEWARD

                                   only a single process is used
                       available to each process: 2.0 GB of memory, 1 thread
                                            pid: 3127215
()()()()()()()()()()()()()()()()()()()()()()()()()()()()()()()()()()()()()()()()()()()()()()()()()()
 
               SEWARD will generate:
                  Multipole Moment integrals up to order  2
                  Kinetic Energy integrals
                  Nuclear Attraction integrals (point charge)
                  One-Electron Hamiltonian integrals
                  Velocity integrals
                  Orbital angular momentum around ( 0.0000  0.0000  0.0000 )
                  Velocity quadrupole around ( 0.6853  2.3440  0.8098 )
                  Two-Electron Repulsion integrals
 
 Title:
            orca_geometry_optimisation_30_315_BP86_def2-SVP_def2J_scf_cas1_ras12i11     
 
 
                   Integrals are discarded if absolute value <: 0.10E-13
                   Integral cutoff threshold is set to       <: 0.10E-15
 
++    Symmetry information:
      ---------------------
 
                    Character Table for C1 
 
                             E  
                    a        1  x, y, xy, Rz, z, xz, Ry, yz, Rx, I
--
 
 
++    Basis set information:
      ----------------------
 
 
      Basis set label: C.ANO-S...4S3P1D......
 
      Electronic valence basis set:
      ------------------
      Associated Effective Charge   6.000000 au
      Associated Actual Charge      6.000000 au
      Nuclear Model: Point charge
 
      Shell  nPrim  nBasis  Cartesian Spherical Contaminant
         s      10       4        X                  
         p       6       3        X                  
         d       3       1                 X         
 
 
      Basis set label: N.ANO-S...4S3P1D......
 
      Electronic valence basis set:
      ------------------
      Associated Effective Charge   7.000000 au
      Associated Actual Charge      7.000000 au
      Nuclear Model: Point charge
 
      Shell  nPrim  nBasis  Cartesian Spherical Contaminant
         s      10       4        X                  
         p       6       3        X                  
         d       3       1                 X         
 
 
      Basis set label: O.ANO-S...4S3P1D......
 
      Electronic valence basis set:
      ------------------
      Associated Effective Charge   8.000000 au
      Associated Actual Charge      8.000000 au
      Nuclear Model: Point charge
 
      Shell  nPrim  nBasis  Cartesian Spherical Contaminant
         s      10       4        X                  
         p       6       3        X                  
         d       3       1                 X         
 
 
      Basis set label: H.ANO-S...2S1P......
 
      Electronic valence basis set:
      ------------------
      Associated Effective Charge   1.000000 au
      Associated Actual Charge      1.000000 au
      Nuclear Model: Point charge
 
      Shell  nPrim  nBasis  Cartesian Spherical Contaminant
         s       7       2        X                  
         p       3       1        X                  
--
 
 
++    Molecular structure info:
      -------------------------
 
                    ************************************************ 
                    **** Cartesian Coordinates / Bohr, Angstrom **** 
                    ************************************************ 
 
     Center  Label                x              y              z                     x              y              z
        1      C1              -0.292297      -0.799314      -0.450335             -0.154677      -0.422979      -0.238307
        2      C3               3.456851       2.164507       0.627026              1.829287       1.145408       0.331808
        3      C4               2.153230       4.479503       1.884679              1.139440       2.370451       0.997329
        4      C6              -1.487670       7.333617       2.057817             -0.787241       3.880783       1.088950
        5      C19             -0.937196      -3.608443      -0.475172             -0.495943      -1.909506      -0.251450
        6      N2               2.173087      -0.251449       0.097635              1.149948      -0.133061       0.051666
        7      N5              -0.178470       5.146231       1.049783             -0.094442       2.723268       0.555521
        8      O7              -1.935475       0.784161      -0.977391             -1.024209       0.414960      -0.517213
        9      O8               3.435293       5.710556       3.396507              1.817879       3.021896       1.797354
       10      H9              -1.795128      -4.076351      -2.326100             -0.949941      -2.157112      -1.230919
       11      H10             -2.401020      -3.966588       0.980089             -1.270565      -2.099028       0.518641
       12      H11              0.688316      -4.880582      -0.129588              0.364241      -2.582693      -0.068575
       13      H12              3.250631      -1.789746       0.539885              1.720160      -0.947093       0.285695
       14      H13              5.051349       1.739011       1.906082              2.673059       0.920245       1.008655
       15      H14              4.306334       2.903111      -1.156335              2.278814       1.536260      -0.611906
       16      H15             -1.146177       3.810007      -0.021273             -0.606531       2.016169      -0.011257
       17      H16             -0.199835       8.312289       3.383007             -0.105748       4.398674       1.790210
       18      H17             -2.029390       8.666558       0.528243             -1.073907       4.586145       0.279534
       19      H18             -3.234748       6.780558       3.084517             -1.711755       3.588117       1.632256
 
                    ************************************************* 
                    **** InterNuclear Distances / Bohr, Angstrom **** 
                    ************************************************* 
 
     Atom centers         Bohr        Angstrom
   13 H12       6 N2      1.929520        1.021058
   16 H15       7 N5      1.967006        1.040895
   14 H13       2 C3      2.087931        1.104885
   17 H16       4 C6      2.091039        1.106530
   12 H11       5 C19     2.092858        1.107493
   10 H9        5 C19     2.093065        1.107602
   11 H10       5 C19     2.094954        1.108602
   18 H17       4 C6      2.099950        1.111246
   19 H18       4 C6      2.100540        1.111558
   15 H14       2 C3      2.108917        1.115991
    9 O8        3 C4      2.333410        1.234787
    8 O7        1 C1      2.342053        1.239361
    7 N5        3 C4      2.564839        1.357254
    6 N2        1 C1      2.584288        1.367546
    7 N5        4 C6      2.741313        1.450641
    6 N2        2 C3      2.786602        1.474606
    5 C19       1 C1      2.882311        1.525253
    3 C4        2 C3      2.939443        1.555486
   16 H15       8 O7      3.270000        1.730409
   15 H14      14 H13     3.359847        1.777954
   11 H10      10 H9      3.363040        1.779644
   19 H18      18 H17     3.397708        1.797990
   12 H11      11 H10     3.407457        1.803149
   18 H17      17 H16     3.409172        1.804056
   12 H11      10 H9      3.411590        1.805336
   19 H18      17 H16     3.412623        1.805882
   13 H12       1 C1      3.809703        2.016008
   16 H15       3 C4      3.868716        2.047236
   17 H16       7 N5      3.932978        2.081242
   14 H13       6 N2      3.939138        2.084502
   13 H12       2 C3      3.960586        2.095852
   14 H13       3 C4      3.988716        2.110738
   15 H14       6 N2      4.009293        2.121626
   18 H17       7 N5      4.011311        2.122694
   19 H18       7 N5      4.018956        2.126740
   15 H14       3 C4      4.045817        2.140954
   10 H9        1 C1      4.063984        2.150568
   11 H10       1 C1      4.065027        2.151120
   13 H12      12 H11     4.070249        2.153883
   16 H15       4 C6      4.105491        2.172532
   14 H13      13 H12     4.190609        2.217575
   12 H11       1 C1      4.209659        2.227656
    9 O8        7 N5      4.345671        2.299630
    8 O7        6 N2      4.371320        2.313203
   17 H16       9 O8      4.470275        2.365567
    9 O8        2 C3      4.499438        2.381000
    8 O7        5 C19     4.532522        2.398507
   14 H13       9 O8      4.539402        2.402148
    6 N2        5 C19     4.612091        2.440613
    4 C6        3 C4      4.629481        2.449816
   13 H12       5 C19     4.677168        2.475051
   16 H15       1 C1      4.707340        2.491017
    7 N5        2 C3      4.720694        2.498084
   17 H16       3 C4      4.740480        2.508554
   19 H18      16 H15     4.778308        2.528572
   12 H11       6 N2      4.866729        2.575362
    2 C3        1 C1      4.899088        2.592486
   16 H15       2 C3      4.931109        2.609431
   18 H17      16 H15     4.966701        2.628265
   10 H9        8 O7      5.046116        2.670290
    6 N2        3 C4      5.057255        2.676184
   15 H14      13 H12     5.100449        2.699041
    8 O7        7 N5      5.120952        2.709891
   11 H10       8 O7      5.159271        2.730169
   16 H15       6 N2      5.246626        2.776395
    9 O8        4 C6      5.353689        2.833050
   15 H14       9 O8      5.419301        2.867771
   15 H14       7 N5      5.478322        2.899003
   16 H15      15 H14     5.642758        2.986019
--
 
 
            Nuclear Potential Energy            459.33316655 au
 
 
      Basis set specifications :
      Symmetry species         a  
      Basis functions          212
 
 
      Input file to MOLDEN was generated!
 
--- Stop Module: seward at Tue Jun 10 20:50:57 2025 /rc=_RC_ALL_IS_WELL_ ---
*** files: orca_geometry_optimisation_30_315_BP86_def2-SVP_def2J_scf_cas1_ras12i11_cas8.GssOrb
           orca_geometry_optimisation_30_315_BP86_def2-SVP_def2J_scf_cas1_ras12i11_cas8.guessorb.molden xmldump
    saved to directory /home/pcaah4/diamide_project
--- Module seward spent 1 minute 50 seconds ---

*** symbolic link created: INPORB -> orca_geometry_optimisation_30_315_BP86_def2-SVP_def2J_scf_cas1_ras12i11_cas8.GssOrb
--- Start Module: rasscf at Tue Jun 10 20:50:58 2025 ---
 
()()()()()()()()()()()()()()()()()()()()()()()()()()()()()()()()()()()()()()()()()()()()()()()()()()

                                              &RASSCF

                                   only a single process is used
                       available to each process: 2.0 GB of memory, 1 thread
                                            pid: 3127247
()()()()()()()()()()()()()()()()()()()()()()()()()()()()()()()()()()()()()()()()()()()()()()()()()()
 
 
      Header of the ONEINT file:
      --------------------------
      orca_geometry_optimisation_30_315_BP86_def2-SVP_def2J_scf_cas1_ras12i11
      Integrals generated by Gateway/Seward, Tue Jun 10 20:49:07 2025
 
 
      OrdInt status: non-squared
 
 
      Cartesian coordinates in Angstrom:
      -----------------------------------------------------
      No.  Label        X            Y            Z        
      -----------------------------------------------------
       1   C1        -0.15467700  -0.42297900  -0.23830700
       2   C3         1.82928700   1.14540800   0.33180800
       3   C4         1.13944000   2.37045100   0.99732900
       4   C6        -0.78724100   3.88078300   1.08895000
       5   C19       -0.49594300  -1.90950600  -0.25145000
       6   N2         1.14994800  -0.13306100   0.05166600
       7   N5        -0.09444200   2.72326800   0.55552100
       8   O7        -1.02420900   0.41496000  -0.51721300
       9   O8         1.81787900   3.02189600   1.79735400
      10   H9        -0.94994100  -2.15711200  -1.23091900
      11   H10       -1.27056500  -2.09902800   0.51864100
      12   H11        0.36424100  -2.58269300  -0.06857500
      13   H12        1.72016000  -0.94709300   0.28569500
      14   H13        2.67305900   0.92024500   1.00865500
      15   H14        2.27881400   1.53626000  -0.61190600
      16   H15       -0.60653100   2.01616900  -0.01125700
      17   H16       -0.10574800   4.39867400   1.79021000
      18   H17       -1.07390700   4.58614500   0.27953400
      19   H18       -1.71175500   3.58811700   1.63225600
      -----------------------------------------------------
      Nuclear repulsion energy =  459.33316655
 
++    Wave function specifications:
      -----------------------------
 
      Number of closed shell electrons          58
      Number of electrons in active shells      12
      Max number of holes in RAS1 space          0
      Max nr of electrons in RAS3 space          0
      Number of inactive orbitals               29
      Number of active orbitals                  8
      Number of secondary orbitals             172
      Spin quantum number                      0.0
      State symmetry                             1
--
 
++    Orbital specifications:
      -----------------------
 
      Symmetry species                           1
                                                 a
      Frozen orbitals                            0
      Inactive orbitals                         29
      Active orbitals                            8
      RAS1 orbitals                              0
      RAS2 orbitals                              8
      RAS3 orbitals                              0
      Secondary orbitals                       172
      Deleted orbitals                           3
      Number of basis functions                212
--
 
++    CI expansion specifications:
      ----------------------------
 
      Number of CSFs                           336
      Number of determinants                   406
      Number of root(s) required                 7
      Root chosen for geometry opt.              7
      CI roots used                              1     2     3     4     5     6     7
      weights                                0.143 0.143 0.143 0.143 0.143 0.143 0.143
      highest root included in the CI            7
      max. size of the explicit Hamiltonian    200
--
 
++    Optimization specifications:
      ----------------------------
 
      RASSCF algorithm: Conventional
      Maximum number of macro iterations        64
      Maximum number of SX iterations           25
      Threshold for RASSCF energy            0.100E-07
      Threshold for max MO rotation          0.100E+00
      Threshold for max BLB element          0.100E-03
      Level shift parameter                  0.300E+00
      Make Quasi-Newton update
--
 
      The MO-coefficients are taken from the file:
      /home/pcaah4/diamide_project/cas/ras12i11/ras_orb/orca_geometry_optimisation_30_315_BP86_def2-SVP_def2J_scf_cas1_ras12i11.RasOrb                                                                                                                                
      Title: RASSCF average (pseudo-natural) orbitals                                      
 
      Total molecular charge    0.00
 
      ************************************************************************************************************************
      *                                                                                                                      *
      *                                            Wave function control section                                             *
      *                                                                                                                      *
      ************************************************************************************************************************
 
 
                                         RASSCF iterations: Energy and convergence statistics
                                         ----------------------------------------------------
 
      Iter CI   SX   CI       RASSCF       Energy    max ROT     max BLB   max BLB  Level Ln srch  Step   QN   Walltime
          iter iter root      energy       change     param      element    value   shift minimum  type update hh:mm:ss
 Nr of preliminary CI iterations:   4
        1   1   25    0  -453.67745040    0.00E+00   0.61E-01   33  39 1 -0.31E-01*  0.18   0.00    SX    NO    0:00:13
        2   5   18    0  -453.69680996   -0.19E-01*  0.44E-01   32  40 1  0.70E-02*  0.14   0.00    SX    NO    0:00:07
        3   1   12    0  -453.69931601   -0.25E-02*  0.25E-01   37  38 1 -0.38E-02*  0.15   0.00    SX    NO    0:00:06
        4   4   11    0  -453.70015418   -0.84E-03* -0.15E-01   33  39 1  0.27E-02*  0.14   0.00    SX    NO    0:00:06
        5   5   10    0  -453.70037942   -0.23E-03* -0.18E-01   37  38 1 -0.14E-02*  0.14   1.44    QN   YES    0:00:06
        6   4    9    0  -453.70049360   -0.11E-03*  0.38E-02   25  70 1 -0.36E-03*  0.14   1.11    QN   YES    0:00:07
        7   5    9    0  -453.70050095   -0.73E-05* -0.11E-02   25  85 1 -0.30E-03*  0.14   0.92    QN   YES    0:00:07
        8   5    9    0  -453.70050347   -0.25E-05* -0.46E-03   34  40 1  0.72E-04   0.14   1.30    QN   YES    0:00:06
        9   5    8    0  -453.70050416   -0.69E-06* -0.26E-03   25  85 1 -0.33E-04   0.14   1.32    QN   YES    0:00:06
       10   3    7    0  -453.70050430   -0.15E-06*  0.94E-04   18  39 1  0.19E-04   0.14   1.00    QN   YES    0:00:06
       11   1    7    0  -453.70050433   -0.23E-07*  0.10E-03   37  55 1 -0.92E-05   0.14   2.00    QN   YES    0:00:06
       12   1    6    0  -453.70050434   -0.86E-08   0.16E-04   30  50 1 -0.29E-05   0.14   0.97    QN   YES    0:00:06
      Convergence after 12 iterations
       13   1    6    0  -453.70050434   -0.88E-09   0.16E-04   31  50 1 -0.16E-05   0.14   0.97    QN   YES    0:00:06
 
      ************************************************************************************************************************
                                                      Wave function printout:
                       occupation of active orbitals, and spin coupling of open shells (u,d: Spin up or down)
      ************************************************************************************************************************
 
      Note: transformation to natural orbitals
      has been made, which may change the order of the CSFs.
 
      printout of CI-coefficients larger than  0.05 for root  1
      energy=    -453.944546
      conf/sym  11111111     Coeff  Weight
             1  22222200   0.96195 0.92534
             2  22222ud0   0.09835 0.00967
             4  22222020  -0.09805 0.00961
            64  2u22220d   0.12221 0.01494
            81  u22222d0   0.09406 0.00885
            82  u2222d20  -0.06178 0.00382
           145  22022202  -0.08030 0.00645
           175  20222202  -0.07664 0.00587
           191  02222220  -0.09442 0.00891
 
      printout of CI-coefficients larger than  0.05 for root  2
      energy=    -453.733913
      conf/sym  11111111     Coeff  Weight
             3  2222u2d0  -0.95586 0.91367
             5  2222ud20   0.13812 0.01908
             8  2222u20d  -0.06058 0.00367
            66  2u22d2ud  -0.06519 0.00425
            68  2u22u2dd  -0.10718 0.01149
            83  u222d220   0.16033 0.02571
           147  2202u2d2   0.08096 0.00655
           177  2022u2d2   0.07713 0.00595
 
      printout of CI-coefficients larger than  0.05 for root  3
      energy=    -453.715859
      conf/sym  11111111     Coeff  Weight
             7  22222u0d  -0.06868 0.00472
             8  2222u20d   0.07316 0.00535
            24  222u220d  -0.94970 0.90193
            25  222u2dud  -0.06713 0.00451
            27  222u2udd  -0.11192 0.01253
            29  222u202d   0.08759 0.00767
           115  22ud2202   0.15270 0.02332
           125  2u2d2202   0.11354 0.01289
           213  u22u22dd   0.07129 0.00508
           214  u22u2d2d  -0.05880 0.00346
           269  022u222d  -0.09719 0.00945
 
      printout of CI-coefficients larger than  0.05 for root  4
      energy=    -453.650500
      conf/sym  11111111     Coeff  Weight
             2  22222ud0  -0.36679 0.13454
             4  22222020  -0.08779 0.00771
             7  22222u0d  -0.42349 0.17934
             8  2222u20d  -0.45830 0.21004
            10  2222udud   0.08259 0.00682
            12  2222uudd   0.11761 0.01383
            44  22u2220d  -0.59651 0.35583
            47  22u22udd  -0.06014 0.00362
            49  22u2202d   0.06956 0.00484
            81  u22222d0   0.05207 0.00271
            82  u2222d20   0.09070 0.00823
            85  u2222dud   0.06087 0.00371
            87  u2222udd   0.06324 0.00400
           155  2ud22202   0.14677 0.02154
           193  02222u2d  -0.05413 0.00293
           225  u2u222dd   0.06488 0.00421
           301  02u2222d  -0.05759 0.00332
 
      printout of CI-coefficients larger than  0.05 for root  5
      energy=    -453.635344
      conf/sym  11111111     Coeff  Weight
             2  22222ud0  -0.15408 0.02374
             7  22222u0d   0.85201 0.72592
             8  2222u20d  -0.26972 0.07275
            12  2222uudd   0.06636 0.00440
            24  222u220d  -0.06788 0.00461
            44  22u2220d  -0.28333 0.08028
            73  2u222d02  -0.06509 0.00424
            85  u2222dud  -0.15259 0.02328
            87  u2222udd  -0.15544 0.02416
           155  2ud22202   0.06162 0.00380
           193  02222u2d   0.12052 0.01453
 
      printout of CI-coefficients larger than  0.05 for root  6
      energy=    -453.617351
      conf/sym  11111111     Coeff  Weight
             1  22222200  -0.08019 0.00643
             2  22222ud0   0.81603 0.66590
             4  22222020   0.16071 0.02583
             8  2222u20d  -0.12313 0.01516
            44  22u2220d  -0.42672 0.18209
            65  2u222dud   0.05441 0.00296
            67  2u222udd   0.09006 0.00811
            82  u2222d20  -0.21071 0.04440
           146  22022ud2  -0.07455 0.00556
           155  2ud22202   0.10491 0.01101
           176  20222ud2  -0.05931 0.00352
           191  02222220  -0.09395 0.00883
 
      printout of CI-coefficients larger than  0.05 for root  7
      energy=    -453.606018
      conf/sym  11111111     Coeff  Weight
             2  22222ud0  -0.14840 0.02202
             4  22222020  -0.07145 0.00511
             7  22222u0d   0.05102 0.00260
             8  2222u20d   0.74040 0.54819
            10  2222udud  -0.16943 0.02871
            12  2222uudd  -0.24900 0.06200
            24  222u220d   0.07756 0.00602
            44  22u2220d  -0.51692 0.26721
            49  22u2202d   0.05208 0.00271
            81  u22222d0   0.07726 0.00597
            91  u222ud2d  -0.06787 0.00461
           155  2ud22202   0.11817 0.01396
           194  0222u22d   0.06314 0.00399
 
      Natural orbitals and occupation numbers for root  1
      sym 1:   1.993999   1.973924   1.993124   1.999907   1.999617   1.953284   0.052967   0.033178
 
      Natural orbitals and occupation numbers for root  2
      sym 1:   1.999789   1.972644   1.993314   1.999810   0.997570   1.999602   1.003238   0.034032
 
      Natural orbitals and occupation numbers for root  3
      sym 1:   1.995344   1.999939   1.999718   1.010686   1.999208   1.950965   0.053900   0.990240
 
      Natural orbitals and occupation numbers for root  4
      sym 1:   1.940425   1.970365   1.157498   1.999797   1.992972   1.828064   0.221481   0.889398
 
      Natural orbitals and occupation numbers for root  5
      sym 1:   1.984434   1.995092   1.912002   1.999810   1.997876   1.056563   0.097897   0.956326
 
      Natural orbitals and occupation numbers for root  6
      sym 1:   1.949191   1.969067   1.766393   1.999793   1.998819   1.252367   0.798810   0.265559
 
      Natural orbitals and occupation numbers for root  7
      sym 1:   1.969737   1.993597   1.944871   1.999779   1.151280   1.897863   0.132448   0.910425
 
      ************************************************************************************************************************
      *                                                                                                                      *
      *                                                    Final results                                                     *
      *                                                                                                                      *
      ************************************************************************************************************************
 
 
++    Wave function specifications:
      -----------------------------
 
      Number of closed shell electrons          58
      Number of electrons in active shells      12
      Max number of holes in RAS1 space          0
      Max nr of electrons in RAS3 space          0
      Number of inactive orbitals               29
      Number of active orbitals                  8
      Number of secondary orbitals             172
      Spin quantum number                      0.0
      State symmetry                             1
--
 
++    Orbital specifications:
      -----------------------
 
      Symmetry species                           1
                                                 a
      Frozen orbitals                            0
      Inactive orbitals                         29
      Active orbitals                            8
      RAS1 orbitals                              0
      RAS2 orbitals                              8
      RAS3 orbitals                              0
      Secondary orbitals                       172
      Deleted orbitals                           3
      Number of basis functions                212
--
 
++    CI expansion specifications:
      ----------------------------
 
      Number of CSFs                           336
      Number of determinants                   406
      Number of root(s) required                 7
      CI roots used                              1     2     3     4     5     6     7
      weights                                0.143 0.143 0.143 0.143 0.143 0.143 0.143
      highest root included in the CI            7
      Root passed to geometry opt.               7
--
 
++    Final optimization conditions:
      ------------------------------
 
      Average CI energy                            -453.70050434
      RASSCF energy for state  7                   -453.60601751
      Super-CI energy                                -0.00000000
      RASSCF energy change                            0.00000000
      Max change in MO coefficients               0.264E-04
      Max non-diagonal density matrix element     0.158E-04
      Maximum BLB matrix element                 -0.159E-05
      (orbital pair  31,  50 in symmetry   1)
      Norm of electronic gradient            0.281E+00
--
 
 
      Final state energy(ies):
      ------------------------
 
::    RASSCF root number  1 Total energy:   -453.94454622
::    RASSCF root number  2 Total energy:   -453.73391296
::    RASSCF root number  3 Total energy:   -453.71585917
::    RASSCF root number  4 Total energy:   -453.65049981
::    RASSCF root number  5 Total energy:   -453.63534372
::    RASSCF root number  6 Total energy:   -453.61735097
::    RASSCF root number  7 Total energy:   -453.60601751
 
++    Molecular orbitals:
      -------------------
 
      Pseudonatural active orbitals and approximate occupation numbers
 
 
 
 
      Molecular orbitals for symmetry species 1: a  
 
 
      Orbital                 1         2         3         4         5         6         7         8         9        10
      Energy           -20.5986  -20.5253  -15.6212  -15.5957  -11.3414  -11.3011  -11.2857  -11.2836  -11.2267   -1.4219
      Occ. No.           2.0000    2.0000    2.0000    2.0000    2.0000    2.0000    2.0000    2.0000    2.0000    2.0000
 
     1 C1     1s        -0.0001    0.0003   -0.0000    0.0002   -0.0001   -0.0009    0.9999   -0.0000   -0.0052   -0.0005
     2 C1     2s        -0.0005    0.0007   -0.0003    0.0007   -0.0005   -0.0015    0.0021   -0.0004   -0.0005    0.0278
     3 C1     3s        -0.0004   -0.0006   -0.0003    0.0003   -0.0004   -0.0011   -0.0003   -0.0003   -0.0008    0.0101
     4 C1     4s        -0.0001   -0.0004   -0.0001    0.0001   -0.0001   -0.0003    0.0013   -0.0001   -0.0002    0.0037
     5 C1     2px       -0.0002   -0.0017    0.0001    0.0015   -0.0003   -0.0008    0.0012   -0.0002   -0.0001    0.0106
     6 C1     3px       -0.0003   -0.0010    0.0001    0.0012   -0.0003   -0.0009    0.0009   -0.0004    0.0001    0.0172
     7 C1     4px       -0.0001    0.0002   -0.0000   -0.0000   -0.0000   -0.0001    0.0003   -0.0001    0.0001    0.0037
     8 C1     2py        0.0003    0.0024    0.0001    0.0005   -0.0005   -0.0003    0.0010   -0.0002   -0.0008    0.0168
     9 C1     3py        0.0003    0.0015    0.0001    0.0003   -0.0007   -0.0007    0.0009   -0.0003    0.0000    0.0182
    10 C1     4py       -0.0000   -0.0004   -0.0000   -0.0001   -0.0001   -0.0003    0.0007   -0.0000    0.0003    0.0066
    11 C1     2pz       -0.0000   -0.0006   -0.0000    0.0005   -0.0002   -0.0002    0.0002    0.0000    0.0000    0.0024
    12 C1     3pz        0.0000   -0.0003   -0.0001    0.0003   -0.0003   -0.0001    0.0004   -0.0000    0.0000    0.0044
    13 C1     4pz        0.0000    0.0001   -0.0000   -0.0001   -0.0001    0.0000    0.0000   -0.0000    0.0000    0.0013
    14 C1     3d2-       0.0000    0.0001    0.0000    0.0000   -0.0000   -0.0000   -0.0003    0.0000    0.0000   -0.0010
    15 C1     3d1-       0.0000    0.0000   -0.0000    0.0000   -0.0000    0.0000   -0.0001    0.0000    0.0000   -0.0006
    16 C1     3d0       -0.0000   -0.0000    0.0000    0.0001    0.0000   -0.0000   -0.0003    0.0000    0.0001   -0.0011
    17 C1     3d1+       0.0000   -0.0000    0.0000   -0.0001   -0.0000    0.0000    0.0002   -0.0000   -0.0001    0.0008
    18 C1     3d2+       0.0000   -0.0000    0.0000   -0.0002    0.0000    0.0000    0.0002    0.0000   -0.0001    0.0001
    19 C3     1s         0.0001    0.0001    0.0001    0.0005    0.0067    0.9995    0.0008    0.0000    0.0000   -0.0128
    20 C3     2s         0.0005    0.0005    0.0006    0.0030    0.0003   -0.0010    0.0002    0.0009    0.0003    0.0091
    21 C3     3s         0.0003    0.0003    0.0004    0.0016   -0.0001   -0.0023    0.0001    0.0005    0.0002   -0.0360
    22 C3     4s         0.0000    0.0000    0.0000    0.0002    0.0000    0.0007   -0.0001    0.0000    0.0000   -0.0045
    23 C3     2px       -0.0006   -0.0003    0.0003   -0.0006    0.0002    0.0001    0.0006   -0.0003    0.0001    0.0070
    24 C3     3px       -0.0004   -0.0002    0.0003   -0.0000    0.0004    0.0001    0.0008   -0.0004    0.0002    0.0140
    25 C3     4px        0.0001    0.0000    0.0000    0.0003    0.0000   -0.0007    0.0002   -0.0000    0.0001   -0.0038
    26 C3     2py       -0.0007   -0.0001    0.0001   -0.0003   -0.0001   -0.0004    0.0003    0.0000   -0.0001    0.0221
    27 C3     3py       -0.0009   -0.0001   -0.0001    0.0003   -0.0008   -0.0004    0.0003   -0.0003    0.0000    0.0052
    28 C3     4py       -0.0002   -0.0000   -0.0001    0.0002   -0.0003   -0.0005   -0.0000   -0.0002    0.0001    0.0081
    29 C3     2pz       -0.0009   -0.0002    0.0006    0.0002    0.0003   -0.0001    0.0004   -0.0002   -0.0001    0.0261
    30 C3     3pz       -0.0010   -0.0002    0.0005    0.0003    0.0000   -0.0001    0.0005   -0.0004   -0.0001    0.0089
    31 C3     4pz       -0.0001   -0.0000   -0.0001    0.0000   -0.0001   -0.0001    0.0001   -0.0001    0.0000    0.0025
    32 C3     3d2-      -0.0000    0.0000   -0.0000    0.0000   -0.0000   -0.0001    0.0000   -0.0001    0.0000   -0.0003
    33 C3     3d1-      -0.0000    0.0000    0.0001   -0.0000   -0.0000   -0.0001   -0.0000    0.0000   -0.0000    0.0034
    34 C3     3d0       -0.0001    0.0000   -0.0000    0.0000    0.0000    0.0001   -0.0000   -0.0000   -0.0000    0.0011
    35 C3     3d1+       0.0000   -0.0000    0.0001   -0.0001   -0.0001    0.0001    0.0000   -0.0000   -0.0000   -0.0014
    36 C3     3d2+       0.0001   -0.0000   -0.0000    0.0001   -0.0000    0.0000    0.0001   -0.0000   -0.0000   -0.0051
    37 C4     1s         0.0004    0.0000    0.0002   -0.0002    1.0000   -0.0066   -0.0001    0.0002   -0.0000   -0.0403
    38 C4     2s         0.0017    0.0001    0.0008   -0.0012    0.0024    0.0006   -0.0006   -0.0001   -0.0001    0.3458
    39 C4     3s         0.0001    0.0001    0.0001   -0.0009   -0.0000    0.0002   -0.0005   -0.0001   -0.0000   -0.0120
    40 C4     4s        -0.0003    0.0000   -0.0000   -0.0002    0.0013    0.0000   -0.0002   -0.0001   -0.0000    0.0019
    41 C4     2px        0.0018    0.0001   -0.0014   -0.0003   -0.0005    0.0005   -0.0003    0.0002   -0.0001    0.0405
    42 C4     3px        0.0014    0.0002   -0.0009   -0.0004   -0.0005    0.0006   -0.0004    0.0007   -0.0001   -0.0425
    43 C4     4px       -0.0001    0.0001    0.0002   -0.0001   -0.0001    0.0002   -0.0000    0.0004   -0.0000    0.0095
    44 C4     2py        0.0018   -0.0003    0.0008    0.0010    0.0011   -0.0008    0.0005    0.0001    0.0001    0.0757
    45 C4     3py        0.0013   -0.0003    0.0005    0.0010    0.0006   -0.0001    0.0008   -0.0004    0.0002   -0.0387
    46 C4     4py       -0.0002   -0.0000   -0.0001    0.0001    0.0005    0.0002    0.0002   -0.0004    0.0001    0.0159
    47 C4     2pz        0.0020    0.0001   -0.0003    0.0001   -0.0001   -0.0005   -0.0001    0.0001    0.0000    0.0685
    48 C4     3pz        0.0014    0.0002   -0.0003    0.0000   -0.0000   -0.0002   -0.0001   -0.0001    0.0001   -0.0389
    49 C4     4pz       -0.0002    0.0001   -0.0000   -0.0000    0.0001    0.0001    0.0000   -0.0001    0.0000    0.0177
    50 C4     3d2-      -0.0001    0.0000    0.0000    0.0000    0.0001    0.0000   -0.0000   -0.0001   -0.0000    0.0171
    51 C4     3d1-      -0.0000   -0.0000    0.0000   -0.0000    0.0003   -0.0000   -0.0000    0.0000   -0.0000    0.0264
    52 C4     3d0       -0.0001    0.0000    0.0001   -0.0000   -0.0001    0.0000    0.0000   -0.0001   -0.0000    0.0019
    53 C4     3d1+      -0.0001   -0.0000   -0.0002   -0.0000    0.0005   -0.0000   -0.0000    0.0001   -0.0000    0.0306
    54 C4     3d2+      -0.0000    0.0000   -0.0002    0.0001    0.0002   -0.0001    0.0000    0.0000   -0.0000    0.0062
    55 C6     1s         0.0001   -0.0000    0.0004   -0.0001   -0.0001    0.0002   -0.0000    0.9996    0.0000   -0.0091
    56 C6     2s         0.0008   -0.0000    0.0021   -0.0008    0.0004    0.0008    0.0000   -0.0003    0.0000    0.0135
    57 C6     3s         0.0006   -0.0001    0.0008   -0.0007    0.0001    0.0006   -0.0001   -0.0018   -0.0000   -0.0165
    58 C6     4s         0.0001   -0.0000   -0.0000   -0.0002   -0.0001    0.0001   -0.0001    0.0009   -0.0000   -0.0009
    59 C6     2px        0.0004   -0.0002    0.0003   -0.0001   -0.0003    0.0002   -0.0002   -0.0001   -0.0000    0.0117
    60 C6     3px        0.0003   -0.0001   -0.0001   -0.0001   -0.0005    0.0001   -0.0003   -0.0001   -0.0000   -0.0026
    61 C6     4px       -0.0001    0.0000   -0.0002   -0.0000   -0.0002   -0.0001   -0.0001    0.0004   -0.0000    0.0029
    62 C6     2py       -0.0001   -0.0000   -0.0005    0.0002    0.0001   -0.0003    0.0000   -0.0001    0.0000   -0.0163
    63 C6     3py       -0.0001    0.0000    0.0001    0.0002    0.0001   -0.0002    0.0001    0.0002    0.0000    0.0005
    64 C6     4py       -0.0000    0.0000    0.0002   -0.0000    0.0000    0.0000    0.0000   -0.0006   -0.0000   -0.0025
    65 C6     2pz       -0.0000    0.0000   -0.0003    0.0002   -0.0000   -0.0000    0.0001   -0.0001    0.0000    0.0005
    66 C6     3pz       -0.0000    0.0000   -0.0000    0.0002   -0.0001    0.0000    0.0001    0.0002    0.0000    0.0041
    67 C6     4pz       -0.0000   -0.0000    0.0001   -0.0000   -0.0001    0.0000    0.0000   -0.0002   -0.0000   -0.0012
    68 C6     3d2-      -0.0000    0.0000    0.0000    0.0000   -0.0001   -0.0000   -0.0000    0.0000    0.0000   -0.0030
    69 C6     3d1-       0.0000   -0.0000   -0.0001   -0.0000   -0.0000    0.0000    0.0000   -0.0001    0.0000    0.0020
    70 C6     3d0       -0.0000   -0.0000    0.0000    0.0000   -0.0000   -0.0000   -0.0000    0.0000    0.0000   -0.0019
    71 C6     3d1+       0.0000   -0.0000   -0.0000    0.0000    0.0000   -0.0000   -0.0000    0.0000    0.0000   -0.0012
    72 C6     3d2+      -0.0000   -0.0000    0.0000    0.0000    0.0000   -0.0000    0.0000    0.0001   -0.0000   -0.0010
    73 C19    1s         0.0000    0.0002    0.0000    0.0000   -0.0000    0.0001    0.0052   -0.0000    1.0000   -0.0004
    74 C19    2s        -0.0000    0.0010    0.0000    0.0002   -0.0001    0.0006    0.0007   -0.0001    0.0020    0.0030
    75 C19    3s        -0.0001    0.0006   -0.0000    0.0002   -0.0001    0.0003    0.0002   -0.0001   -0.0004    0.0039
    76 C19    4s        -0.0000    0.0000   -0.0000   -0.0000   -0.0001   -0.0000    0.0001   -0.0000    0.0012    0.0026
    77 C19    2px        0.0002    0.0007    0.0001   -0.0003    0.0000    0.0002   -0.0002   -0.0000   -0.0000   -0.0019
    78 C19    3px        0.0001    0.0005    0.0001   -0.0002    0.0000    0.0003   -0.0003   -0.0000   -0.0000   -0.0025
    79 C19    4px        0.0000   -0.0001   -0.0000   -0.0000   -0.0000    0.0000   -0.0000    0.0000    0.0001   -0.0002
    80 C19    2py       -0.0000   -0.0000    0.0000    0.0003   -0.0001    0.0001    0.0003   -0.0001   -0.0005    0.0048
    81 C19    3py       -0.0001   -0.0002   -0.0000    0.0003   -0.0001    0.0000   -0.0002   -0.0001   -0.0001    0.0045
    82 C19    4py       -0.0000   -0.0002   -0.0000   -0.0001    0.0000   -0.0001   -0.0001   -0.0000    0.0003    0.0010
    83 C19    2pz       -0.0001    0.0002    0.0001   -0.0002    0.0001   -0.0001   -0.0002   -0.0001    0.0000   -0.0009
    84 C19    3pz       -0.0001    0.0001    0.0001   -0.0002    0.0001   -0.0001   -0.0002   -0.0000   -0.0000   -0.0015
    85 C19    4pz        0.0000   -0.0000    0.0000    0.0000    0.0000   -0.0000   -0.0000    0.0000    0.0000   -0.0004
    86 C19    3d2-      -0.0000    0.0001   -0.0000   -0.0000   -0.0000    0.0000    0.0000    0.0000   -0.0001   -0.0001
    87 C19    3d1-       0.0000    0.0000   -0.0000   -0.0000    0.0000    0.0000    0.0000   -0.0000   -0.0000   -0.0001
    88 C19    3d0       -0.0000   -0.0001   -0.0000   -0.0001   -0.0000   -0.0000    0.0001    0.0000    0.0001    0.0002
    89 C19    3d1+       0.0000    0.0000   -0.0000    0.0000    0.0000    0.0000   -0.0001    0.0000    0.0000   -0.0002
    90 C19    3d2+      -0.0000    0.0001   -0.0000   -0.0000    0.0000   -0.0000   -0.0001    0.0000    0.0001   -0.0000
    91 N2     1s        -0.0000    0.0001    0.0000    0.9998    0.0001    0.0002   -0.0003   -0.0000    0.0001   -0.0017
    92 N2     2s        -0.0002    0.0005    0.0000   -0.0002    0.0006    0.0022   -0.0002   -0.0001    0.0004    0.0212
    93 N2     3s        -0.0001    0.0003    0.0000   -0.0015    0.0004    0.0014   -0.0003   -0.0000    0.0003   -0.0042
    94 N2     4s         0.0000    0.0001    0.0000    0.0004    0.0001    0.0004    0.0000   -0.0000    0.0001   -0.0015
    95 N2     2px       -0.0002    0.0003   -0.0000    0.0003   -0.0003   -0.0001   -0.0002   -0.0002   -0.0003    0.0020
    96 N2     3px       -0.0005    0.0003   -0.0001    0.0001   -0.0004   -0.0003   -0.0001   -0.0003   -0.0003    0.0073
    97 N2     4px       -0.0001   -0.0000   -0.0001   -0.0001   -0.0001    0.0000   -0.0003   -0.0000    0.0001    0.0022
    98 N2     2py       -0.0004   -0.0013   -0.0000   -0.0005    0.0003    0.0009    0.0006   -0.0000   -0.0002    0.0101
    99 N2     3py       -0.0006   -0.0015   -0.0001    0.0004    0.0003    0.0009    0.0005   -0.0000   -0.0002    0.0038
   100 N2     4py       -0.0000    0.0000   -0.0000    0.0006   -0.0000    0.0001   -0.0002   -0.0000    0.0001   -0.0007
   101 N2     2pz        0.0002    0.0002   -0.0001    0.0001   -0.0001    0.0001   -0.0002   -0.0000   -0.0000    0.0003
   102 N2     3pz        0.0003    0.0002   -0.0002   -0.0001   -0.0001    0.0000   -0.0000   -0.0000    0.0000   -0.0004
   103 N2     4pz        0.0000   -0.0000   -0.0000    0.0002    0.0000   -0.0000   -0.0000    0.0000    0.0000    0.0009
   104 N2     3d2-      -0.0000    0.0001    0.0000   -0.0001    0.0000   -0.0000   -0.0001    0.0000   -0.0000    0.0000
   105 N2     3d1-       0.0000   -0.0000   -0.0000   -0.0001    0.0000    0.0000    0.0000    0.0000   -0.0000   -0.0001
   106 N2     3d0       -0.0000   -0.0000    0.0000    0.0001   -0.0000    0.0000    0.0001    0.0000   -0.0001   -0.0005
   107 N2     3d1+       0.0000   -0.0000    0.0000   -0.0000   -0.0000   -0.0000   -0.0000    0.0000    0.0000    0.0003
   108 N2     3d2+      -0.0000   -0.0001   -0.0000    0.0001   -0.0000   -0.0000    0.0001   -0.0000    0.0000   -0.0002
   109 N5     1s         0.0001   -0.0000    0.9998    0.0000   -0.0003   -0.0000   -0.0000    0.0001   -0.0000   -0.0175
   110 N5     2s         0.0007   -0.0003   -0.0001    0.0001   -0.0004   -0.0002   -0.0002    0.0018   -0.0000    0.1120
   111 N5     3s         0.0005   -0.0003   -0.0015    0.0001   -0.0004   -0.0001   -0.0001    0.0011   -0.0000   -0.0450
   112 N5     4s         0.0001   -0.0000    0.0005    0.0000    0.0000   -0.0000   -0.0000    0.0004   -0.0000   -0.0106
   113 N5     2px       -0.0003    0.0000   -0.0001   -0.0003    0.0003    0.0001   -0.0001   -0.0008   -0.0000    0.0292
   114 N5     3px       -0.0003    0.0000   -0.0001   -0.0005    0.0002    0.0001   -0.0001   -0.0006   -0.0000   -0.0149
   115 N5     4px       -0.0000   -0.0000    0.0003   -0.0001    0.0002   -0.0000    0.0000    0.0001   -0.0000    0.0055
   116 N5     2py       -0.0014    0.0005   -0.0009    0.0004   -0.0000   -0.0004    0.0001    0.0007   -0.0001    0.0306
   117 N5     3py       -0.0017    0.0006   -0.0007    0.0005   -0.0004   -0.0005    0.0002    0.0008   -0.0001    0.0281
   118 N5     4py       -0.0000    0.0000    0.0002    0.0000   -0.0003   -0.0000    0.0001    0.0002   -0.0000   -0.0043
   119 N5     2pz       -0.0009    0.0001   -0.0005    0.0002   -0.0000   -0.0001   -0.0001    0.0002   -0.0000    0.0274
   120 N5     3pz       -0.0011    0.0001   -0.0005    0.0002   -0.0001   -0.0001   -0.0000    0.0004   -0.0001   -0.0003
   121 N5     4pz       -0.0000   -0.0000    0.0005    0.0000    0.0000    0.0000    0.0000    0.0002   -0.0000   -0.0010
   122 N5     3d2-      -0.0001    0.0000    0.0001   -0.0000    0.0001    0.0000    0.0000    0.0001   -0.0000    0.0005
   123 N5     3d1-       0.0000   -0.0000    0.0000   -0.0000   -0.0001    0.0000    0.0000   -0.0000   -0.0000   -0.0000
   124 N5     3d0       -0.0001    0.0000    0.0000   -0.0000    0.0001   -0.0000    0.0000    0.0000   -0.0000   -0.0005
   125 N5     3d1+      -0.0000    0.0000    0.0001   -0.0000   -0.0000    0.0000    0.0000   -0.0000    0.0000    0.0041
   126 N5     3d2+      -0.0000    0.0000    0.0000    0.0000    0.0001    0.0000    0.0000   -0.0000    0.0000    0.0046
   127 O7     1s        -0.0000    0.9997   -0.0000    0.0000   -0.0000   -0.0000   -0.0002    0.0000    0.0001   -0.0011
   128 O7     2s        -0.0002   -0.0014   -0.0002    0.0002   -0.0000   -0.0002    0.0006    0.0002    0.0004    0.0277
   129 O7     3s        -0.0001   -0.0014   -0.0002    0.0001   -0.0000   -0.0001    0.0001    0.0001    0.0004   -0.0014
   130 O7     4s        -0.0001    0.0001   -0.0001    0.0000   -0.0000   -0.0000    0.0001    0.0001    0.0001   -0.0007
   131 O7     2px        0.0000    0.0001   -0.0001   -0.0003   -0.0000   -0.0000    0.0006    0.0001    0.0001    0.0037
   132 O7     3px        0.0000   -0.0005   -0.0001   -0.0003   -0.0000    0.0001    0.0000    0.0001    0.0002   -0.0037
   133 O7     4px        0.0000    0.0010   -0.0000   -0.0001   -0.0000    0.0001    0.0001    0.0000   -0.0000   -0.0008
   134 O7     2py       -0.0001   -0.0002   -0.0003   -0.0003    0.0000    0.0001   -0.0005    0.0000   -0.0002   -0.0018
   135 O7     3py       -0.0002    0.0002   -0.0003   -0.0004    0.0001    0.0001   -0.0004    0.0001   -0.0002    0.0005
   136 O7     4py       -0.0001   -0.0008   -0.0000   -0.0000    0.0000    0.0000   -0.0003    0.0000    0.0000   -0.0002
   137 O7     2pz       -0.0000    0.0000   -0.0001   -0.0001   -0.0000   -0.0000   -0.0000   -0.0000    0.0000    0.0027
   138 O7     3pz       -0.0000   -0.0002   -0.0001   -0.0001    0.0000   -0.0000    0.0001   -0.0000    0.0000   -0.0003
   139 O7     4pz        0.0000    0.0004   -0.0000   -0.0000    0.0000    0.0000    0.0001   -0.0000   -0.0000   -0.0001
   140 O7     3d2-      -0.0000    0.0001   -0.0000   -0.0000   -0.0000    0.0000   -0.0002    0.0000   -0.0000   -0.0006
   141 O7     3d1-       0.0000    0.0000   -0.0000   -0.0000    0.0000    0.0000   -0.0001   -0.0000   -0.0000   -0.0002
   142 O7     3d0       -0.0000    0.0000    0.0000   -0.0000    0.0000    0.0000   -0.0000   -0.0000   -0.0000   -0.0004
   143 O7     3d1+       0.0000   -0.0000   -0.0000   -0.0000   -0.0000   -0.0000    0.0000   -0.0000    0.0000    0.0003
   144 O7     3d2+      -0.0000   -0.0000    0.0000   -0.0001    0.0000   -0.0000    0.0000    0.0000   -0.0000    0.0001
   145 O8     1s         0.9997    0.0000    0.0000    0.0000   -0.0003    0.0001    0.0000   -0.0000    0.0000   -0.0239
   146 O8     2s        -0.0014    0.0001    0.0001    0.0001    0.0004    0.0004    0.0002   -0.0002    0.0000    0.6904
   147 O8     3s        -0.0014    0.0000    0.0001    0.0001   -0.0000    0.0003    0.0002   -0.0001    0.0000   -0.0351
   148 O8     4s         0.0001    0.0000   -0.0000    0.0000    0.0001    0.0001    0.0000   -0.0000    0.0000   -0.0144
   149 O8     2px       -0.0002   -0.0000    0.0003    0.0000   -0.0003   -0.0001   -0.0001    0.0001   -0.0000   -0.0821
   150 O8     3px        0.0003   -0.0001    0.0003    0.0000   -0.0000   -0.0002   -0.0001    0.0000   -0.0000    0.0266
   151 O8     4px       -0.0008   -0.0000    0.0001    0.0000   -0.0001    0.0000   -0.0000   -0.0000   -0.0000    0.0016
   152 O8     2py       -0.0002   -0.0000   -0.0002   -0.0001   -0.0002   -0.0001   -0.0001   -0.0000   -0.0000   -0.0694
   153 O8     3py        0.0002    0.0000   -0.0002   -0.0002   -0.0002   -0.0001   -0.0002   -0.0000   -0.0001    0.0227
   154 O8     4py       -0.0007    0.0000    0.0001   -0.0000   -0.0002    0.0000   -0.0000   -0.0000   -0.0000   -0.0006
   155 O8     2pz       -0.0002   -0.0001    0.0001    0.0000   -0.0006   -0.0001   -0.0000    0.0000   -0.0000   -0.1000
   156 O8     3pz        0.0004   -0.0001    0.0001    0.0000   -0.0001   -0.0001    0.0001    0.0000   -0.0000    0.0282
   157 O8     4pz       -0.0009   -0.0000    0.0001    0.0000   -0.0002    0.0000    0.0001   -0.0000    0.0000    0.0005
   158 O8     3d2-      -0.0001    0.0000   -0.0000    0.0000    0.0001   -0.0000    0.0000   -0.0000    0.0000    0.0109
   159 O8     3d1-       0.0000    0.0000    0.0001   -0.0000    0.0001    0.0001    0.0000    0.0000    0.0000    0.0122
   160 O8     3d0       -0.0000    0.0000   -0.0000   -0.0000    0.0001    0.0000   -0.0000   -0.0000   -0.0000    0.0034
   161 O8     3d1+      -0.0000    0.0000   -0.0000   -0.0000    0.0001    0.0000    0.0000   -0.0000    0.0000    0.0139
   162 O8     3d2+      -0.0000    0.0000   -0.0001   -0.0000    0.0000   -0.0000   -0.0000   -0.0000    0.0000    0.0014
   163 H9     1s        -0.0001    0.0001    0.0002   -0.0000   -0.0001   -0.0004   -0.0002   -0.0002    0.0003    0.0060
   164 H9     2s        -0.0000    0.0001    0.0001   -0.0001   -0.0001   -0.0002   -0.0001   -0.0001   -0.0003    0.0040
   165 H9     2px       -0.0000   -0.0000    0.0000    0.0000   -0.0000   -0.0000   -0.0000   -0.0000   -0.0000    0.0004
   166 H9     2py        0.0000   -0.0001   -0.0000   -0.0000   -0.0000   -0.0000    0.0001   -0.0000    0.0000    0.0004
   167 H9     2pz       -0.0000    0.0000    0.0000   -0.0000   -0.0000   -0.0000    0.0000   -0.0000   -0.0001    0.0006
   168 H10    1s         0.0002    0.0001    0.0000    0.0002   -0.0001   -0.0001    0.0000   -0.0001    0.0003    0.0054
   169 H10    2s         0.0002    0.0000    0.0000    0.0001   -0.0001   -0.0001    0.0000   -0.0000   -0.0003    0.0037
   170 H10    2px        0.0000   -0.0000   -0.0000    0.0000   -0.0000   -0.0000    0.0000   -0.0000   -0.0001    0.0005
   171 H10    2py        0.0000   -0.0001    0.0000   -0.0000    0.0000   -0.0000    0.0000   -0.0000    0.0000    0.0002
   172 H10    2pz       -0.0000   -0.0000   -0.0000    0.0000    0.0000    0.0000   -0.0000    0.0000    0.0001   -0.0003
   173 H11    1s        -0.0001   -0.0005   -0.0001    0.0003   -0.0002   -0.0002    0.0001   -0.0000    0.0001    0.0071
   174 H11    2s        -0.0001   -0.0002   -0.0001    0.0003   -0.0001   -0.0001    0.0001   -0.0000   -0.0004    0.0047
   175 H11    2px        0.0000    0.0000    0.0000   -0.0000    0.0000    0.0000   -0.0000    0.0000    0.0001   -0.0005
   176 H11    2py       -0.0000   -0.0000   -0.0000   -0.0000   -0.0000    0.0000    0.0001   -0.0000   -0.0000    0.0003
   177 H11    2pz        0.0000   -0.0000   -0.0000    0.0000   -0.0000    0.0000    0.0000    0.0000    0.0000   -0.0001
   178 H12    1s        -0.0004   -0.0010   -0.0000   -0.0003    0.0001    0.0001    0.0005    0.0001   -0.0003    0.0084
   179 H12    2s        -0.0002   -0.0005   -0.0000   -0.0002    0.0001    0.0001    0.0002    0.0001   -0.0001    0.0020
   180 H12    2px        0.0000    0.0000   -0.0000    0.0003   -0.0000    0.0000   -0.0002    0.0000   -0.0000   -0.0007
   181 H12    2py       -0.0000   -0.0001   -0.0000   -0.0004   -0.0000    0.0001    0.0000    0.0000   -0.0000    0.0013
   182 H12    2pz       -0.0000    0.0000    0.0000    0.0001    0.0000   -0.0000   -0.0001   -0.0000   -0.0000   -0.0002
   183 H13    1s         0.0005    0.0002   -0.0003   -0.0006   -0.0003    0.0007   -0.0005   -0.0001    0.0001    0.0098
   184 H13    2s         0.0003    0.0001   -0.0001   -0.0003   -0.0002   -0.0000   -0.0004   -0.0001    0.0000   -0.0053
   185 H13    2px       -0.0000   -0.0000   -0.0000    0.0000   -0.0000   -0.0000    0.0000    0.0000   -0.0000   -0.0008
   186 H13    2py       -0.0000    0.0000    0.0000    0.0000    0.0000   -0.0000   -0.0000   -0.0000    0.0000    0.0009
   187 H13    2pz       -0.0000   -0.0000    0.0000   -0.0000    0.0000   -0.0000    0.0000    0.0000    0.0000   -0.0003
   188 H14    1s        -0.0002    0.0001    0.0002   -0.0006   -0.0001    0.0008   -0.0003   -0.0003   -0.0001    0.0245
   189 H14    2s        -0.0001    0.0001    0.0001   -0.0003    0.0000    0.0000   -0.0002   -0.0002   -0.0001    0.0096
   190 H14    2px        0.0000   -0.0000    0.0000    0.0000   -0.0000   -0.0000    0.0000    0.0000    0.0000   -0.0021
   191 H14    2py        0.0000   -0.0000   -0.0001    0.0000    0.0001   -0.0000    0.0000    0.0000    0.0000    0.0003
   192 H14    2pz       -0.0000   -0.0000    0.0000    0.0000    0.0000    0.0000   -0.0001   -0.0000   -0.0000    0.0019
   193 H15    1s        -0.0012    0.0010   -0.0002    0.0004    0.0001   -0.0003    0.0000   -0.0006    0.0001    0.0342
   194 H15    2s        -0.0007    0.0007   -0.0001    0.0003   -0.0001   -0.0001    0.0000   -0.0003    0.0000   -0.0021
   195 H15    2px       -0.0001    0.0001   -0.0002    0.0000    0.0001    0.0000    0.0000   -0.0001    0.0000    0.0032
   196 H15    2py       -0.0001   -0.0002   -0.0003    0.0000   -0.0000   -0.0000   -0.0001   -0.0000    0.0000    0.0037
   197 H15    2pz       -0.0000    0.0000   -0.0002    0.0000    0.0001    0.0000   -0.0000   -0.0000    0.0000    0.0028
   198 H16    1s        -0.0002   -0.0000   -0.0003   -0.0002   -0.0001   -0.0000   -0.0001    0.0010   -0.0001    0.0124
   199 H16    2s        -0.0001   -0.0000   -0.0001   -0.0001    0.0000   -0.0000   -0.0001    0.0001   -0.0000   -0.0026
   200 H16    2px        0.0000    0.0000   -0.0000    0.0000    0.0000    0.0000    0.0000   -0.0001    0.0000    0.0003
   201 H16    2py        0.0000    0.0000    0.0000    0.0000    0.0000    0.0000    0.0000   -0.0001    0.0000   -0.0008
   202 H16    2pz        0.0000   -0.0000    0.0000    0.0000    0.0000    0.0000    0.0000   -0.0001    0.0000   -0.0009
   203 H17    1s         0.0003   -0.0001   -0.0006    0.0000   -0.0003    0.0002   -0.0001    0.0006   -0.0000    0.0103
   204 H17    2s         0.0002   -0.0001   -0.0003    0.0000   -0.0002    0.0001   -0.0001   -0.0001   -0.0000    0.0023
   205 H17    2px        0.0000    0.0000   -0.0000    0.0000   -0.0000    0.0000    0.0000    0.0000   -0.0000    0.0005
   206 H17    2py       -0.0000    0.0000    0.0000   -0.0000    0.0000   -0.0000    0.0000   -0.0000    0.0000   -0.0009
   207 H17    2pz        0.0000   -0.0000   -0.0000   -0.0000   -0.0001    0.0000   -0.0000   -0.0000   -0.0000    0.0009
   208 H18    1s         0.0004   -0.0002   -0.0005   -0.0001   -0.0003   -0.0000   -0.0002    0.0006   -0.0000    0.0072
   209 H18    2s         0.0002   -0.0001   -0.0002   -0.0001   -0.0003   -0.0000   -0.0002   -0.0001   -0.0000    0.0000
   210 H18    2px        0.0000   -0.0000   -0.0001   -0.0000   -0.0001    0.0000   -0.0000    0.0000    0.0000    0.0007
   211 H18    2py       -0.0000   -0.0000    0.0000   -0.0000   -0.0000    0.0000   -0.0000   -0.0000   -0.0000   -0.0003
   212 H18    2pz       -0.0000    0.0000    0.0000   -0.0000    0.0000   -0.0000    0.0000   -0.0000   -0.0000   -0.0007
 
 
      Orbital                11        12        13        14        15        16        17        18        19        20
      Energy            -1.3640   -1.2493   -1.2225   -1.0168   -0.9671   -0.9299   -0.8158   -0.7743   -0.7149   -0.6919
      Occ. No.           2.0000    2.0000    2.0000    2.0000    2.0000    2.0000    2.0000    2.0000    2.0000    2.0000
 
     1 C1     1s        -0.0388    0.0059   -0.0078   -0.0127   -0.0076    0.0023    0.0108   -0.0117   -0.0043    0.0080
     2 C1     2s         0.3529   -0.0032    0.1201    0.2241    0.1556   -0.0047   -0.2312    0.2975    0.1139   -0.2061
     3 C1     3s        -0.0045    0.0187    0.0015   -0.0064   -0.0060    0.0038    0.0039   -0.0012   -0.0075    0.0125
     4 C1     4s         0.0030    0.0051    0.0007   -0.0028   -0.0011    0.0026    0.0023   -0.0019   -0.0023    0.0053
     5 C1     2px       -0.0532    0.0332    0.1471    0.0507   -0.0345   -0.0851   -0.0777    0.1292   -0.0733    0.0862
     6 C1     3px        0.0345    0.0018   -0.0400   -0.0496   -0.0285    0.0521   -0.0107   -0.0412    0.0267   -0.0414
     7 C1     4px       -0.0176    0.0076    0.0292   -0.0006   -0.0084   -0.0074   -0.0085    0.0071   -0.0065    0.0042
     8 C1     2py        0.0828    0.0211   -0.0065   -0.1021   -0.1138   -0.0532   -0.0266    0.0606    0.0649    0.0724
     9 C1     3py       -0.0470    0.0481    0.0359   -0.0133    0.0367    0.0639    0.0353    0.0128   -0.0320   -0.0119
    10 C1     4py        0.0212    0.0072   -0.0014   -0.0201   -0.0159   -0.0021    0.0010    0.0098    0.0004    0.0003
    11 C1     2pz       -0.0237    0.0087    0.0383    0.0129   -0.0017   -0.0156   -0.0113    0.0257   -0.0349    0.0235
    12 C1     3pz        0.0139   -0.0014   -0.0113   -0.0108   -0.0061    0.0121   -0.0035   -0.0106    0.0069   -0.0098
    13 C1     4pz       -0.0057    0.0025    0.0076    0.0001   -0.0010   -0.0001   -0.0015    0.0012   -0.0044    0.0021
    14 C1     3d2-      -0.0294    0.0066    0.0225    0.0075    0.0061   -0.0007   -0.0015    0.0167    0.0061    0.0140
    15 C1     3d1-      -0.0103    0.0022    0.0059    0.0013    0.0009   -0.0011    0.0006    0.0037   -0.0001    0.0042
    16 C1     3d0       -0.0238    0.0017   -0.0052   -0.0093   -0.0055    0.0016    0.0087   -0.0104   -0.0041    0.0048
    17 C1     3d1+       0.0150   -0.0009    0.0055    0.0041   -0.0009   -0.0041   -0.0061    0.0033   -0.0012   -0.0021
    18 C1     3d2+       0.0055    0.0012    0.0173    0.0046   -0.0102   -0.0169   -0.0080    0.0036   -0.0057    0.0036
    19 C3     1s        -0.0087   -0.0087   -0.0325    0.0409    0.0020   -0.0280   -0.0029   -0.0024   -0.0047    0.0065
    20 C3     2s         0.0195    0.0375    0.1685   -0.3384   -0.0184    0.3389    0.0495    0.1036    0.1013   -0.0454
    21 C3     3s        -0.0164   -0.0164   -0.0612    0.0758    0.0040   -0.0359   -0.0022    0.0019   -0.0031    0.0208
    22 C3     4s        -0.0018   -0.0011   -0.0133    0.0191    0.0019   -0.0087   -0.0010   -0.0013   -0.0017    0.0056
    23 C3     2px       -0.0195   -0.0303   -0.0473    0.0035   -0.0287    0.0556    0.0554   -0.0333    0.0030   -0.2359
    24 C3     3px       -0.0031    0.0062    0.0145   -0.0271   -0.0206    0.0110   -0.0094   -0.0052    0.0013    0.0235
    25 C3     4px       -0.0016    0.0058    0.0074   -0.0173   -0.0074    0.0175    0.0036    0.0028    0.0012   -0.0076
    26 C3     2py       -0.0240    0.0037   -0.1049   -0.0378    0.0539    0.0231   -0.1502    0.1736   -0.1682   -0.0158
    27 C3     3py       -0.0076    0.0126   -0.0157    0.0065   -0.0465   -0.0280   -0.0013   -0.0090    0.0384    0.0180
    28 C3     4py       -0.0057    0.0075   -0.0122   -0.0065   -0.0004    0.0020   -0.0100    0.0079    0.0012    0.0023
    29 C3     2pz       -0.0027    0.0009   -0.0158   -0.0105   -0.0032    0.0322   -0.0376    0.0100   -0.1864   -0.0710
    30 C3     3pz        0.0001    0.0087   -0.0025    0.0141   -0.0311    0.0061   -0.0067   -0.0071    0.0194    0.0068
    31 C3     4pz       -0.0022    0.0032   -0.0037    0.0020   -0.0020   -0.0023   -0.0041   -0.0036   -0.0043   -0.0021
    32 C3     3d2-       0.0031   -0.0014    0.0153    0.0077   -0.0119   -0.0068    0.0101   -0.0057    0.0224    0.0095
    33 C3     3d1-       0.0018   -0.0007    0.0076   -0.0054    0.0001    0.0013   -0.0032    0.0035   -0.0076    0.0094
    34 C3     3d0       -0.0027   -0.0050   -0.0101    0.0048    0.0012    0.0015   -0.0009    0.0064   -0.0011   -0.0116
    35 C3     3d1+       0.0009   -0.0017    0.0028    0.0022   -0.0054    0.0011    0.0069   -0.0033    0.0050   -0.0068
    36 C3     3d2+      -0.0012    0.0001   -0.0113    0.0060    0.0029   -0.0019   -0.0043    0.0121    0.0046   -0.0050
    37 C4     1s         0.0021   -0.0086    0.0039    0.0116   -0.0109    0.0040    0.0167    0.0038    0.0060   -0.0006
    38 C4     2s         0.0023    0.1586    0.0313   -0.2233    0.2065    0.0347   -0.3425   -0.1002   -0.2323    0.0660
    39 C4     3s         0.0057    0.0072    0.0163    0.0127   -0.0053    0.0128    0.0252   -0.0030    0.0084    0.0099
    40 C4     4s         0.0020    0.0028    0.0046    0.0055   -0.0022    0.0030    0.0080   -0.0020    0.0035    0.0009
    41 C4     2px       -0.0062   -0.1638    0.0402   -0.0163   -0.0322    0.0968    0.0521    0.1266   -0.1909   -0.1296
    42 C4     3px        0.0098    0.0123    0.0101   -0.0139    0.0730   -0.0539    0.0041   -0.0530    0.0666    0.0153
    43 C4     4px       -0.0012   -0.0345    0.0073   -0.0044    0.0028    0.0041    0.0074    0.0047   -0.0103   -0.0120
    44 C4     2py       -0.0150    0.0177   -0.0456    0.1100   -0.0573   -0.0628   -0.0432   -0.1445    0.0632   -0.0540
    45 C4     3py       -0.0044    0.0390   -0.0099   -0.0121   -0.0601    0.0640   -0.0171    0.0482   -0.0281    0.0296
    46 C4     4py       -0.0047    0.0066   -0.0082    0.0112   -0.0140    0.0017   -0.0069   -0.0062   -0.0014   -0.0000
    47 C4     2pz       -0.0123   -0.0657   -0.0054    0.0795   -0.0721    0.0005    0.0284   -0.0299   -0.0480   -0.1000
    48 C4     3pz        0.0029    0.0525    0.0045   -0.0271   -0.0041    0.0263   -0.0080    0.0203    0.0161    0.0368
    49 C4     4pz       -0.0035   -0.0098   -0.0007    0.0057   -0.0091    0.0055    0.0001    0.0007   -0.0064   -0.0039
    50 C4     3d2-      -0.0023   -0.0213   -0.0002    0.0118   -0.0061   -0.0073    0.0142    0.0058   -0.0130    0.0037
    51 C4     3d1-      -0.0016   -0.0119    0.0034   -0.0059   -0.0003    0.0074   -0.0050    0.0067   -0.0134    0.0008
    52 C4     3d0       -0.0010   -0.0123    0.0014    0.0051   -0.0049   -0.0001    0.0075    0.0062   -0.0035    0.0022
    53 C4     3d1+      -0.0010    0.0032   -0.0019    0.0012    0.0082   -0.0145   -0.0006   -0.0088   -0.0056    0.0056
    54 C4     3d2+       0.0005    0.0174   -0.0060   -0.0001    0.0111   -0.0119   -0.0010   -0.0062    0.0041    0.0010
    55 C6     1s         0.0000   -0.0332    0.0100   -0.0294    0.0372   -0.0303    0.0091   -0.0039    0.0057   -0.0076
    56 C6     2s         0.0138    0.1543   -0.0123    0.1934   -0.3183    0.2843   -0.1197   -0.0049   -0.0401    0.0738
    57 C6     3s         0.0070   -0.0545    0.0309   -0.0522    0.0610   -0.0455    0.0205   -0.0139    0.0147   -0.0233
    58 C6     4s         0.0028   -0.0082    0.0079   -0.0107    0.0136   -0.0090    0.0064   -0.0031    0.0031   -0.0072
    59 C6     2px        0.0046    0.0527   -0.0080    0.0141    0.0077   -0.0186   -0.0324   -0.0916    0.1496   -0.1231
    60 C6     3px        0.0039   -0.0118    0.0076   -0.0090    0.0128   -0.0014   -0.0029    0.0060   -0.0148    0.0184
    61 C6     4px        0.0009   -0.0011    0.0024   -0.0058    0.0114   -0.0069   -0.0002   -0.0061    0.0068   -0.0074
    62 C6     2py       -0.0079   -0.0866    0.0084   -0.0201   -0.0019    0.0241   -0.1074   -0.0176   -0.0504    0.2282
    63 C6     3py       -0.0035    0.0131   -0.0121    0.0148   -0.0129   -0.0005   -0.0033   -0.0003    0.0153   -0.0329
    64 C6     4py       -0.0002   -0.0008   -0.0006    0.0079   -0.0131    0.0119   -0.0090   -0.0009   -0.0024    0.0108
    65 C6     2pz       -0.0049   -0.0358    0.0026   -0.0143    0.0096    0.0025   -0.0791   -0.0531    0.0160    0.1285
    66 C6     3pz       -0.0026    0.0046   -0.0053    0.0018    0.0023   -0.0048    0.0042    0.0016   -0.0004   -0.0188
    67 C6     4pz        0.0002   -0.0021    0.0003    0.0035   -0.0040    0.0044   -0.0068   -0.0044    0.0012    0.0047
    68 C6     3d2-      -0.0009   -0.0159    0.0031   -0.0047    0.0005    0.0029   -0.0036    0.0050   -0.0117    0.0222
    69 C6     3d1-       0.0005    0.0117   -0.0025    0.0049   -0.0034   -0.0006    0.0089    0.0007    0.0078   -0.0174
    70 C6     3d0       -0.0003   -0.0076    0.0014   -0.0019   -0.0000    0.0016   -0.0003    0.0039   -0.0065    0.0086
    71 C6     3d1+      -0.0006   -0.0078    0.0010   -0.0012   -0.0003    0.0015   -0.0069   -0.0031    0.0007    0.0108
    72 C6     3d2+      -0.0005   -0.0091    0.0016   -0.0027    0.0018    0.0007   -0.0120   -0.0065    0.0003    0.0134
    73 C19    1s        -0.0152    0.0010   -0.0101   -0.0352   -0.0512   -0.0380   -0.0139    0.0087   -0.0005   -0.0083
    74 C19    2s        -0.0078    0.0002   -0.0025    0.1721    0.3085    0.2512    0.0961   -0.0443    0.0157    0.0744
    75 C19    3s        -0.0398    0.0081   -0.0300   -0.0715   -0.0959   -0.0689   -0.0285    0.0258   -0.0034   -0.0142
    76 C19    4s        -0.0034    0.0037   -0.0040   -0.0148   -0.0207   -0.0149   -0.0071    0.0075   -0.0018   -0.0037
    77 C19    2px       -0.0100    0.0064    0.0209    0.0393    0.0225   -0.0109   -0.0177    0.0360   -0.0553   -0.0186
    78 C19    3px       -0.0038    0.0028   -0.0024    0.0117    0.0044   -0.0024    0.0061    0.0020    0.0027    0.0074
    79 C19    4px        0.0065   -0.0007   -0.0002   -0.0010   -0.0075   -0.0095   -0.0016   -0.0004   -0.0046   -0.0029
    80 C19    2py        0.0212    0.0042    0.0133    0.0392    0.0288    0.0015   -0.0619    0.0583    0.0139   -0.1746
    81 C19    3py       -0.0081    0.0076   -0.0032   -0.0186   -0.0255   -0.0123    0.0044   -0.0089   -0.0085    0.0212
    82 C19    4py        0.0065    0.0001    0.0008   -0.0072   -0.0162   -0.0146   -0.0107    0.0088    0.0015   -0.0078
    83 C19    2pz       -0.0040    0.0005    0.0080    0.0076    0.0006   -0.0018    0.0006    0.0050   -0.0196    0.0053
    84 C19    3pz       -0.0002   -0.0008    0.0033    0.0040   -0.0016   -0.0004    0.0024    0.0001    0.0009    0.0001
    85 C19    4pz        0.0014   -0.0002    0.0002   -0.0002   -0.0011   -0.0018    0.0005    0.0001   -0.0012   -0.0004
    86 C19    3d2-      -0.0014    0.0005    0.0062    0.0062    0.0040   -0.0014   -0.0043    0.0055    0.0006   -0.0070
    87 C19    3d1-      -0.0009    0.0003    0.0014    0.0006    0.0001   -0.0006   -0.0005    0.0008   -0.0002   -0.0003
    88 C19    3d0        0.0009   -0.0001   -0.0010   -0.0059   -0.0061   -0.0026    0.0025   -0.0031    0.0033    0.0065
    89 C19    3d1+      -0.0020    0.0003   -0.0002    0.0004    0.0006    0.0001    0.0004   -0.0001   -0.0014    0.0007
    90 C19    3d2+      -0.0063    0.0009   -0.0000   -0.0070   -0.0075   -0.0039    0.0047   -0.0041   -0.0027    0.0137
    91 N2     1s        -0.0192   -0.0045   -0.0405   -0.0058    0.0013    0.0015   -0.0014    0.0034    0.0013    0.0036
    92 N2     2s         0.1348    0.0642    0.5770    0.0861   -0.1469   -0.2067    0.0381   -0.1036   -0.0108    0.1224
    93 N2     3s        -0.0480   -0.0074   -0.0727   -0.0063   -0.0071   -0.0127   -0.0018    0.0048    0.0000    0.0176
    94 N2     4s        -0.0116   -0.0025   -0.0245   -0.0009    0.0008   -0.0006   -0.0013    0.0022   -0.0006    0.0019
    95 N2     2px       -0.0304    0.0104   -0.0199   -0.0960   -0.0702    0.0722    0.1921   -0.3480   -0.0073   -0.0535
    96 N2     3px        0.0163    0.0103   -0.0061    0.0395   -0.0145   -0.0499   -0.0704    0.0813   -0.0001    0.0099
    97 N2     4px       -0.0055    0.0027    0.0015   -0.0020   -0.0081   -0.0058   -0.0017   -0.0025   -0.0044    0.0012
    98 N2     2py        0.0205   -0.0043   -0.0254   -0.1306   -0.0503    0.0779    0.0046    0.0782    0.2956    0.1644
    99 N2     3py        0.0071   -0.0203   -0.0461    0.0452   -0.0138   -0.0557   -0.0369   -0.0232   -0.0595   -0.0404
   100 N2     4py       -0.0096   -0.0022   -0.0141   -0.0021   -0.0027   -0.0046   -0.0081    0.0047   -0.0018   -0.0029
   101 N2     2pz       -0.0134    0.0064    0.0089   -0.0392   -0.0147    0.0219    0.0464   -0.0947   -0.0591   -0.0105
   102 N2     3pz       -0.0011    0.0036   -0.0068    0.0002   -0.0003   -0.0133   -0.0182    0.0269    0.0128    0.0040
   103 N2     4pz       -0.0012    0.0013    0.0010   -0.0025   -0.0016   -0.0010   -0.0002   -0.0005    0.0009    0.0000
   104 N2     3d2-      -0.0007    0.0013    0.0104   -0.0009    0.0021    0.0058   -0.0006    0.0091    0.0126    0.0030
   105 N2     3d1-       0.0006    0.0002    0.0027   -0.0027    0.0004    0.0028   -0.0004    0.0040    0.0043    0.0029
   106 N2     3d0       -0.0024   -0.0019   -0.0146   -0.0008    0.0028    0.0027   -0.0004   -0.0003   -0.0014   -0.0016
   107 N2     3d1+       0.0029    0.0005    0.0079    0.0012   -0.0018   -0.0029   -0.0009    0.0004   -0.0013   -0.0015
   108 N2     3d2+       0.0055   -0.0003    0.0026    0.0090    0.0003   -0.0085   -0.0105    0.0153   -0.0008   -0.0043
   109 N5     1s        -0.0025   -0.0402    0.0061   -0.0010   -0.0008   -0.0002    0.0005    0.0020    0.0013   -0.0017
   110 N5     2s         0.0338    0.5887   -0.1090    0.0228    0.1131   -0.1905    0.2155    0.0453    0.1024   -0.1533
   111 N5     3s        -0.0031   -0.0741    0.0115   -0.0077    0.0137   -0.0174    0.0101    0.0061    0.0108   -0.0122
   112 N5     4s        -0.0009   -0.0250    0.0046   -0.0035    0.0032   -0.0017   -0.0004    0.0007    0.0004   -0.0007
   113 N5     2px        0.0042    0.0298    0.0186   -0.0913    0.1414   -0.0634   -0.2753   -0.2447    0.1322    0.1835
   114 N5     3px        0.0129   -0.0066    0.0229    0.0204   -0.0400    0.0409    0.0755    0.0396   -0.0211   -0.0426
   115 N5     4px        0.0023   -0.0025    0.0050   -0.0056    0.0029    0.0027    0.0009   -0.0002   -0.0021   -0.0049
   116 N5     2py       -0.0163   -0.0136   -0.0156    0.1018   -0.1120    0.0958   -0.0849   -0.1027    0.1236   -0.2530
   117 N5     3py       -0.0102   -0.0215   -0.0151   -0.0401    0.0766   -0.0564    0.0252    0.0267   -0.0349    0.0470
   118 N5     4py       -0.0015   -0.0042   -0.0032   -0.0017    0.0049   -0.0053    0.0003    0.0028   -0.0020    0.0050
   119 N5     2pz       -0.0051    0.0117   -0.0089    0.0359   -0.0101    0.0229   -0.1764   -0.1775    0.1463   -0.0816
   120 N5     3pz        0.0010   -0.0375   -0.0028   -0.0063    0.0330   -0.0233    0.0338    0.0285   -0.0223    0.0052
   121 N5     4pz        0.0007   -0.0055   -0.0008   -0.0012    0.0055   -0.0035   -0.0021    0.0002   -0.0010    0.0007
   122 N5     3d2-      -0.0002   -0.0124    0.0008   -0.0010    0.0016   -0.0047    0.0089    0.0046   -0.0066    0.0033
   123 N5     3d1-       0.0011    0.0078   -0.0021    0.0048   -0.0055    0.0009    0.0103    0.0059   -0.0008   -0.0075
   124 N5     3d0       -0.0008   -0.0102    0.0015    0.0013   -0.0017    0.0007    0.0014   -0.0005   -0.0006   -0.0008
   125 N5     3d1+       0.0005    0.0069   -0.0018   -0.0031    0.0080   -0.0094   -0.0024   -0.0054    0.0005    0.0080
   126 N5     3d2+      -0.0005    0.0050   -0.0008   -0.0049    0.0090   -0.0060   -0.0110   -0.0093    0.0021    0.0086
   127 O7     1s        -0.0228    0.0014    0.0028   -0.0030   -0.0032   -0.0017    0.0061   -0.0086   -0.0100    0.0099
   128 O7     2s         0.6870   -0.1027   -0.3163   -0.1676   -0.1480   -0.0174    0.1458   -0.2582   -0.1972    0.1680
   129 O7     3s        -0.0259   -0.0036   -0.0131   -0.0179   -0.0162   -0.0099    0.0198   -0.0316   -0.0322    0.0304
   130 O7     4s        -0.0129   -0.0010   -0.0009   -0.0034   -0.0028   -0.0032    0.0030   -0.0064   -0.0064    0.0060
   131 O7     2px        0.1072   -0.0130   -0.0143    0.0066   -0.0062   -0.0329   -0.0944    0.1385    0.1449   -0.0925
   132 O7     3px       -0.0305   -0.0031   -0.0020   -0.0068   -0.0032   -0.0077    0.0105   -0.0154   -0.0138    0.0086
   133 O7     4px       -0.0031   -0.0019    0.0001   -0.0006    0.0010   -0.0005   -0.0005   -0.0033   -0.0003    0.0002
   134 O7     2py       -0.0799    0.0259    0.0334   -0.0171   -0.0233   -0.0618    0.1023   -0.0051   -0.1739    0.1916
   135 O7     3py        0.0296   -0.0030   -0.0056    0.0094    0.0130   -0.0131   -0.0055    0.0100    0.0138   -0.0219
   136 O7     4py       -0.0008   -0.0004   -0.0023    0.0005    0.0023   -0.0023    0.0004    0.0018    0.0035   -0.0046
   137 O7     2pz        0.0290   -0.0002   -0.0088   -0.0033   -0.0014   -0.0082   -0.0153    0.0412    0.0316   -0.0288
   138 O7     3pz       -0.0101    0.0009   -0.0015   -0.0024   -0.0024   -0.0012    0.0026   -0.0052   -0.0033    0.0026
   139 O7     4pz       -0.0014   -0.0000    0.0001    0.0003   -0.0001    0.0005   -0.0008   -0.0011    0.0007   -0.0001
   140 O7     3d2-      -0.0163    0.0028    0.0050   -0.0001    0.0001   -0.0016    0.0069   -0.0033   -0.0105    0.0098
   141 O7     3d1-      -0.0044    0.0012    0.0015    0.0001   -0.0001   -0.0014    0.0026   -0.0003   -0.0037    0.0036
   142 O7     3d0       -0.0094    0.0009    0.0043    0.0012    0.0005   -0.0002    0.0013   -0.0018   -0.0042    0.0035
   143 O7     3d1+       0.0062   -0.0004   -0.0018   -0.0010   -0.0012   -0.0013   -0.0016    0.0032    0.0025   -0.0012
   144 O7     3d2+       0.0012   -0.0005    0.0032    0.0001   -0.0030   -0.0045   -0.0045    0.0056    0.0017    0.0028
   145 O8     1s         0.0010    0.0022   -0.0006    0.0029   -0.0030   -0.0020    0.0131    0.0054    0.0175    0.0081
   146 O8     2s        -0.0647   -0.3117   -0.0165    0.1727   -0.1192   -0.0748    0.3306    0.1220    0.2964    0.1437
   147 O8     3s        -0.0012   -0.0115   -0.0028    0.0135   -0.0116   -0.0096    0.0421    0.0160    0.0509    0.0236
   148 O8     4s         0.0001   -0.0009   -0.0005    0.0020   -0.0017   -0.0025    0.0082    0.0030    0.0106    0.0052
   149 O8     2px        0.0086    0.0069    0.0085   -0.0028   -0.0221    0.0231    0.1311    0.1149    0.1248    0.0906
   150 O8     3px        0.0014    0.0046    0.0007    0.0006    0.0036    0.0018   -0.0193   -0.0136   -0.0114   -0.0055
   151 O8     4px        0.0007    0.0008   -0.0002    0.0007    0.0014   -0.0002   -0.0017   -0.0017   -0.0009   -0.0003
   152 O8     2py        0.0074    0.0313   -0.0031    0.0275   -0.0061   -0.0358    0.0885   -0.0008    0.2203    0.1142
   153 O8     3py        0.0012   -0.0030    0.0025   -0.0060    0.0118    0.0002   -0.0131    0.0003   -0.0271   -0.0135
   154 O8     4py        0.0004   -0.0022    0.0002    0.0011    0.0008    0.0003   -0.0011    0.0005   -0.0037   -0.0029
   155 O8     2pz        0.0081    0.0197   -0.0003    0.0243   -0.0237   -0.0144    0.1420    0.0613    0.2320    0.1206
   156 O8     3pz       -0.0011   -0.0038   -0.0015   -0.0077    0.0082   -0.0001   -0.0220   -0.0080   -0.0240   -0.0144
   157 O8     4pz       -0.0004   -0.0022   -0.0008   -0.0009    0.0003   -0.0005   -0.0024   -0.0009   -0.0031   -0.0025
   158 O8     3d2-      -0.0009   -0.0024   -0.0003   -0.0004    0.0010   -0.0001   -0.0057   -0.0030   -0.0091   -0.0049
   159 O8     3d1-      -0.0011   -0.0061    0.0005   -0.0008   -0.0005    0.0029   -0.0047    0.0007   -0.0136   -0.0070
   160 O8     3d0       -0.0001   -0.0003    0.0003   -0.0013    0.0009    0.0006   -0.0024   -0.0001   -0.0039   -0.0012
   161 O8     3d1+      -0.0013   -0.0028   -0.0009    0.0011    0.0010   -0.0019   -0.0075   -0.0067   -0.0076   -0.0053
[...]
AIVX     1  Mu1.0001  In1.025 Se1.047               0.23112392      0.00048611     -0.00103079     -0.00000050
AIVX     1  Mu1.0001  In1.026 Se1.047               0.08155136      0.00116573     -0.00196809     -0.00000229
AIVX     1  Mu1.0001  In1.027 Se1.047               0.21813257     -0.00105085      0.00256257     -0.00000269
AIVX     1  Mu1.0001  In1.028 Se1.047               0.10730419     -0.00112586      0.00301603     -0.00000340
AIVX     1  Mu1.0001  In1.029 Se1.047               0.09952596      0.00062758     -0.00135631     -0.00000085
AIVX     1  Mu1.0001  In1.022 Se1.048               0.18703016     -0.00204056      0.00383538     -0.00000783
AIVX     1  Mu1.0001  In1.023 Se1.048               0.27478386     -0.00193242      0.00292095     -0.00000564
AIVX     1  Mu1.0001  In1.024 Se1.048               0.28598614     -0.00050686      0.00060807     -0.00000031
AIVX     1  Mu1.0001  In1.025 Se1.048               0.25429285      0.00064946     -0.00132421     -0.00000086
AIVX     1  Mu1.0001  In1.026 Se1.048               0.10472029      0.00183327     -0.00313706     -0.00000575
AIVX     1  Mu1.0001  In1.027 Se1.048               0.24130149      0.00186971     -0.00257748     -0.00000482
AIVX     1  Mu1.0001  In1.028 Se1.048               0.13047312      0.00042204     -0.00164552     -0.00000069
AIVX     1  Mu1.0001  In1.029 Se1.048               0.12269489      0.00054512     -0.00137848     -0.00000075
AIVX     1  Mu1.0001  In1.022 Se1.049               0.19549388      0.00255886     -0.00475352     -0.00001216
AIVX     1  Mu1.0001  In1.023 Se1.049               0.28324759     -0.00100057      0.00160582     -0.00000161
AIVX     1  Mu1.0001  In1.024 Se1.049               0.29444987      0.00022945     -0.00045291     -0.00000010
AIVX     1  Mu1.0001  In1.025 Se1.049               0.26275657      0.00047092     -0.00092342     -0.00000043
AIVX     1  Mu1.0001  In1.026 Se1.049               0.11318402     -0.00090721      0.00212643     -0.00000193
AIVX     1  Mu1.0001  In1.027 Se1.049               0.24976522      0.00243269     -0.00369103     -0.00000898
AIVX     1  Mu1.0001  In1.028 Se1.049               0.13893685      0.00044083     -0.00115935     -0.00000051
AIVX     1  Mu1.0001  In1.029 Se1.049               0.13115862      0.00020875     -0.00065970     -0.00000014
AIVX     1  Mu1.0001  In1.022 Se1.050               0.21122599      0.00212457     -0.00316516     -0.00000672
AIVX     1  Mu1.0001  In1.023 Se1.050               0.29897969      0.00059113     -0.00052297     -0.00000031
AIVX     1  Mu1.0001  In1.025 Se1.050               0.27848868     -0.00065029      0.00102570     -0.00000067
AIVX     1  Mu1.0001  In1.026 Se1.050               0.12891612     -0.00067116      0.00159400     -0.00000107
AIVX     1  Mu1.0001  In1.027 Se1.050               0.26549733      0.00231458     -0.00377133     -0.00000873
AIVX     1  Mu1.0001  In1.028 Se1.050               0.15466895      0.00064925     -0.00182063     -0.00000118
AIVX     1  Mu1.0001  In1.029 Se1.050               0.14689072     -0.00189912      0.00355043     -0.00000674
AIVX     1  Mu1.0001  In1.022 Se1.051               0.20069382     -0.00171754      0.00323460     -0.00000556
AIVX     1  Mu1.0001  In1.023 Se1.051               0.28844753      0.00015846     -0.00033742     -0.00000005
AIVX     1  Mu1.0001  In1.024 Se1.051               0.29964981      0.00035527     -0.00052374     -0.00000019
AIVX     1  Mu1.0001  In1.025 Se1.051               0.26795651      0.00088677     -0.00142698     -0.00000127
AIVX     1  Mu1.0001  In1.026 Se1.051               0.11838395      0.00112555     -0.00224009     -0.00000252
AIVX     1  Mu1.0001  In1.027 Se1.051               0.25496516      0.00073855     -0.00122263     -0.00000090
AIVX     1  Mu1.0001  In1.028 Se1.051               0.14413679      0.00058494     -0.00141627     -0.00000083
AIVX     1  Mu1.0001  In1.029 Se1.051               0.13635856      0.00069374     -0.00149472     -0.00000104
AIVX     1  Mu1.0001  In1.022 Se1.052               0.24842985      0.00113677     -0.00184220     -0.00000209
AIVX     1  Mu1.0001  In1.026 Se1.052               0.16611998     -0.00222651      0.00383800     -0.00000855
AIVX     1  Mu1.0001  In1.028 Se1.052               0.19187282      0.00007872     -0.00019302     -0.00000002
AIVX     1  Mu1.0001  In1.029 Se1.052               0.18409459     -0.00065876      0.00112594     -0.00000074
AIVX     1  Mu1.0001  In1.022 Se1.053               0.25837775      0.00021798     -0.00048178     -0.00000011
AIVX     1  Mu1.0001  In1.026 Se1.053               0.17606788      0.00068418     -0.00106013     -0.00000073
AIVX     1  Mu1.0001  In1.028 Se1.053               0.20182072     -0.00123304      0.00261115     -0.00000322
AIVX     1  Mu1.0001  In1.029 Se1.053               0.19404249      0.00063994     -0.00109972     -0.00000070
AIVX     1  Mu1.0001  In1.022 Se1.054               0.27140677     -0.00034934      0.00013620     -0.00000005
AIVX     1  Mu1.0001  In1.026 Se1.054               0.18909690     -0.00044938      0.00045320     -0.00000020
AIVX     1  Mu1.0001  In1.028 Se1.054               0.21484973      0.00030630     -0.00087196     -0.00000027
AIVX     1  Mu1.0001  In1.029 Se1.054               0.20707150      0.00279569     -0.00497201     -0.00001390
AIVX     1  Mu1.0001  In1.022 Se1.055               0.29096375     -0.00121165      0.00175770     -0.00000213
AIVX     1  Mu1.0001  In1.026 Se1.055               0.20865388     -0.00029799      0.00011387     -0.00000003
AIVX     1  Mu1.0001  In1.028 Se1.055               0.23440671      0.00235021     -0.00477192     -0.00001122
AIVX     1  Mu1.0001  In1.029 Se1.055               0.22662848      0.00085360     -0.00146063     -0.00000125
AIVX     1  Mu1.0001  In1.022 Se1.056               0.29731015     -0.00092904      0.00147690     -0.00000137
AIVX     1  Mu1.0001  In1.026 Se1.056               0.21500028      0.00214212     -0.00364716     -0.00000781
AIVX     1  Mu1.0001  In1.028 Se1.056               0.24075311     -0.00035838      0.00059548     -0.00000021
AIVX     1  Mu1.0001  In1.029 Se1.056               0.23297488      0.00065982     -0.00113365     -0.00000075
AIVX     1  Mu1.0001  In1.026 Se1.057               0.22729514      0.00130319     -0.00221522     -0.00000289
AIVX     1  Mu1.0001  In1.028 Se1.057               0.25304797      0.00101311     -0.00187542     -0.00000190
AIVX     1  Mu1.0001  In1.029 Se1.057               0.24526974     -0.00116246      0.00194268     -0.00000226
AIVX     1  Mu1.0001  In1.026 Se1.058               0.23971807      0.00091905     -0.00171791     -0.00000158
AIVX     1  Mu1.0001  In1.028 Se1.058               0.26547091     -0.00161384      0.00291747     -0.00000471
AIVX     1  Mu1.0001  In1.029 Se1.058               0.25769268      0.00032931     -0.00030705     -0.00000010
AIVX     1  Mu1.0001  In1.026 Se1.059               0.25263143     -0.00101146      0.00079995     -0.00000081
AIVX     1  Mu1.0001  In1.028 Se1.059               0.27838427      0.00094018     -0.00185481     -0.00000174
AIVX     1  Mu1.0001  In1.029 Se1.059               0.27060604     -0.00139354      0.00240209     -0.00000335
AIVX     1  Mu1.0001  In1.026 Se1.060               0.26449919      0.00039010     -0.00035551     -0.00000014
AIVX     1  Mu1.0001  In1.028 Se1.060               0.29025203      0.00010081     -0.00006738     -0.00000001
AIVX     1  Mu1.0001  In1.029 Se1.060               0.28247380     -0.00068234      0.00081247     -0.00000055
AIVX     1  Mu1.0001  In1.026 Se1.062               0.29667947      0.00137610     -0.00237043     -0.00000326
AIVX     1  Mu1.0001  In1.026 Se1.065               0.28679027      0.00030551     -0.00039973     -0.00000012
--
 
   (Skipping property calculation,
    use PROP keyword to activate)
--
 
  Total CASPT2 energies:
::    CASPT2 Root  1     Total energy:   -455.37448974
::    CASPT2 Root  2     Total energy:   -455.16342734
::    CASPT2 Root  3     Total energy:   -455.16089279
::    CASPT2 Root  4     Total energy:   -455.14013162
::    CASPT2 Root  5     Total energy:   -455.09495602
::    CASPT2 Root  6     Total energy:   -455.12935483
::    CASPT2 Root  7     Total energy:   -455.08289518
 
++ Multi-State CASPT2 section:
********************************************************************************
  MULTI-STATE CASPT2 SECTION
--------------------------------------------------------------------------------
 
  Output diagonal energies have been shifted. Add   -455.000000000000     
 
  Effective Hamiltonian matrix (Symmetric):
 
                1               2               3               4               5
   1        -0.37448974
   2        -0.00005106     -0.16342734
   3        -0.00055308      0.00033763     -0.16089279
   4        -0.01472177     -0.00202069     -0.00033287     -0.14013162
   5        -0.00432314      0.00020667     -0.00007209     -0.00897945     -0.09495602
   6         0.01283129      0.00067983     -0.00077736      0.00579116      0.00173125
   7        -0.00906052     -0.00005669     -0.00091509     -0.01456570     -0.00642299
 
                6               7
   6        -0.12935483
   7         0.00294832     -0.08289518
 
       Total MS-CASPT2 energies:
::    MS-CASPT2 Root  1     Total energy:   -455.37656131
::    MS-CASPT2 Root  2     Total energy:   -455.16369907
::    MS-CASPT2 Root  3     Total energy:   -455.16089293
::    MS-CASPT2 Root  4     Total energy:   -455.14597781
::    MS-CASPT2 Root  5     Total energy:   -455.12688203
::    MS-CASPT2 Root  6     Total energy:   -455.09398275
::    MS-CASPT2 Root  7     Total energy:   -455.07815160
 
       Eigenvectors:
            0.99556876     -0.01045125     -0.00482581     -0.08707420      0.02893476
            0.00102461      0.98732572      0.10994158     -0.11396830      0.00100006
            0.00261436     -0.11263168      0.99305661     -0.01849887     -0.02651269
            0.06617721      0.10226297      0.03366596      0.89506195      0.30002877
            0.01852158      0.01234202      0.00628382      0.18938247      0.04629316
           -0.05376662     -0.03768844      0.01591967     -0.30082495      0.95079680
            0.03495200      0.01903532      0.01737279      0.22713396      0.04779090
 
           -0.00752630     -0.01531500
            0.01000514      0.00313799
           -0.00282822     -0.00962877
           -0.24627175     -0.17951748
            0.94536984     -0.26025418
            0.02115880      0.02184921
            0.21216422      0.94827567
 
--
 
  THE ORIGINAL CI ARRAYS ARE NOW MIXED AS LINEAR
  COMBINATIONS, GIVEN BY THE EIGENVECTORS.
  A NEW JOBIPH FILE NAMED 'JOBMIX' IS PREPARED.
********************************************************************************
 
++ Mixed CI coefficients:
  The CI coefficients for the MIXED state nr.   1
--------------------------------------------------------------------------------
 CI COEFFICIENTS LARGER THAN  0.50D-01
  Occupation of active orbitals, and spin coupling
  of open shells. (u,d: Spin up or down).
  SGUGA info is (Midvert:IsyUp:UpperWalk/LowerWalk)
        Conf  SGUGA info        Occupation    Coefficient         Weight
           1  ( 1:1:   1/   1)   22222200        0.966675       0.934461
           4  ( 1:1:   4/   1)   22222020       -0.115089       0.013246
          64  ( 2:1:   4/   3)   2u22220d        0.123031       0.015137
          81  ( 2:1:   1/   4)   u22222d0        0.101974       0.010399
         145  ( 3:1:   5/   5)   22022202       -0.081483       0.006639
         175  ( 3:1:   5/   8)   20222202       -0.075086       0.005638
         191  ( 3:1:   1/  10)   02222220       -0.085052       0.007234
 
  The CI coefficients for the MIXED state nr.   2
--------------------------------------------------------------------------------
 CI COEFFICIENTS LARGER THAN  0.50D-01
  Occupation of active orbitals, and spin coupling
  of open shells. (u,d: Spin up or down).
  SGUGA info is (Midvert:IsyUp:UpperWalk/LowerWalk)
        Conf  SGUGA info        Occupation    Coefficient         Weight
           2  ( 1:1:   2/   1)   22222ud0       -0.108788       0.011835
           3  ( 1:1:   3/   1)   2222u2d0       -0.937350       0.878625
           5  ( 1:1:   5/   1)   2222ud20        0.135908       0.018471
           8  ( 1:1:   8/   1)   2222u20d       -0.099198       0.009840
          24  ( 2:1:   4/   1)   222u220d        0.117535       0.013815
          44  ( 2:1:   4/   2)   22u2220d       -0.053904       0.002906
          66  ( 2:1:   6/   3)   2u22d2ud       -0.063527       0.004036
          68  ( 2:1:   8/   3)   2u22u2dd       -0.105356       0.011100
          83  ( 2:1:   3/   4)   u222d220        0.157339       0.024756
         147  ( 3:1:   7/   5)   2202u2d2        0.079569       0.006331
         177  ( 3:1:   7/   8)   2022u2d2        0.075676       0.005727
 
  The CI coefficients for the MIXED state nr.   3
--------------------------------------------------------------------------------
 CI COEFFICIENTS LARGER THAN  0.50D-01
  Occupation of active orbitals, and spin coupling
  of open shells. (u,d: Spin up or down).
  SGUGA info is (Midvert:IsyUp:UpperWalk/LowerWalk)
        Conf  SGUGA info        Occupation    Coefficient         Weight
           3  ( 1:1:   3/   1)   2222u2d0       -0.116189       0.013500
           7  ( 1:1:   7/   1)   22222u0d       -0.077219       0.005963
           8  ( 1:1:   8/   1)   2222u20d        0.059916       0.003590
          24  ( 2:1:   4/   1)   222u220d       -0.940393       0.884339
          25  ( 2:1:   5/   1)   222u2dud       -0.066549       0.004429
          27  ( 2:1:   7/   1)   222u2udd       -0.110878       0.012294
          29  ( 2:1:   9/   1)   222u202d        0.086722       0.007521
          44  ( 2:1:   4/   2)   22u2220d       -0.080616       0.006499
         115  ( 3:1:   5/   2)   22ud2202        0.151042       0.022814
         125  ( 3:1:   5/   3)   2u2d2202        0.112229       0.012595
         213  ( 4:1:   1/   3)   u22u22dd        0.070559       0.004979
         214  ( 4:1:   2/   3)   u22u2d2d       -0.058254       0.003394
         269  ( 5:1:   1/   9)   022u222d       -0.096244       0.009263
 
  The CI coefficients for the MIXED state nr.   4
--------------------------------------------------------------------------------
 CI COEFFICIENTS LARGER THAN  0.50D-01
  Occupation of active orbitals, and spin coupling
  of open shells. (u,d: Spin up or down).
  SGUGA info is (Midvert:IsyUp:UpperWalk/LowerWalk)
        Conf  SGUGA info        Occupation    Coefficient         Weight
           2  ( 1:1:   2/   1)   22222ud0       -0.641008       0.410892
           3  ( 1:1:   3/   1)   2222u2d0        0.151781       0.023038
           4  ( 1:1:   4/   1)   22222020       -0.140211       0.019659
           7  ( 1:1:   7/   1)   22222u0d       -0.198372       0.039352
           8  ( 1:1:   8/   1)   2222u20d       -0.247920       0.061464
          12  ( 1:1:  12/   1)   2222uudd        0.061339       0.003762
          44  ( 2:1:   4/   2)   22u2220d       -0.578015       0.334102
          49  ( 2:1:   9/   2)   22u2202d        0.065474       0.004287
          67  ( 2:1:   7/   3)   2u222udd       -0.072111       0.005200
          81  ( 2:1:   1/   4)   u22222d0        0.068765       0.004729
          82  ( 2:1:   2/   4)   u2222d20        0.162528       0.026415
         155  ( 3:1:   5/   6)   2ud22202        0.141341       0.019977
         176  ( 3:1:   6/   8)   20222ud2        0.055436       0.003073
         191  ( 3:1:   1/  10)   02222220        0.082950       0.006881
         225  ( 4:1:   1/   5)   u2u222dd        0.064076       0.004106
         301  ( 5:1:   1/  17)   02u2222d       -0.056181       0.003156
 
  The CI coefficients for the MIXED state nr.   5
--------------------------------------------------------------------------------
 CI COEFFICIENTS LARGER THAN  0.50D-01
  Occupation of active orbitals, and spin coupling
  of open shells. (u,d: Spin up or down).
  SGUGA info is (Midvert:IsyUp:UpperWalk/LowerWalk)
        Conf  SGUGA info        Occupation    Coefficient         Weight
           2  ( 1:1:   2/   1)   22222ud0        0.654592       0.428491
           4  ( 1:1:   4/   1)   22222020        0.119021       0.014166
           7  ( 1:1:   7/   1)   22222u0d       -0.107455       0.011547
           8  ( 1:1:   8/   1)   2222u20d       -0.234544       0.055011
          44  ( 2:1:   4/   2)   22u2220d       -0.620629       0.385180
          47  ( 2:1:   7/   2)   22u22udd       -0.060621       0.003675
          49  ( 2:1:   9/   2)   22u2202d        0.067599       0.004570
          67  ( 2:1:   7/   3)   2u222udd        0.072338       0.005233
          82  ( 2:1:   2/   4)   u2222d20       -0.171912       0.029554
         146  ( 3:1:   6/   5)   22022ud2       -0.062913       0.003958
         155  ( 3:1:   5/   6)   2ud22202        0.151007       0.022803
         191  ( 3:1:   1/  10)   02222220       -0.077479       0.006003
         225  ( 4:1:   1/   5)   u2u222dd        0.051021       0.002603
         301  ( 5:1:   1/  17)   02u2222d       -0.059409       0.003529
 
  The CI coefficients for the MIXED state nr.   6
--------------------------------------------------------------------------------
 CI COEFFICIENTS LARGER THAN  0.50D-01
  Occupation of active orbitals, and spin coupling
  of open shells. (u,d: Spin up or down).
  SGUGA info is (Midvert:IsyUp:UpperWalk/LowerWalk)
        Conf  SGUGA info        Occupation    Coefficient         Weight
           2  ( 1:1:   2/   1)   22222ud0       -0.070630       0.004989
           7  ( 1:1:   7/   1)   22222u0d        0.920021       0.846439
          24  ( 2:1:   4/   1)   222u220d       -0.051186       0.002620
          44  ( 2:1:   4/   2)   22u2220d       -0.239725       0.057468
          73  ( 2:1:  13/   3)   2u222d02       -0.071136       0.005060
          85  ( 2:1:   5/   4)   u2222dud       -0.162727       0.026480
          87  ( 2:1:   7/   4)   u2222udd       -0.164676       0.027118
         193  ( 3:1:   3/  10)   02222u2d        0.128809       0.016592
 
  The CI coefficients for the MIXED state nr.   7
--------------------------------------------------------------------------------
 CI COEFFICIENTS LARGER THAN  0.50D-01
  Occupation of active orbitals, and spin coupling
  of open shells. (u,d: Spin up or down).
  SGUGA info is (Midvert:IsyUp:UpperWalk/LowerWalk)
        Conf  SGUGA info        Occupation    Coefficient         Weight
           3  ( 1:1:   3/   1)   2222u2d0       -0.058280       0.003397
           7  ( 1:1:   7/   1)   22222u0d       -0.097582       0.009522
           8  ( 1:1:   8/   1)   2222u20d        0.851443       0.724955
          10  ( 1:1:  10/   1)   2222udud       -0.187143       0.035022
          12  ( 1:1:  12/   1)   2222uudd       -0.274753       0.075489
          24  ( 2:1:   4/   1)   222u220d        0.095877       0.009192
          44  ( 2:1:   4/   2)   22u2220d       -0.318660       0.101544
          74  ( 2:1:  14/   3)   2u22d202       -0.059111       0.003494
          81  ( 2:1:   1/   4)   u22222d0        0.057308       0.003284
          91  ( 2:1:  11/   4)   u222ud2d       -0.073719       0.005435
         155  ( 3:1:   5/   6)   2ud22202        0.072471       0.005252
         194  ( 3:1:   4/  10)   0222u22d        0.073381       0.005385
 
--
 
--- Stop Module: caspt2 at Tue Jun 10 21:00:35 2025 /rc=_RC_ALL_IS_WELL_ ---
*** files: xmldump
    saved to directory /home/pcaah4/diamide_project
--- Module caspt2 spent 7 minutes 10 seconds ---

.##################.
.# Happy landing! #.
.##################.

    Timing: Wall=683.51 User=593.36 System=80.64
******************************************************
*** WorkDir at /srv/COMMUNAL_SCRATCH/12463 cleaned ***
******************************************************
