   This run of MOLCAS is using the pymolcas driver

                             OPE
                             OPE          NMOL  CASOP  ENMOLC A   SO
                 OPE        NMOLC        AS  OP EN  MO LC     AS  OP
                OPENM       OL CA        SO  PE NM  OL CA     SOP EN
                OP EN      MO   LC       AS  OP ENMOL  CASO   PENMOL
                OP  EN     MO   LC       AS  OP EN     MO     LC ASO
               OP   E  NMOL  C  AS       OP  EN MO     LC     AS  OP
               OP  E   NMO   LC AS        OPEN  MO     LCASOP EN   M
               O  PEN   MO  LCA  SO
            OPE   NMO   L   CAS    OP
        OPENMOL  CASOP     ENMOL   CASOPE
     OPENMOLCA   SOPENMOLCASOPEN   MOLCASOPE
    OPENMOLCAS   OP           EN   MOL    CAS
    OPENMOLCAS       OP  ENM        O     LCA
    OPENMOLCAS    OPEN  MOLCASO     P  E  NMO
    OPENMOLCAS     OP               E  N  MOL
    OPENMOLCA   SO           PENM   O  L  CAS    OPEN    MO    LCAS
    OPENMOLCA   SOP           ENM   O  L  CAS   OP  EN  MOLC  AS   O
    OPENMOLCA   SOPE           NM      O  LCA   S      OP  EN MO
    OPENMOLC                AS         O  PEN   M      OL  CA  SOPE
    OPENMO        LCASOPE  NMOL        C  ASO   P      ENMOLC     AS
    OPE     NMO      LCA  SO     P     E   NM   OL  CA SO  PE N   MO
          OPENMOLCA            SOPE   NMO        LCAS  O    P  ENMO
     OPENMOLCASOPENMOLCASOPENMOLCASOPENMOLCA
        OPENMOLCASOPENMOLCASOPENMOLCASOPE
            OPENMOLCASOPENMOLCASOPENM
               OPENMOLCASOPENMOLCA        version: v23.06
                   OPENMOLCASO
                       OPE                tag:

 OpenMolcas is free software; you can redistribute it and/or modify it
 under the terms of the GNU Lesser General Public License version 2.1.
 OpenMolcas is distributed in the hope that it will be useful, but it
 is provided "as is" and without any express or implied warranties.
 For more details see the full text of the license in the file
 LICENSE or in <http://www.gnu.org/licenses/>.

                 Copyright (C) The OpenMolcas Authors
           For the author list and the recommended citation,
                   consult the file CONTRIBUTORS.md

           *************************************************
           * pymolcas version py2.24                       *
           *   build 4567b286dd94b1984b333a4ddf893180      *
           *   (after the EMIL interpreter by V. Veryazov) *
           *************************************************

configuration info
------------------
Host name: loginchem01.nottingham.ac.uk (Linux)
C Compiler ID: Intel
C flags: -std=gnu99 -gcc-sys -qopenmp
Fortran Compiler ID: Intel
Fortran flags: -fpp -i8 -heap-arrays -qopenmp
Definitions: _MOLCAS_;_I8_;_LINUX_
Parallel: OFF (GA=OFF)


   ----------------------------------------------------------------------------------------------------
  |
  |              Project: orca_geometry_optimisation_300_115_BP86_def2-SVP_def2J_scf_cas1_ras12i11_cas8
  |       Submitted from: /home/pcaah4/diamide_project
  |         Scratch area: /srv/COMMUNAL_SCRATCH/12448
  |      Save outputs to: /home/pcaah4/diamide_project
  |               Molcas: /software/chemistry/openmolcas/openmolcas-23.06-openmp
  |
  | Scratch area is empty
  |
  |       MOLCAS_DRIVER = /software/chemistry/openmolcas/openmolcas-23.06-openmp/sbin/pymolcas
  | MOLCAS_KEEP_WORKDIR = NO
  |       MOLCAS_NPROCS = 1
  |       MOLCAS_SOURCE = /software/chemistry/openmolcas/openmolcas-23.06-openmp
  |    MOLCAS_STRUCTURE = 0
  |
   ----------------------------------------------------------------------------------------------------

++ ---------   Input file   ---------

&SEWARD
TITLE
orca_geometry_optimisation_300_115_BP86_def2-SVP_def2J_scf_cas1_ras12i11
MULTIPOLES
2
SDIPOLE
ANGMOM
0 0 0
BASIS SET
C.ANO-S...4S3P1D.
C1           -0.009652   -0.009434    0.178008 /Angstrom
C3            2.075636    1.259790    0.016517 /Angstrom
C4            1.690574    2.049638   -1.256413 /Angstrom
C6            0.548549    4.057661   -2.106069 /Angstrom
C19          -0.681425   -1.368032    0.030660 /Angstrom
END OF BASIS
BASIS SET
N.ANO-S...4S3P1D.
N2            1.367047   -0.009618    0.122383 /Angstrom
N5            1.049293    3.236888   -1.018316 /Angstrom
END OF BASIS
BASIS SET
O.ANO-S...4S3P1D.
O7           -0.646667    1.030067    0.362087 /Angstrom
O8            2.002511    1.636808   -2.373293 /Angstrom
END OF BASIS
BASIS SET
H.ANO-S...2S1P.
H9           -1.224224   -1.394696   -0.936309 /Angstrom
H10          -1.437946   -1.478849    0.831262 /Angstrom
H11           0.021193   -2.223258    0.069747 /Angstrom
H12           1.833781   -0.839994   -0.245955 /Angstrom
H13           1.889550    1.858371    0.933124 /Angstrom
H14           3.160689    1.049164   -0.042339 /Angstrom
H15           0.585005    3.309200   -0.109375 /Angstrom
H16           1.082240    3.755000   -3.026776 /Angstrom
H17          -0.541361    3.909857   -2.270627 /Angstrom
H18           0.734797    5.133748   -1.910308 /Angstrom
END OF BASIS
END OF INPUT

&RASSCF
TITLE
orca_geometry_optimisation_300_115_BP86_def2-SVP_def2J_scf_cas1_ras12i11
LUMORB
SPIN
1
SYMMETRY
1
NACTEL
12  0  0
INACTIVE
29
DELETED  ! delete Rydberg orbitals from an initial CAS(12,11) if done
3
FROZEN
0
RAS2
8
ITERATIONS
64 25
CIROOT
7 7
1 2 3 4 5 6 7
1 1 1 1 1 1 1
LEVSHFT
0.3
CIMX
20
FILEorb = /home/pcaah4/diamide_project/cas/ras12i11/ras_orb/orca_geometry_optimisation_300_115_BP86_def2-SVP_def2J_scf_cas1_ras12i11.RasOrb
ALTEr
1
 1 37 40
END OF INPUT

&RASSI
NROF JOBIPH
    1 7
    1 2 3 5 4 6 7
TOFILE
TRDI
TDMN
1.0D-6
END OF INPUT

&CASPT2
TITLE
orca_geometry_optimisation_300_115_BP86_def2-SVP_def2J_scf_cas1_ras12i11
MULTISTATE
7 1 2 3 4 5 6 7
SHIFT
0.35
MAXITER
50
END OF INPUT

-- ----------------------------------

--- Start Module: seward at Tue Jun 10 20:12:46 2025 ---
 
()()()()()()()()()()()()()()()()()()()()()()()()()()()()()()()()()()()()()()()()()()()()()()()()()()

                                              &SEWARD

                                   only a single process is used
                       available to each process: 2.0 GB of memory, 1 thread
                                            pid: 3126179
()()()()()()()()()()()()()()()()()()()()()()()()()()()()()()()()()()()()()()()()()()()()()()()()()()
 
               SEWARD will generate:
                  Multipole Moment integrals up to order  2
                  Kinetic Energy integrals
                  Nuclear Attraction integrals (point charge)
                  One-Electron Hamiltonian integrals
                  Velocity integrals
                  Orbital angular momentum around ( 0.0000  0.0000  0.0000 )
                  Velocity quadrupole around ( 1.5277  2.5120 -1.2948 )
                  Two-Electron Repulsion integrals
 
 Title:
            orca_geometry_optimisation_300_115_BP86_def2-SVP_def2J_scf_cas1_ras12i11    
 
 
                   Integrals are discarded if absolute value <: 0.10E-13
                   Integral cutoff threshold is set to       <: 0.10E-15
 
++    Symmetry information:
      ---------------------
 
                    Character Table for C1 
 
                             E  
                    a        1  x, y, xy, Rz, z, xz, Ry, yz, Rx, I
--
 
 
++    Basis set information:
      ----------------------
 
 
      Basis set label: C.ANO-S...4S3P1D......
 
      Electronic valence basis set:
      ------------------
      Associated Effective Charge   6.000000 au
      Associated Actual Charge      6.000000 au
      Nuclear Model: Point charge
 
      Shell  nPrim  nBasis  Cartesian Spherical Contaminant
         s      10       4        X                  
         p       6       3        X                  
         d       3       1                 X         
 
 
      Basis set label: N.ANO-S...4S3P1D......
 
      Electronic valence basis set:
      ------------------
      Associated Effective Charge   7.000000 au
      Associated Actual Charge      7.000000 au
      Nuclear Model: Point charge
 
      Shell  nPrim  nBasis  Cartesian Spherical Contaminant
         s      10       4        X                  
         p       6       3        X                  
         d       3       1                 X         
 
 
      Basis set label: O.ANO-S...4S3P1D......
 
      Electronic valence basis set:
      ------------------
      Associated Effective Charge   8.000000 au
      Associated Actual Charge      8.000000 au
      Nuclear Model: Point charge
 
      Shell  nPrim  nBasis  Cartesian Spherical Contaminant
         s      10       4        X                  
         p       6       3        X                  
         d       3       1                 X         
 
 
      Basis set label: H.ANO-S...2S1P......
 
      Electronic valence basis set:
      ------------------
      Associated Effective Charge   1.000000 au
      Associated Actual Charge      1.000000 au
      Nuclear Model: Point charge
 
      Shell  nPrim  nBasis  Cartesian Spherical Contaminant
         s       7       2        X                  
         p       3       1        X                  
--
 
 
++    Molecular structure info:
      -------------------------
 
                    ************************************************ 
                    **** Cartesian Coordinates / Bohr, Angstrom **** 
                    ************************************************ 
 
     Center  Label                x              y              z                     x              y              z
        1      C1              -0.018240      -0.017828       0.336386             -0.009652      -0.009434       0.178008
        2      C3               3.922384       2.380658       0.031213              2.075636       1.259790       0.016517
        3      C4               3.194722       3.873254      -2.374276              1.690574       2.049638      -1.256413
        4      C6               1.036607       7.667868      -3.979894              0.548549       4.057661      -2.106069
        5      C19             -1.287707      -2.585206       0.057939             -0.681425      -1.368032       0.030660
        6      N2               2.583344      -0.018175       0.231270              1.367047      -0.009618       0.122383
        7      N5               1.982876       6.116832      -1.924338              1.049293       3.236888      -1.018316
        8      O7              -1.222024       1.946545       0.684245             -0.646667       1.030067       0.362087
        9      O8               3.784197       3.093119      -4.484874              2.002511       1.636808      -2.373293
       10      H9              -2.313448      -2.635593      -1.769368             -1.224224      -1.394696      -0.936309
       11      H10             -2.717324      -2.794620       1.570858             -1.437946      -1.478849       0.831262
       12      H11              0.040049      -4.201349       0.131803              0.021193      -2.223258       0.069747
       13      H12              3.465344      -1.587359      -0.464788              1.833781      -0.839994      -0.245955
       14      H13              3.570732       3.511812       1.763349              1.889550       1.858371       0.933124
       15      H14              5.972837       1.982633      -0.080009              3.160689       1.049164      -0.042339
       16      H15              1.105499       6.253482      -0.206689              0.585005       3.309200      -0.109375
       17      H16              2.045137       7.095922      -5.719778              1.082240       3.755000      -3.026776
       18      H17             -1.023024       7.388559      -4.290863             -0.541361       3.909857      -2.270627
       19      H18              1.388565       9.701378      -3.609959              0.734797       5.133748      -1.910308
 
                    ************************************************* 
                    **** InterNuclear Distances / Bohr, Angstrom **** 
                    ************************************************* 
 
     Atom centers         Bohr        Angstrom
   13 H12       6 N2      1.929963        1.021292
   16 H15       7 N5      1.933594        1.023214
   17 H16       4 C6      2.090802        1.106405
   15 H14       2 C3      2.091686        1.106873
   11 H10       5 C19     2.092028        1.107054
   12 H11       5 C19     2.092919        1.107525
   10 H9        5 C19     2.096124        1.109221
   19 H18       4 C6      2.096637        1.109493
   14 H13       2 C3      2.098443        1.110448
   18 H17       4 C6      2.101618        1.112128
    9 O8        3 C4      2.326094        1.230916
    8 O7        1 C1      2.329991        1.232978
    7 N5        3 C4      2.589334        1.370217
    6 N2        1 C1      2.603707        1.377822
    7 N5        4 C6      2.743437        1.451764
    6 N2        2 C3      2.754533        1.457636
    5 C19       1 C1      2.877588        1.522754
    3 C4        2 C3      2.922963        1.546765
   11 H10      10 H9      3.368309        1.782433
   15 H14      14 H13     3.392118        1.795032
   18 H17      17 H16     3.397212        1.797727
   12 H11      10 H9      3.406609        1.802700
   19 H18      18 H17     3.410062        1.804527
   12 H11      11 H10     3.413630        1.806415
   19 H18      17 H16     3.416259        1.807806
   16 H15       3 C4      3.837808        2.030880
   13 H12       1 C1      3.903929        2.065870
   17 H16       7 N5      3.920185        2.074473
   15 H14       6 N2      3.948263        2.089331
   14 H13       6 N2      3.972784        2.102307
   19 H18       7 N5      4.005433        2.119584
   13 H12       2 C3      4.024930        2.129901
   16 H15       4 C6      4.030175        2.132677
   18 H17       7 N5      4.031522        2.133389
   11 H10       1 C1      4.064425        2.150801
   10 H9        1 C1      4.068769        2.153100
   15 H14       3 C4      4.068911        2.153175
   14 H13       3 C4      4.170368        2.206864
   16 H15      14 H13     4.180332        2.212136
   12 H11       1 C1      4.188926        2.216684
    8 O7        6 N2      4.306522        2.278914
   13 H12      12 H11     4.349886        2.301861
    9 O8        7 N5      4.352464        2.303225
   15 H14      13 H12     4.379545        2.317555
   17 H16       9 O8      4.535609        2.400141
    9 O8        2 C3      4.574028        2.420471
    8 O7        5 C19     4.575296        2.421142
    2 C3        1 C1      4.623243        2.446515
    7 N5        2 C3      4.641644        2.456252
    6 N2        5 C19     4.648088        2.459662
    4 C6        3 C4      4.651296        2.461360
    6 N2        3 C4      4.722910        2.499257
   18 H17      16 H15     4.743363        2.510080
   17 H16       3 C4      4.785343        2.532294
   14 H13       7 N5      4.786068        2.532678
   16 H15       2 C3      4.794809        2.537304
   19 H18      16 H15     4.852871        2.568029
   13 H12       5 C19     4.884714        2.584879
   12 H11       6 N2      4.896650        2.591196
   16 H15       8 O7      4.976026        2.633199
   15 H14       9 O8      5.042435        2.668342
   11 H10       8 O7      5.049816        2.672248
   14 H13       8 O7      5.156068        2.728473
    8 O7        2 C3      5.203828        2.753747
   14 H13       1 C1      5.232141        2.768730
   10 H9        8 O7      5.311065        2.810495
    9 O8        4 C6      5.360278        2.836537
   14 H13      13 H12     5.565720        2.945252
   17 H16      16 H15     5.655685        2.992860
--
 
 
            Nuclear Potential Energy            464.10113213 au
 
 
      Basis set specifications :
      Symmetry species         a  
      Basis functions          212
 
 
      Input file to MOLDEN was generated!
 
--- Stop Module: seward at Tue Jun 10 20:14:37 2025 /rc=_RC_ALL_IS_WELL_ ---
*** files: orca_geometry_optimisation_300_115_BP86_def2-SVP_def2J_scf_cas1_ras12i11_cas8.GssOrb
           orca_geometry_optimisation_300_115_BP86_def2-SVP_def2J_scf_cas1_ras12i11_cas8.guessorb.molden xmldump
    saved to directory /home/pcaah4/diamide_project
--- Module seward spent 1 minute 50 seconds ---

*** symbolic link created: INPORB -> orca_geometry_optimisation_300_115_BP86_def2-SVP_def2J_scf_cas1_ras12i11_cas8.GssOrb
--- Start Module: rasscf at Tue Jun 10 20:14:37 2025 ---
 
()()()()()()()()()()()()()()()()()()()()()()()()()()()()()()()()()()()()()()()()()()()()()()()()()()

                                              &RASSCF

                                   only a single process is used
                       available to each process: 2.0 GB of memory, 1 thread
                                            pid: 3126212
()()()()()()()()()()()()()()()()()()()()()()()()()()()()()()()()()()()()()()()()()()()()()()()()()()
 
 
      Header of the ONEINT file:
      --------------------------
      orca_geometry_optimisation_300_115_BP86_def2-SVP_def2J_scf_cas1_ras12i11
      Integrals generated by Gateway/Seward, Tue Jun 10 20:12:46 2025
 
 
      OrdInt status: non-squared
 
 
      Cartesian coordinates in Angstrom:
      -----------------------------------------------------
      No.  Label        X            Y            Z        
      -----------------------------------------------------
       1   C1        -0.00965200  -0.00943400   0.17800800
       2   C3         2.07563600   1.25979000   0.01651700
       3   C4         1.69057400   2.04963800  -1.25641300
       4   C6         0.54854900   4.05766100  -2.10606900
       5   C19       -0.68142500  -1.36803200   0.03066000
       6   N2         1.36704700  -0.00961800   0.12238300
       7   N5         1.04929300   3.23688800  -1.01831600
       8   O7        -0.64666700   1.03006700   0.36208700
       9   O8         2.00251100   1.63680800  -2.37329300
      10   H9        -1.22422400  -1.39469600  -0.93630900
      11   H10       -1.43794600  -1.47884900   0.83126200
      12   H11        0.02119300  -2.22325800   0.06974700
      13   H12        1.83378100  -0.83999400  -0.24595500
      14   H13        1.88955000   1.85837100   0.93312400
      15   H14        3.16068900   1.04916400  -0.04233900
      16   H15        0.58500500   3.30920000  -0.10937500
      17   H16        1.08224000   3.75500000  -3.02677600
      18   H17       -0.54136100   3.90985700  -2.27062700
      19   H18        0.73479700   5.13374800  -1.91030800
      -----------------------------------------------------
      Nuclear repulsion energy =  464.10113213
 
++    Wave function specifications:
      -----------------------------
 
      Number of closed shell electrons          58
      Number of electrons in active shells      12
      Max number of holes in RAS1 space          0
      Max nr of electrons in RAS3 space          0
      Number of inactive orbitals               29
      Number of active orbitals                  8
      Number of secondary orbitals             172
      Spin quantum number                      0.0
      State symmetry                             1
--
 
++    Orbital specifications:
      -----------------------
 
      Symmetry species                           1
                                                 a
      Frozen orbitals                            0
      Inactive orbitals                         29
      Active orbitals                            8
      RAS1 orbitals                              0
      RAS2 orbitals                              8
      RAS3 orbitals                              0
      Secondary orbitals                       172
      Deleted orbitals                           3
      Number of basis functions                212
--
 
++    CI expansion specifications:
      ----------------------------
 
      Number of CSFs                           336
      Number of determinants                   406
      Number of root(s) required                 7
      Root chosen for geometry opt.              7
      CI roots used                              1     2     3     4     5     6     7
      weights                                0.143 0.143 0.143 0.143 0.143 0.143 0.143
      highest root included in the CI            7
      max. size of the explicit Hamiltonian    200
--
 
++    Optimization specifications:
      ----------------------------
 
      RASSCF algorithm: Conventional
      Maximum number of macro iterations        64
      Maximum number of SX iterations           25
      Threshold for RASSCF energy            0.100E-07
      Threshold for max MO rotation          0.100E+00
      Threshold for max BLB element          0.100E-03
      Level shift parameter                  0.300E+00
      Make Quasi-Newton update
--
 
      The MO-coefficients are taken from the file:
      /home/pcaah4/diamide_project/cas/ras12i11/ras_orb/orca_geometry_optimisation_300_115_BP86_def2-SVP_def2J_scf_cas1_ras12i11.RasOrb                                                                                                                               
      Title: RASSCF average (pseudo-natural) orbitals                                      
 
      Total molecular charge    0.00
 
      Molecular orbitals exchanged:
        In symmetry  1 :  37  40
 
 
      ************************************************************************************************************************
      *                                                                                                                      *
      *                                            Wave function control section                                             *
      *                                                                                                                      *
      ************************************************************************************************************************
 
 
                                         RASSCF iterations: Energy and convergence statistics
                                         ----------------------------------------------------
 
      Iter CI   SX   CI       RASSCF       Energy    max ROT     max BLB   max BLB  Level Ln srch  Step   QN   Walltime
          iter iter root      energy       change     param      element    value   shift minimum  type update hh:mm:ss
 Nr of preliminary CI iterations:   4
        1   1   24    0  -453.68922231    0.00E+00   0.81E-01   34  38 1 -0.28E-01*  0.19   0.00    SX    NO    0:00:13
        2   6   25    0  -453.70594888   -0.17E-01*  0.63E-01   37  39 1 -0.10E-01*  0.16   0.00    SX    NO    0:00:07
        3   1   11    0  -453.70832039   -0.24E-02*  0.35E-01   37  39 1 -0.59E-02*  0.16   0.00    SX    NO    0:00:06
        4   4   12    0  -453.70926430   -0.94E-03* -0.22E-01   37  39 1 -0.36E-02*  0.16   0.00    SX    NO    0:00:06
        5   4   11    0  -453.70954357   -0.28E-03* -0.30E-01   37  39 1 -0.22E-02*  0.16   1.60    QN   YES    0:00:06
        6   5   11    0  -453.70969374   -0.15E-03*  0.51E-02   34  39 1 -0.35E-03*  0.16   1.12    QN   YES    0:00:07
        7   5   10    0  -453.70970443   -0.11E-04*  0.29E-02   25  38 1  0.26E-03*  0.16   1.37    QN   YES    0:00:06
        8   4    9    0  -453.70970887   -0.44E-05* -0.12E-02   35  39 1  0.13E-03*  0.16   1.12    QN   YES    0:00:06
        9   5    9    0  -453.70971003   -0.12E-05* -0.70E-03   35  39 1  0.65E-04   0.16   1.39    QN   YES    0:00:06
       10   5    8    0  -453.70971032   -0.30E-06* -0.20E-03   25  38 1 -0.23E-04   0.16   1.15    QN   YES    0:00:06
       11   3    8    0  -453.70971038   -0.53E-07* -0.13E-03   33  38 1 -0.11E-04   0.16   1.31    QN   YES    0:00:06
       12   3    7    0  -453.70971039   -0.15E-07* -0.48E-04   34  39 1 -0.64E-05   0.16   1.19    QN   YES    0:00:06
       13   1    6    0  -453.70971040   -0.27E-08  -0.17E-04   34  39 1 -0.21E-05   0.16   1.12    QN   YES    0:00:06
      Convergence after 13 iterations
       14   1    6    0  -453.70971040   -0.50E-09  -0.17E-04   37  39 1  0.79E-06   0.16   1.12    QN   YES    0:00:06
 
      ************************************************************************************************************************
                                                      Wave function printout:
                       occupation of active orbitals, and spin coupling of open shells (u,d: Spin up or down)
      ************************************************************************************************************************
 
      Note: transformation to natural orbitals
      has been made, which may change the order of the CSFs.
 
      printout of CI-coefficients larger than  0.05 for root  1
      energy=    -453.959877
      conf/sym  11111111     Coeff  Weight
             1  22222200  -0.95974 0.92111
             2  22222ud0   0.10196 0.01040
             4  22222020   0.09727 0.00946
            17  22220202   0.07700 0.00593
            61  2u2222d0  -0.09046 0.00818
            62  2u222d20  -0.06583 0.00433
            84  u222220d   0.11221 0.01259
           171  20222220   0.08842 0.00782
           195  02222202   0.07584 0.00575
 
      printout of CI-coefficients larger than  0.05 for root  2
      energy=    -453.753295
      conf/sym  11111111     Coeff  Weight
             2  22222ud0  -0.09592 0.00920
            41  22u222d0   0.94647 0.89580
            42  22u22d20   0.13790 0.01902
            44  22u2220d  -0.10552 0.01114
            58  22u202d2   0.07844 0.00615
           151  2ud22220  -0.15235 0.02321
           162  u2d222ud  -0.06456 0.00417
           225  u2u222dd  -0.10094 0.01019
           302  02u222d2  -0.07599 0.00578
 
      printout of CI-coefficients larger than  0.05 for root  3
      energy=    -453.740425
      conf/sym  11111111     Coeff  Weight
             7  22222u0d   0.07479 0.00559
             8  2222u20d  -0.14183 0.02012
            21  222u22d0   0.05190 0.00269
            24  222u220d   0.93531 0.87481
            25  222u2dud  -0.05410 0.00293
            27  222u2udd  -0.10138 0.01028
            29  222u202d  -0.09324 0.00869
            34  222ud202   0.15012 0.02254
           135  u22d2202   0.12376 0.01532
           207  2u2u22dd  -0.08129 0.00661
           208  2u2u2d2d  -0.05921 0.00351
           261  202u222d   0.08786 0.00772
 
      printout of CI-coefficients larger than  0.05 for root  4
      energy=    -453.652833
      conf/sym  11111111     Coeff  Weight
             2  22222ud0  -0.19097 0.03647
             7  22222u0d  -0.25769 0.06640
             8  2222u20d  -0.76037 0.57817
            12  2222uudd   0.07173 0.00514
            13  2222u02d   0.08536 0.00729
            24  222u220d  -0.09113 0.00830
            44  22u2220d   0.44724 0.20002
            47  22u22udd   0.06937 0.00481
            61  2u2222d0  -0.05487 0.00301
            66  2u22d2ud  -0.05042 0.00254
            68  2u22u2dd   0.07865 0.00619
            84  u222220d   0.05860 0.00343
            94  u222d202  -0.16926 0.02865
           174  2022u22d  -0.06895 0.00475
           195  02222202  -0.05262 0.00277
 
      printout of CI-coefficients larger than  0.05 for root  5
      energy=    -453.634286
      conf/sym  11111111     Coeff  Weight
             1  22222200   0.08820 0.00778
             2  22222ud0   0.80811 0.65304
             4  22222020  -0.14997 0.02249
             7  22222u0d  -0.43432 0.18864
            19  22220ud2  -0.06973 0.00486
            41  22u222d0   0.09627 0.00927
            44  22u2220d   0.06933 0.00481
            61  2u2222d0   0.09545 0.00911
            62  2u222d20  -0.21122 0.04462
            65  2u222dud   0.08027 0.00644
            85  u2222dud  -0.05263 0.00277
            87  u2222udd  -0.10495 0.01101
           171  20222220   0.08004 0.00641
           196  02222ud2  -0.06458 0.00417
 
      printout of CI-coefficients larger than  0.05 for root  6
      energy=    -453.617458
      conf/sym  11111111     Coeff  Weight
             2  22222ud0   0.37985 0.14429
             4  22222020  -0.06023 0.00363
             7  22222u0d   0.80210 0.64336
             8  2222u20d  -0.28288 0.08002
            10  2222udud   0.07323 0.00536
            24  222u220d  -0.10976 0.01205
            25  222u2dud  -0.05597 0.00313
            44  22u2220d   0.11768 0.01385
            62  2u222d20  -0.09892 0.00978
            65  2u222dud  -0.14164 0.02006
            67  2u222udd  -0.14439 0.02085
            93  u2222d02   0.05243 0.00275
            94  u222d202  -0.06251 0.00391
           173  20222u2d   0.10938 0.01196
 
      printout of CI-coefficients larger than  0.05 for root  7
      energy=    -453.609799
      conf/sym  11111111     Coeff  Weight
             7  22222u0d   0.06377 0.00407
             8  2222u20d   0.45104 0.20344
            24  222u220d   0.07354 0.00541
            41  22u222d0   0.08481 0.00719
            44  22u2220d   0.80511 0.64820
            45  22u22dud   0.15433 0.02382
            47  22u22udd   0.22588 0.05102
            48  22u2u2dd   0.05701 0.00325
            94  u222d202   0.10151 0.01030
           112  22ud22ud  -0.05329 0.00284
           201  22uu22dd  -0.07251 0.00526
           220  2uu22d2d   0.05253 0.00276
           293  20u2222d   0.06389 0.00408
 
      Natural orbitals and occupation numbers for root  1
      sym 1:   1.995159   1.967646   1.999803   1.999793   1.995020   1.951869   0.053370   0.037340
 
      Natural orbitals and occupation numbers for root  2
      sym 1:   1.966045   1.999631   0.990102   1.999841   1.994679   1.999014   1.011647   0.039041
 
      Natural orbitals and occupation numbers for root  3
      sym 1:   1.999903   1.995443   1.999763   1.011460   1.999204   1.949716   0.054871   0.989641
 
      Natural orbitals and occupation numbers for root  4
      sym 1:   1.989373   1.961385   1.971758   1.998230   1.108810   1.916002   0.116882   0.937560
 
      Natural orbitals and occupation numbers for root  5
      sym 1:   1.974836   1.958198   1.979532   1.997946   1.993899   1.123108   0.907205   0.065275
 
      Natural orbitals and occupation numbers for root  6
      sym 1:   1.999103   1.973027   1.996059   1.990541   1.910834   1.043884   0.119801   0.966751
 
      Natural orbitals and occupation numbers for root  7
      sym 1:   1.996946   1.978929   1.046759   1.993283   1.961201   1.946930   0.074349   1.001602
 
      ************************************************************************************************************************
      *                                                                                                                      *
      *                                                    Final results                                                     *
      *                                                                                                                      *
      ************************************************************************************************************************
 
 
++    Wave function specifications:
      -----------------------------
 
      Number of closed shell electrons          58
      Number of electrons in active shells      12
      Max number of holes in RAS1 space          0
      Max nr of electrons in RAS3 space          0
      Number of inactive orbitals               29
      Number of active orbitals                  8
      Number of secondary orbitals             172
      Spin quantum number                      0.0
      State symmetry                             1
--
 
++    Orbital specifications:
      -----------------------
 
      Symmetry species                           1
                                                 a
      Frozen orbitals                            0
      Inactive orbitals                         29
      Active orbitals                            8
      RAS1 orbitals                              0
      RAS2 orbitals                              8
      RAS3 orbitals                              0
      Secondary orbitals                       172
      Deleted orbitals                           3
      Number of basis functions                212
--
 
++    CI expansion specifications:
      ----------------------------
 
      Number of CSFs                           336
      Number of determinants                   406
      Number of root(s) required                 7
      CI roots used                              1     2     3     4     5     6     7
      weights                                0.143 0.143 0.143 0.143 0.143 0.143 0.143
      highest root included in the CI            7
      Root passed to geometry opt.               7
--
 
++    Final optimization conditions:
      ------------------------------
 
      Average CI energy                            -453.70971040
      RASSCF energy for state  7                   -453.60979876
      Super-CI energy                                -0.00000000
      RASSCF energy change                            0.00000000
      Max change in MO coefficients              -0.262E-04
      Max non-diagonal density matrix element    -0.170E-04
      Maximum BLB matrix element                  0.789E-06
      (orbital pair  37,  39 in symmetry   1)
      Norm of electronic gradient            0.317E+00
--
 
 
      Final state energy(ies):
      ------------------------
 
::    RASSCF root number  1 Total energy:   -453.95987718
::    RASSCF root number  2 Total energy:   -453.75329500
::    RASSCF root number  3 Total energy:   -453.74042529
::    RASSCF root number  4 Total energy:   -453.65283253
::    RASSCF root number  5 Total energy:   -453.63428633
::    RASSCF root number  6 Total energy:   -453.61745768
::    RASSCF root number  7 Total energy:   -453.60979876
 
++    Molecular orbitals:
      -------------------
 
      Pseudonatural active orbitals and approximate occupation numbers
 
 
 
 
      Molecular orbitals for symmetry species 1: a  
 
 
      Orbital                 1         2         3         4         5         6         7         8         9        10
      Energy           -20.6032  -20.5088  -15.6361  -15.5839  -11.3416  -11.2940  -11.2895  -11.2696  -11.2174   -1.4263
      Occ. No.           2.0000    2.0000    2.0000    2.0000    2.0000    2.0000    2.0000    2.0000    2.0000    2.0000
 
     1 C1     1s         0.0000    0.0003   -0.0001    0.0003   -0.0002   -0.0005   -0.0000    0.9999    0.0059   -0.0012
     2 C1     2s         0.0002    0.0005   -0.0007    0.0014   -0.0011   -0.0007   -0.0001    0.0020    0.0004    0.0282
     3 C1     3s         0.0001   -0.0007   -0.0006    0.0006   -0.0008   -0.0006   -0.0001   -0.0003    0.0006    0.0118
     4 C1     4s        -0.0000   -0.0004   -0.0002    0.0001   -0.0002   -0.0002   -0.0001    0.0013    0.0002    0.0049
     5 C1     2px       -0.0004   -0.0010   -0.0003    0.0018    0.0003    0.0000   -0.0002    0.0014    0.0003    0.0168
     6 C1     3px       -0.0008   -0.0007   -0.0003    0.0014    0.0005   -0.0003   -0.0003    0.0013   -0.0002    0.0232
     7 C1     4px       -0.0002    0.0001   -0.0000   -0.0001    0.0001   -0.0003   -0.0001    0.0005   -0.0002    0.0062
     8 C1     2py       -0.0005    0.0028   -0.0003   -0.0000    0.0005    0.0001   -0.0005    0.0007    0.0006    0.0309
     9 C1     3py       -0.0006    0.0019   -0.0004   -0.0002    0.0004   -0.0003   -0.0006    0.0007   -0.0002    0.0318
    10 C1     4py       -0.0001   -0.0003   -0.0000   -0.0001   -0.0001   -0.0003   -0.0001    0.0006   -0.0003    0.0061
    11 C1     2pz        0.0004    0.0004    0.0000   -0.0002    0.0002    0.0000   -0.0001    0.0000    0.0001   -0.0035
    12 C1     3pz        0.0005    0.0002    0.0000   -0.0001    0.0003   -0.0000   -0.0001   -0.0001    0.0001   -0.0056
    13 C1     4pz        0.0001   -0.0001    0.0000    0.0001    0.0001   -0.0000    0.0000   -0.0000   -0.0000   -0.0018
    14 C1     3d2-       0.0000    0.0002    0.0000    0.0001   -0.0001    0.0000    0.0000   -0.0003   -0.0001   -0.0012
    15 C1     3d1-       0.0000   -0.0000    0.0000    0.0000   -0.0000   -0.0000   -0.0000    0.0001    0.0000    0.0004
    16 C1     3d0        0.0000   -0.0000    0.0000    0.0001   -0.0000   -0.0001    0.0000   -0.0003   -0.0001   -0.0023
    17 C1     3d1+      -0.0000    0.0000    0.0000   -0.0000   -0.0000   -0.0000    0.0000   -0.0001   -0.0000   -0.0006
    18 C1     3d2+       0.0000    0.0001    0.0000   -0.0002    0.0000    0.0000   -0.0000   -0.0000    0.0001   -0.0002
    19 C3     1s         0.0001    0.0003    0.0000    0.0005    0.0058    0.9995   -0.0003    0.0004   -0.0001   -0.0120
    20 C3     2s         0.0008    0.0018    0.0003    0.0025   -0.0001   -0.0014    0.0003    0.0002   -0.0007    0.0122
    21 C3     3s         0.0004    0.0012    0.0004    0.0013   -0.0002   -0.0026    0.0001    0.0001   -0.0004   -0.0353
    22 C3     4s        -0.0000    0.0002    0.0001    0.0002    0.0000    0.0007   -0.0000   -0.0001   -0.0000   -0.0054
    23 C3     2px       -0.0008   -0.0006    0.0000   -0.0010    0.0005    0.0000   -0.0005    0.0002   -0.0002    0.0255
    24 C3     3px       -0.0006   -0.0005    0.0000   -0.0004    0.0005   -0.0001   -0.0005    0.0005   -0.0003    0.0314
    25 C3     4px        0.0001    0.0001    0.0000    0.0002   -0.0000   -0.0005   -0.0001    0.0003   -0.0001   -0.0020
    26 C3     2py        0.0011   -0.0002   -0.0008   -0.0006   -0.0001   -0.0002    0.0004   -0.0000    0.0003   -0.0153
    27 C3     3py        0.0010   -0.0002   -0.0008    0.0000   -0.0004   -0.0000    0.0004    0.0000    0.0004   -0.0154
    28 C3     4py       -0.0000   -0.0000   -0.0000    0.0002   -0.0001   -0.0004   -0.0000    0.0000    0.0000    0.0063
    29 C3     2pz        0.0008    0.0005   -0.0004   -0.0002   -0.0003    0.0003   -0.0001   -0.0001    0.0002   -0.0306
    30 C3     3pz        0.0008    0.0006   -0.0003   -0.0003    0.0001    0.0002    0.0001   -0.0004    0.0002   -0.0005
    31 C3     4pz        0.0001    0.0001    0.0001    0.0000    0.0001   -0.0003    0.0001   -0.0002   -0.0000   -0.0027
    32 C3     3d2-      -0.0001    0.0000   -0.0000    0.0000    0.0001   -0.0001   -0.0000    0.0001   -0.0000    0.0036
    33 C3     3d1-       0.0000    0.0000    0.0000    0.0000   -0.0001    0.0001   -0.0001    0.0000    0.0000   -0.0032
    34 C3     3d0       -0.0001    0.0000    0.0000    0.0001    0.0000   -0.0000    0.0000   -0.0000    0.0000    0.0035
    35 C3     3d1+      -0.0000   -0.0000   -0.0000    0.0000    0.0000   -0.0001    0.0000   -0.0000   -0.0000    0.0010
    36 C3     3d2+      -0.0001   -0.0000   -0.0000    0.0000    0.0001    0.0001   -0.0000    0.0000   -0.0000    0.0024
    37 C4     1s         0.0004   -0.0001    0.0004   -0.0001    1.0000   -0.0058    0.0002   -0.0000    0.0001   -0.0404
    38 C4     2s         0.0013   -0.0007    0.0018   -0.0009    0.0025    0.0009   -0.0003   -0.0004    0.0004    0.3432
    39 C4     3s        -0.0002   -0.0005    0.0009   -0.0005   -0.0000    0.0003   -0.0003   -0.0004    0.0004   -0.0160
    40 C4     4s        -0.0003   -0.0001    0.0002   -0.0001    0.0012    0.0000   -0.0001   -0.0002    0.0001   -0.0002
    41 C4     2px        0.0008    0.0005   -0.0010    0.0003   -0.0006    0.0005    0.0001   -0.0002    0.0000    0.0195
    42 C4     3px        0.0006    0.0007   -0.0007    0.0002   -0.0008    0.0003    0.0003   -0.0004   -0.0000   -0.0148
    43 C4     4px       -0.0001    0.0001    0.0001   -0.0001   -0.0003   -0.0000    0.0002   -0.0001   -0.0000    0.0067
    44 C4     2py       -0.0016    0.0001    0.0016    0.0000    0.0012   -0.0008   -0.0002    0.0002   -0.0005   -0.0051
    45 C4     3py       -0.0015   -0.0000    0.0012    0.0001    0.0010   -0.0002   -0.0007    0.0003   -0.0006    0.0338
    46 C4     4py       -0.0000   -0.0001   -0.0001    0.0001    0.0004    0.0002   -0.0004    0.0001   -0.0001   -0.0036
    47 C4     2pz       -0.0032   -0.0000    0.0004   -0.0002   -0.0007    0.0011   -0.0001    0.0002    0.0000   -0.1094
    48 C4     3pz       -0.0022   -0.0001    0.0005    0.0002   -0.0004    0.0006    0.0004    0.0004    0.0001    0.0555
    49 C4     4pz        0.0004   -0.0000    0.0001    0.0002   -0.0006   -0.0000    0.0004    0.0001    0.0000   -0.0288
    50 C4     3d2-      -0.0000   -0.0000    0.0001    0.0001   -0.0003    0.0001   -0.0001    0.0000   -0.0000   -0.0129
    51 C4     3d1-      -0.0001    0.0000   -0.0002    0.0000    0.0003   -0.0001    0.0000   -0.0000    0.0000    0.0228
    52 C4     3d0       -0.0001   -0.0000    0.0001    0.0000    0.0003    0.0000   -0.0000   -0.0000    0.0000    0.0308
    53 C4     3d1+       0.0001    0.0000    0.0001    0.0000   -0.0003    0.0000   -0.0000    0.0000   -0.0000   -0.0182
    54 C4     3d2+      -0.0001    0.0000    0.0001   -0.0000   -0.0002    0.0000   -0.0001    0.0000   -0.0000   -0.0057
    55 C6     1s         0.0001    0.0001    0.0003   -0.0001   -0.0002    0.0004    0.9997    0.0000   -0.0000   -0.0071
    56 C6     2s         0.0005    0.0004    0.0013   -0.0004    0.0001    0.0001   -0.0001    0.0000   -0.0002    0.0275
    57 C6     3s         0.0003    0.0004    0.0003   -0.0002   -0.0002    0.0001   -0.0017   -0.0001   -0.0001   -0.0084
    58 C6     4s         0.0001    0.0001   -0.0001   -0.0001   -0.0002   -0.0000    0.0009   -0.0001   -0.0000    0.0002
    59 C6     2px        0.0003    0.0001    0.0001   -0.0000   -0.0002    0.0000    0.0000    0.0000   -0.0000    0.0044
    60 C6     3px        0.0003    0.0001   -0.0001   -0.0000   -0.0003   -0.0000   -0.0000    0.0000    0.0000   -0.0059
    61 C6     4px       -0.0000   -0.0000   -0.0001   -0.0000   -0.0001   -0.0000    0.0003   -0.0000    0.0000    0.0012
    62 C6     2py        0.0001   -0.0002   -0.0003   -0.0001    0.0004   -0.0001    0.0001    0.0001    0.0001   -0.0212
    63 C6     3py        0.0001   -0.0002    0.0001   -0.0001    0.0006   -0.0001    0.0001    0.0001    0.0001   -0.0034
    64 C6     4py        0.0000    0.0000    0.0002   -0.0000    0.0002    0.0000   -0.0005    0.0000   -0.0000   -0.0016
    65 C6     2pz        0.0002    0.0001    0.0004   -0.0002   -0.0001    0.0001    0.0001   -0.0000    0.0001    0.0086
    66 C6     3pz        0.0002    0.0001   -0.0000   -0.0001   -0.0000    0.0001   -0.0002   -0.0001    0.0001   -0.0049
    67 C6     4pz        0.0000    0.0000   -0.0002    0.0000    0.0001   -0.0000    0.0005   -0.0000    0.0000    0.0018
    68 C6     3d2-      -0.0000   -0.0000    0.0001   -0.0000   -0.0001   -0.0000    0.0000    0.0000    0.0000   -0.0020
    69 C6     3d1-      -0.0000   -0.0000    0.0000    0.0000   -0.0000   -0.0000    0.0001    0.0000   -0.0000   -0.0035
    70 C6     3d0        0.0000    0.0000   -0.0001    0.0000   -0.0000    0.0000   -0.0001   -0.0000   -0.0000    0.0010
    71 C6     3d1+       0.0000   -0.0000   -0.0000   -0.0000   -0.0000    0.0000   -0.0000   -0.0000    0.0000    0.0015
    72 C6     3d2+      -0.0000   -0.0000   -0.0000    0.0000   -0.0000   -0.0000   -0.0000   -0.0000   -0.0000   -0.0007
    73 C19    1s         0.0000    0.0001   -0.0000   -0.0001    0.0001    0.0001   -0.0000    0.0058   -1.0000    0.0002
    74 C19    2s         0.0001    0.0009   -0.0003   -0.0004    0.0009    0.0005   -0.0002    0.0003   -0.0020    0.0064
    75 C19    3s         0.0000    0.0005   -0.0003   -0.0002    0.0006    0.0002   -0.0002   -0.0000    0.0004    0.0061
    76 C19    4s        -0.0000    0.0000   -0.0001   -0.0001    0.0001   -0.0000   -0.0001    0.0000   -0.0012    0.0033
    77 C19    2px        0.0000    0.0008   -0.0000   -0.0004    0.0000    0.0002   -0.0001   -0.0003    0.0002   -0.0000
    78 C19    3px        0.0001    0.0005   -0.0000   -0.0004   -0.0000    0.0002   -0.0001   -0.0005    0.0001   -0.0015
    79 C19    4px        0.0000   -0.0002    0.0000    0.0000   -0.0001    0.0000    0.0000   -0.0001   -0.0002   -0.0002
    80 C19    2py       -0.0001   -0.0002   -0.0001    0.0003    0.0004    0.0002   -0.0001    0.0003    0.0004    0.0066
    81 C19    3py       -0.0001   -0.0003   -0.0001    0.0003    0.0002    0.0001   -0.0001   -0.0001    0.0000    0.0048
    82 C19    4py       -0.0000   -0.0001    0.0000   -0.0000   -0.0001   -0.0001    0.0000   -0.0001   -0.0003    0.0002
    83 C19    2pz       -0.0003    0.0001   -0.0000    0.0002    0.0001    0.0001    0.0000    0.0003   -0.0000    0.0056
    84 C19    3pz       -0.0003    0.0001   -0.0001    0.0002    0.0000    0.0001    0.0000    0.0002   -0.0001    0.0063
    85 C19    4pz       -0.0000   -0.0000   -0.0000   -0.0000   -0.0000   -0.0000    0.0000    0.0000   -0.0000    0.0006
    86 C19    3d2-      -0.0000    0.0000   -0.0000   -0.0000    0.0000    0.0001   -0.0000    0.0000    0.0001    0.0003
    87 C19    3d1-      -0.0000   -0.0000    0.0000    0.0000   -0.0000    0.0000    0.0000   -0.0000    0.0000    0.0001
    88 C19    3d0        0.0000   -0.0001    0.0000   -0.0001   -0.0000   -0.0000    0.0000    0.0001   -0.0001    0.0001
    89 C19    3d1+       0.0000   -0.0000    0.0000   -0.0000   -0.0000   -0.0000    0.0000    0.0000    0.0000   -0.0000
    90 C19    3d2+       0.0000    0.0001    0.0000   -0.0000   -0.0000   -0.0000    0.0000   -0.0001   -0.0001   -0.0002
    91 N2     1s         0.0000   -0.0000    0.0000    0.9997    0.0000    0.0001    0.0000   -0.0003   -0.0001   -0.0029
    92 N2     2s         0.0001   -0.0002    0.0000   -0.0007    0.0004    0.0016    0.0000   -0.0006   -0.0004    0.0294
    93 N2     3s         0.0001   -0.0001    0.0000   -0.0019    0.0004    0.0008    0.0000   -0.0006   -0.0003   -0.0035
    94 N2     4s         0.0000   -0.0000    0.0000    0.0003    0.0001    0.0003   -0.0000   -0.0000   -0.0001   -0.0008
    95 N2     2px        0.0004    0.0000   -0.0004    0.0005   -0.0001    0.0006    0.0001   -0.0003    0.0004   -0.0055
    96 N2     3px        0.0007   -0.0001   -0.0006    0.0003   -0.0002    0.0003    0.0002   -0.0002    0.0004   -0.0081
    97 N2     4px        0.0001   -0.0000   -0.0001   -0.0002   -0.0000   -0.0001    0.0000   -0.0003   -0.0001   -0.0006
    98 N2     2py       -0.0001   -0.0015   -0.0001   -0.0008    0.0003    0.0007    0.0000    0.0001    0.0001    0.0068
    99 N2     3py       -0.0002   -0.0017   -0.0001   -0.0002    0.0002    0.0006    0.0000    0.0002    0.0001   -0.0052
   100 N2     4py        0.0000    0.0000    0.0000    0.0007   -0.0001    0.0001    0.0000    0.0000   -0.0001   -0.0019
   101 N2     2pz        0.0000   -0.0003    0.0000   -0.0004   -0.0001   -0.0002    0.0000   -0.0001    0.0001   -0.0063
   102 N2     3pz       -0.0000   -0.0004   -0.0000    0.0000   -0.0002   -0.0001    0.0001   -0.0002    0.0002   -0.0024
   103 N2     4pz       -0.0000   -0.0000   -0.0000   -0.0004   -0.0000    0.0000    0.0000   -0.0001    0.0000   -0.0007
   104 N2     3d2-      -0.0000    0.0001   -0.0000   -0.0002    0.0000   -0.0000    0.0000   -0.0001    0.0000    0.0001
   105 N2     3d1-       0.0000    0.0000    0.0000    0.0001   -0.0000   -0.0000    0.0000   -0.0000   -0.0000   -0.0008
   106 N2     3d0        0.0000   -0.0000    0.0000    0.0001   -0.0000    0.0001   -0.0000    0.0001    0.0001   -0.0007
   107 N2     3d1+       0.0000    0.0000    0.0000   -0.0000   -0.0000    0.0000   -0.0000    0.0000    0.0000   -0.0003
   108 N2     3d2+       0.0000   -0.0000   -0.0000    0.0000   -0.0000   -0.0000    0.0000    0.0001   -0.0000    0.0002
   109 N5     1s         0.0001   -0.0000    0.9998    0.0000   -0.0003    0.0000    0.0001   -0.0000    0.0000   -0.0177
   110 N5     2s         0.0009   -0.0001   -0.0002    0.0003   -0.0005    0.0002    0.0016   -0.0002    0.0001    0.1124
   111 N5     3s         0.0006   -0.0000   -0.0015    0.0001   -0.0005    0.0002    0.0009   -0.0002    0.0001   -0.0454
   112 N5     4s         0.0001    0.0000    0.0004    0.0000   -0.0000   -0.0000    0.0004   -0.0001    0.0000   -0.0105
   113 N5     2px        0.0000   -0.0000   -0.0005   -0.0000    0.0001    0.0001   -0.0005    0.0001    0.0001    0.0126
   114 N5     3px        0.0001   -0.0000   -0.0001   -0.0001   -0.0000    0.0000   -0.0004    0.0000    0.0001   -0.0037
   115 N5     4px        0.0000   -0.0000   -0.0001   -0.0001    0.0001   -0.0001   -0.0000   -0.0000    0.0000    0.0027
   116 N5     2py       -0.0003   -0.0001   -0.0000   -0.0001   -0.0001   -0.0003    0.0006    0.0001    0.0000   -0.0171
   117 N5     3py       -0.0002   -0.0002    0.0001    0.0001   -0.0002   -0.0002    0.0003    0.0001    0.0001    0.0242
   118 N5     4py        0.0001   -0.0000   -0.0004    0.0001   -0.0003    0.0001   -0.0001    0.0000    0.0000   -0.0048
   119 N5     2pz        0.0012    0.0001    0.0008   -0.0002   -0.0001   -0.0000   -0.0006   -0.0001   -0.0001   -0.0357
   120 N5     3pz        0.0013    0.0003    0.0005   -0.0003    0.0002   -0.0001   -0.0007   -0.0000   -0.0002   -0.0047
   121 N5     4pz       -0.0000    0.0001   -0.0005    0.0000    0.0001   -0.0000   -0.0002    0.0000   -0.0000    0.0044
   122 N5     3d2-      -0.0000    0.0000    0.0000   -0.0000    0.0001   -0.0001    0.0001   -0.0000    0.0000   -0.0034
   123 N5     3d1-      -0.0001   -0.0000    0.0001    0.0000    0.0001    0.0000    0.0000    0.0000   -0.0000    0.0045
   124 N5     3d0        0.0000   -0.0000    0.0001   -0.0000   -0.0001    0.0000   -0.0000   -0.0000    0.0000   -0.0012
   125 N5     3d1+       0.0000    0.0000   -0.0002    0.0000   -0.0000   -0.0000   -0.0000    0.0000    0.0000   -0.0020
   126 N5     3d2+      -0.0000    0.0000    0.0000   -0.0000    0.0001   -0.0000    0.0000    0.0000    0.0000   -0.0018
   127 O7     1s         0.0000    0.9997    0.0000    0.0000   -0.0000   -0.0000    0.0000   -0.0002   -0.0001   -0.0024
   128 O7     2s         0.0004   -0.0011    0.0001    0.0001   -0.0001   -0.0000    0.0002    0.0006   -0.0004    0.0151
   129 O7     3s         0.0003   -0.0012    0.0000    0.0001   -0.0000    0.0001    0.0001    0.0000   -0.0003   -0.0070
   130 O7     4s         0.0001    0.0002   -0.0000   -0.0000    0.0000    0.0000    0.0000    0.0000   -0.0001   -0.0018
   131 O7     2px        0.0002    0.0002   -0.0000   -0.0004   -0.0001   -0.0000    0.0000    0.0004   -0.0001    0.0034
   132 O7     3px        0.0002   -0.0003   -0.0001   -0.0005   -0.0001    0.0000    0.0000   -0.0001   -0.0001   -0.0015
   133 O7     4px        0.0000    0.0008   -0.0000   -0.0001   -0.0000    0.0000    0.0000    0.0000    0.0000    0.0005
   134 O7     2py        0.0001   -0.0003   -0.0001   -0.0002   -0.0001   -0.0000   -0.0000   -0.0007    0.0002   -0.0017
   135 O7     3py        0.0002    0.0004   -0.0001   -0.0002   -0.0002   -0.0000   -0.0001   -0.0004    0.0002    0.0025
   136 O7     4py        0.0001   -0.0011   -0.0000    0.0000   -0.0001   -0.0000   -0.0000   -0.0003   -0.0000   -0.0002
   137 O7     2pz       -0.0001   -0.0001    0.0001   -0.0000    0.0000    0.0000    0.0001   -0.0000    0.0000   -0.0026
   138 O7     3pz       -0.0002   -0.0000    0.0001    0.0000    0.0001   -0.0000    0.0002   -0.0000    0.0000   -0.0005
   139 O7     4pz       -0.0000   -0.0002    0.0000    0.0000    0.0000   -0.0000    0.0001   -0.0000   -0.0000   -0.0007
   140 O7     3d2-      -0.0000    0.0001   -0.0000    0.0000    0.0000    0.0000   -0.0000   -0.0002    0.0000   -0.0005
   141 O7     3d1-       0.0000   -0.0000    0.0000    0.0000   -0.0000    0.0000    0.0000    0.0000   -0.0000    0.0002
   142 O7     3d0        0.0000   -0.0000    0.0000   -0.0000   -0.0000   -0.0000    0.0000   -0.0001    0.0000   -0.0006
   143 O7     3d1+      -0.0000   -0.0000    0.0000    0.0000   -0.0000   -0.0000    0.0000   -0.0000    0.0000   -0.0002
   144 O7     3d2+       0.0000    0.0000    0.0000   -0.0001    0.0000    0.0000    0.0000   -0.0001    0.0000   -0.0001
   145 O8     1s         0.9996    0.0001    0.0000   -0.0000   -0.0003    0.0000   -0.0001    0.0000   -0.0000   -0.0231
   146 O8     2s        -0.0019    0.0003    0.0002   -0.0003    0.0004    0.0001   -0.0003    0.0001   -0.0002    0.6961
   147 O8     3s        -0.0017    0.0002    0.0001   -0.0003   -0.0000    0.0002   -0.0002    0.0001   -0.0002   -0.0307
   148 O8     4s        -0.0001    0.0001   -0.0000   -0.0001    0.0000    0.0001   -0.0000    0.0000   -0.0001   -0.0128
   149 O8     2px       -0.0001   -0.0001    0.0002    0.0000   -0.0000   -0.0001    0.0001    0.0001    0.0000   -0.0377
   150 O8     3px        0.0001   -0.0002    0.0003    0.0000    0.0001   -0.0001    0.0000    0.0002    0.0000    0.0108
   151 O8     4px       -0.0004   -0.0000    0.0001   -0.0000   -0.0000   -0.0000   -0.0000    0.0001   -0.0000    0.0004
   152 O8     2py        0.0001   -0.0000   -0.0003    0.0001    0.0003    0.0001   -0.0001    0.0001    0.0000    0.0574
   153 O8     3py       -0.0001   -0.0001   -0.0004    0.0001   -0.0000    0.0001   -0.0000    0.0002    0.0000   -0.0182
   154 O8     4py        0.0005   -0.0000   -0.0001    0.0000    0.0000    0.0000    0.0000    0.0001    0.0000   -0.0019
   155 O8     2pz        0.0002    0.0001    0.0001   -0.0003    0.0006    0.0000   -0.0001   -0.0001   -0.0000    0.1331
   156 O8     3pz       -0.0005    0.0001   -0.0000   -0.0003    0.0003   -0.0000   -0.0001   -0.0002    0.0000   -0.0382
   157 O8     4pz        0.0013   -0.0000   -0.0001   -0.0000    0.0003   -0.0001    0.0000   -0.0001    0.0000   -0.0004
   158 O8     3d2-      -0.0000   -0.0000   -0.0000   -0.0000    0.0000   -0.0000   -0.0000   -0.0000   -0.0000   -0.0034
   159 O8     3d1-      -0.0001    0.0000   -0.0000    0.0000    0.0001   -0.0000   -0.0000    0.0000    0.0000    0.0126
   160 O8     3d0       -0.0000    0.0000    0.0001   -0.0000    0.0001    0.0000    0.0000   -0.0000    0.0000    0.0154
   161 O8     3d1+       0.0000   -0.0000    0.0000    0.0000   -0.0001    0.0000    0.0000    0.0000   -0.0000   -0.0089
   162 O8     3d2+      -0.0000    0.0000   -0.0000    0.0000    0.0000   -0.0000   -0.0000    0.0000   -0.0000   -0.0011
   163 H9     1s        -0.0004    0.0003    0.0000    0.0003    0.0001   -0.0000   -0.0001    0.0002   -0.0003    0.0097
   164 H9     2s        -0.0002    0.0002    0.0000    0.0001    0.0001   -0.0000   -0.0001    0.0002    0.0002    0.0065
   165 H9     2px       -0.0000   -0.0000    0.0000    0.0000    0.0000   -0.0000   -0.0000    0.0000    0.0000    0.0007
   166 H9     2py        0.0000   -0.0000    0.0000   -0.0000    0.0000   -0.0000    0.0000    0.0000   -0.0000   -0.0002
   167 H9     2pz       -0.0000    0.0000    0.0000    0.0000    0.0000   -0.0000   -0.0000    0.0000    0.0001    0.0008
   168 H10    1s        -0.0001    0.0002    0.0000   -0.0001   -0.0001   -0.0002   -0.0002   -0.0001   -0.0003    0.0060
   169 H10    2s        -0.0001    0.0001    0.0000   -0.0000   -0.0001   -0.0002   -0.0001   -0.0001    0.0003    0.0045
   170 H10    2px       -0.0000   -0.0000   -0.0000    0.0000   -0.0000   -0.0000   -0.0000    0.0000    0.0000    0.0006
   171 H10    2py       -0.0000   -0.0000   -0.0000   -0.0000   -0.0000   -0.0000   -0.0000    0.0001   -0.0000    0.0006
   172 H10    2pz        0.0000   -0.0000    0.0000    0.0000    0.0000    0.0000    0.0000   -0.0000   -0.0001   -0.0006
   173 H11    1s        -0.0002   -0.0005   -0.0001    0.0005    0.0001    0.0000   -0.0000    0.0003   -0.0002    0.0084
   174 H11    2s        -0.0001   -0.0002   -0.0000    0.0004    0.0001    0.0000   -0.0000    0.0002    0.0003    0.0054
   175 H11    2px        0.0000   -0.0000   -0.0000   -0.0000   -0.0000    0.0000    0.0000   -0.0000   -0.0001   -0.0007
   176 H11    2py       -0.0000   -0.0000   -0.0000    0.0000    0.0000    0.0000   -0.0000    0.0001    0.0001    0.0007
   177 H11    2pz        0.0000    0.0000    0.0000   -0.0000   -0.0000   -0.0000    0.0000   -0.0000   -0.0000   -0.0004
   178 H12    1s         0.0001   -0.0009   -0.0001   -0.0008    0.0001   -0.0003   -0.0000    0.0001    0.0004    0.0052
   179 H12    2s         0.0000   -0.0005   -0.0000   -0.0005    0.0001   -0.0001   -0.0000   -0.0001    0.0002   -0.0022
   180 H12    2px       -0.0000    0.0000    0.0000    0.0002   -0.0000    0.0000    0.0000   -0.0001   -0.0000   -0.0005
   181 H12    2py        0.0000   -0.0000   -0.0000   -0.0004   -0.0000    0.0000   -0.0000    0.0000    0.0000    0.0015
   182 H12    2pz       -0.0000   -0.0001   -0.0000   -0.0002    0.0001   -0.0000   -0.0000    0.0001   -0.0000    0.0005
   183 H13    1s        -0.0009   -0.0008    0.0005   -0.0007    0.0002    0.0009   -0.0001   -0.0005   -0.0002    0.0343
   184 H13    2s        -0.0005   -0.0005    0.0003   -0.0004    0.0000    0.0001   -0.0001   -0.0003   -0.0001    0.0130
   185 H13    2px        0.0000    0.0001    0.0000    0.0001   -0.0000   -0.0000    0.0000    0.0000    0.0000   -0.0014
   186 H13    2py        0.0000    0.0001   -0.0001    0.0000   -0.0000   -0.0000   -0.0000    0.0001    0.0000   -0.0003
   187 H13    2pz        0.0001    0.0001   -0.0000    0.0000   -0.0001   -0.0000   -0.0000    0.0001    0.0000   -0.0025
   188 H14    1s         0.0004    0.0002    0.0001   -0.0002   -0.0002    0.0008    0.0002   -0.0002    0.0003   -0.0059
   189 H14    2s         0.0002    0.0001    0.0001   -0.0001   -0.0001    0.0001    0.0001   -0.0002    0.0002   -0.0113
   190 H14    2px       -0.0000   -0.0000   -0.0000   -0.0000   -0.0000   -0.0000   -0.0000   -0.0000   -0.0000    0.0004
   191 H14    2py       -0.0000    0.0000    0.0001    0.0000    0.0000   -0.0000   -0.0000   -0.0000   -0.0000    0.0005
   192 H14    2pz        0.0001   -0.0000    0.0000    0.0000   -0.0000   -0.0000    0.0000    0.0000    0.0000   -0.0013
   193 H15    1s        -0.0008    0.0000   -0.0008    0.0002    0.0001   -0.0001   -0.0003    0.0001    0.0001    0.0355
   194 H15    2s        -0.0004    0.0000   -0.0006    0.0001   -0.0001   -0.0000   -0.0001    0.0000    0.0001   -0.0035
   195 H15    2px       -0.0001    0.0000   -0.0003    0.0000    0.0001   -0.0000   -0.0000   -0.0000   -0.0000    0.0032
   196 H15    2py       -0.0000    0.0000   -0.0000    0.0000   -0.0001   -0.0000    0.0000    0.0000    0.0000   -0.0013
   197 H15    2pz        0.0000   -0.0001    0.0004   -0.0000   -0.0001    0.0000   -0.0000   -0.0000   -0.0000   -0.0045
   198 H16    1s         0.0000   -0.0001   -0.0001   -0.0001   -0.0002    0.0001    0.0010   -0.0000    0.0002    0.0085
   199 H16    2s         0.0001   -0.0000    0.0000   -0.0001   -0.0001    0.0001    0.0001    0.0000    0.0001   -0.0047
   200 H16    2px       -0.0000    0.0000   -0.0000    0.0000    0.0000   -0.0000   -0.0000   -0.0000   -0.0000    0.0005
   201 H16    2py       -0.0000   -0.0000    0.0000    0.0000   -0.0000   -0.0000    0.0000   -0.0000    0.0000   -0.0005
   202 H16    2pz        0.0000   -0.0000    0.0000   -0.0000   -0.0000    0.0000    0.0001   -0.0000    0.0000    0.0007
   203 H17    1s         0.0005    0.0001   -0.0006    0.0000   -0.0004   -0.0000    0.0007    0.0000    0.0000    0.0027
   204 H17    2s         0.0004    0.0001   -0.0002    0.0000   -0.0003   -0.0000   -0.0000   -0.0000    0.0000   -0.0032
   205 H17    2px        0.0000    0.0000   -0.0000    0.0000   -0.0001    0.0000    0.0001   -0.0000   -0.0000    0.0006
   206 H17    2py       -0.0000    0.0000    0.0000    0.0000    0.0000    0.0000   -0.0000   -0.0000   -0.0000   -0.0001
   207 H17    2pz        0.0000    0.0000   -0.0000    0.0000   -0.0000   -0.0000    0.0000   -0.0000   -0.0000    0.0007
   208 H18    1s        -0.0001    0.0001   -0.0003    0.0002   -0.0004    0.0001    0.0006   -0.0002   -0.0001    0.0127
   209 H18    2s        -0.0001    0.0000   -0.0001    0.0001   -0.0003    0.0001   -0.0001   -0.0001   -0.0001    0.0035
   210 H18    2px        0.0000   -0.0000   -0.0000   -0.0000    0.0000   -0.0000    0.0000    0.0000    0.0000    0.0000
   211 H18    2py        0.0000   -0.0000    0.0000   -0.0000    0.0001   -0.0000   -0.0000    0.0000    0.0000   -0.0015
   212 H18    2pz       -0.0000   -0.0000   -0.0000   -0.0000    0.0000   -0.0000    0.0000    0.0000   -0.0000   -0.0000
 
 
      Orbital                11        12        13        14        15        16        17        18        19        20
      Energy            -1.3505   -1.2589   -1.2128   -1.0132   -0.9661   -0.9192   -0.8158   -0.7697   -0.7181   -0.6877
      Occ. No.           2.0000    2.0000    2.0000    2.0000    2.0000    2.0000    2.0000    2.0000    2.0000    2.0000
 
     1 C1     1s        -0.0393    0.0043   -0.0034   -0.0139    0.0084    0.0039    0.0055   -0.0146    0.0004    0.0042
     2 C1     2s         0.3616    0.0064    0.0918    0.1786   -0.1985    0.0129   -0.1080    0.3630   -0.0051   -0.0620
     3 C1     3s        -0.0038    0.0191    0.0081   -0.0193    0.0024    0.0156    0.0005   -0.0022    0.0030    0.0128
     4 C1     4s         0.0028    0.0055    0.0021   -0.0057    0.0015    0.0059    0.0003   -0.0030    0.0004    0.0033
     5 C1     2px       -0.0369    0.0233    0.1334    0.0311    0.0402   -0.1093   -0.0590    0.1572    0.0023    0.0274
     6 C1     3px        0.0107    0.0114   -0.0514   -0.0405    0.0208    0.0345    0.0099   -0.0288    0.0025   -0.0039
     7 C1     4px       -0.0127    0.0048    0.0242   -0.0010    0.0119   -0.0133   -0.0057    0.0111    0.0012    0.0026
     8 C1     2py        0.0930    0.0235   -0.0461   -0.0999    0.1256   -0.0280    0.0080    0.0212   -0.0396   -0.0351
     9 C1     3py       -0.0649    0.0479    0.0474   -0.0050   -0.0224    0.0621    0.0178   -0.0071    0.0173    0.0228
    10 C1     4py        0.0220    0.0072   -0.0074   -0.0172    0.0203   -0.0009    0.0022    0.0034   -0.0009   -0.0009
    11 C1     2pz        0.0193    0.0018   -0.0164   -0.0060    0.0152   -0.0000    0.0115    0.0006   -0.0278   -0.0112
    12 C1     3pz       -0.0066    0.0057    0.0095    0.0072   -0.0069    0.0085    0.0067    0.0056    0.0020    0.0051
    13 C1     4pz        0.0053    0.0003   -0.0015   -0.0005    0.0004    0.0009    0.0026    0.0018   -0.0039   -0.0009
    14 C1     3d2-      -0.0286    0.0031    0.0147    0.0032   -0.0093    0.0099    0.0013    0.0130   -0.0078   -0.0046
    15 C1     3d1-       0.0099   -0.0011   -0.0039    0.0011   -0.0016    0.0013   -0.0001    0.0006   -0.0001   -0.0008
    16 C1     3d0       -0.0262    0.0007   -0.0040   -0.0083    0.0065    0.0021    0.0050   -0.0134    0.0008    0.0020
    17 C1     3d1+      -0.0066   -0.0002   -0.0008   -0.0002   -0.0011    0.0014    0.0013    0.0016   -0.0054   -0.0011
    18 C1     3d2+      -0.0096    0.0025    0.0279    0.0082    0.0039   -0.0154   -0.0054    0.0126   -0.0009    0.0011
    19 C3     1s        -0.0122   -0.0066   -0.0331    0.0362   -0.0063   -0.0244   -0.0075   -0.0022    0.0054    0.0025
    20 C3     2s         0.0278    0.0384    0.1943   -0.3175    0.1095    0.3703    0.0914    0.0671   -0.0919   -0.0323
    21 C3     3s        -0.0259   -0.0166   -0.0638    0.0664   -0.0021   -0.0202   -0.0133   -0.0034    0.0049    0.0068
    22 C3     4s        -0.0042   -0.0029   -0.0153    0.0181   -0.0023   -0.0065   -0.0044   -0.0020    0.0012    0.0016
    23 C3     2px       -0.0219   -0.0017   -0.0333   -0.0120    0.0232    0.0724    0.0369   -0.0812    0.0180   -0.0454
    24 C3     3px        0.0019    0.0199    0.0352   -0.0280    0.0322    0.0335   -0.0047    0.0065   -0.0025    0.0001
    25 C3     4px       -0.0018    0.0034    0.0053   -0.0125    0.0095    0.0161    0.0045   -0.0037   -0.0012    0.0001
    26 C3     2py       -0.0176    0.0217   -0.0997   -0.0580   -0.0693    0.0260   -0.0737    0.1689    0.0873    0.1473
    27 C3     3py        0.0081    0.0064   -0.0010    0.0040    0.0040   -0.0353    0.0074    0.0052   -0.0221   -0.0149
    28 C3     4py       -0.0027    0.0019   -0.0094   -0.0044   -0.0048   -0.0009   -0.0006    0.0115    0.0010    0.0017
    29 C3     2pz        0.0042   -0.0042    0.0092    0.0304    0.0099   -0.0177    0.0743    0.0115   -0.2868   -0.0049
    30 C3     3pz        0.0039    0.0007    0.0204   -0.0288   -0.0186    0.0123   -0.0074   -0.0018    0.0282    0.0025
    31 C3     4pz        0.0019   -0.0016    0.0087   -0.0101    0.0030    0.0108    0.0107    0.0047   -0.0070    0.0005
    32 C3     3d2-       0.0049   -0.0016    0.0163    0.0064    0.0067   -0.0073    0.0023    0.0004   -0.0096   -0.0123
    33 C3     3d1-      -0.0009   -0.0034   -0.0032    0.0087    0.0035   -0.0018    0.0080   -0.0010   -0.0155   -0.0017
    34 C3     3d0       -0.0032   -0.0043   -0.0094   -0.0040   -0.0057    0.0048   -0.0063    0.0132    0.0149    0.0053
    35 C3     3d1+       0.0002    0.0023    0.0010   -0.0037   -0.0033    0.0002   -0.0051   -0.0004    0.0128    0.0048
    36 C3     3d2+      -0.0021   -0.0023   -0.0113    0.0018   -0.0021    0.0032   -0.0012    0.0111    0.0018   -0.0066
    37 C4     1s         0.0031   -0.0079    0.0027    0.0163    0.0094    0.0007    0.0173    0.0005   -0.0058    0.0013
    38 C4     2s         0.0117    0.1446    0.0424   -0.2348   -0.1430    0.0644   -0.3727   -0.0337    0.2347   -0.0067
    39 C4     3s         0.0142    0.0020    0.0122    0.0317    0.0060    0.0070    0.0196   -0.0043   -0.0102    0.0135
    40 C4     4s         0.0043    0.0002    0.0029    0.0106    0.0013    0.0018    0.0060   -0.0018   -0.0050    0.0010
    41 C4     2px       -0.0076   -0.0808    0.0164   -0.0157    0.0221    0.0487    0.0341    0.0288    0.1224   -0.0873
    42 C4     3px       -0.0034    0.0139    0.0044   -0.0202   -0.0315   -0.0339   -0.0148   -0.0190   -0.0406    0.0202
    43 C4     4px       -0.0008   -0.0138    0.0036   -0.0053    0.0006    0.0028    0.0029    0.0001    0.0056   -0.0070
    44 C4     2py       -0.0181    0.1348   -0.0520    0.0088   -0.0272   -0.0789   -0.1144   -0.0690   -0.2107    0.1415
    45 C4     3py       -0.0238   -0.0105   -0.0171    0.0051    0.0847    0.0615    0.0068    0.0326    0.0811   -0.0214
    46 C4     4py       -0.0037    0.0278   -0.0088    0.0024    0.0066   -0.0032   -0.0107   -0.0021   -0.0095    0.0131
    47 C4     2pz        0.0174    0.0507    0.0283   -0.1312   -0.0618    0.0336    0.0193    0.0676    0.0371    0.2267
    48 C4     3pz       -0.0099   -0.0777   -0.0260    0.0323   -0.0359   -0.0759   -0.0058   -0.0400   -0.0064   -0.0897
    49 C4     4pz        0.0022    0.0037    0.0014   -0.0148   -0.0122   -0.0093    0.0024    0.0000   -0.0047    0.0108
    50 C4     3d2-      -0.0001   -0.0179    0.0007    0.0088    0.0096    0.0045    0.0120    0.0067    0.0038   -0.0044
    51 C4     3d1-      -0.0028   -0.0032   -0.0061    0.0053   -0.0081   -0.0146    0.0071   -0.0005    0.0053    0.0008
    52 C4     3d0       -0.0020   -0.0233    0.0023   -0.0026    0.0045    0.0104    0.0030    0.0111    0.0210   -0.0129
    53 C4     3d1+       0.0005    0.0039    0.0013   -0.0034    0.0034    0.0095   -0.0027    0.0003   -0.0043    0.0030
    54 C4     3d2+      -0.0006   -0.0110   -0.0010    0.0054    0.0062    0.0029    0.0129    0.0053    0.0080   -0.0034
    55 C6     1s         0.0004   -0.0321    0.0096   -0.0373   -0.0369   -0.0260    0.0088   -0.0050   -0.0060   -0.0056
    56 C6     2s         0.0058    0.1630    0.0004    0.2336    0.3021    0.2589   -0.1011    0.0186    0.0450    0.0770
    57 C6     3s         0.0049   -0.0508    0.0327   -0.0687   -0.0636   -0.0388    0.0200   -0.0179   -0.0174   -0.0164
    58 C6     4s         0.0021   -0.0082    0.0084   -0.0136   -0.0140   -0.0080    0.0054   -0.0049   -0.0044   -0.0057
    59 C6     2px       -0.0010    0.0344   -0.0032    0.0108    0.0009   -0.0116   -0.0329   -0.0462   -0.1313   -0.1005
    60 C6     3px        0.0011   -0.0103    0.0052   -0.0065   -0.0038    0.0008   -0.0020    0.0017    0.0128    0.0162
    61 C6     4px        0.0015   -0.0009    0.0012   -0.0039   -0.0072   -0.0045   -0.0006   -0.0027   -0.0060   -0.0057
    62 C6     2py        0.0015   -0.0636    0.0053   -0.0042    0.0176    0.0357    0.0044    0.0575    0.1473    0.1326
    63 C6     3py        0.0018    0.0137   -0.0071    0.0214    0.0183    0.0060   -0.0061   -0.0041   -0.0197   -0.0210
    64 C6     4py       -0.0002    0.0018   -0.0008    0.0083    0.0120    0.0091   -0.0005    0.0044    0.0073    0.0083
    65 C6     2pz        0.0067    0.0797   -0.0008    0.0313   -0.0001   -0.0257    0.1437   -0.0008    0.0136   -0.2463
    66 C6     3pz        0.0055   -0.0120    0.0132   -0.0051   -0.0057    0.0097   -0.0057   -0.0004    0.0032    0.0396
    67 C6     4pz        0.0001    0.0019    0.0006   -0.0086   -0.0109   -0.0098    0.0126    0.0005    0.0010   -0.0097
    68 C6     3d2-       0.0001   -0.0072    0.0014   -0.0031   -0.0009    0.0015    0.0058    0.0059    0.0147    0.0098
    69 C6     3d1-      -0.0004   -0.0190    0.0023   -0.0052    0.0001    0.0049   -0.0091    0.0043    0.0100    0.0243
    70 C6     3d0       -0.0001    0.0084   -0.0011    0.0045    0.0027   -0.0011    0.0124    0.0005   -0.0027   -0.0143
    71 C6     3d1+       0.0005    0.0099   -0.0010    0.0034    0.0004   -0.0024    0.0064   -0.0015   -0.0027   -0.0167
    72 C6     3d2+       0.0001   -0.0043    0.0008   -0.0019   -0.0001    0.0012   -0.0017    0.0014    0.0023    0.0069
    73 C19    1s        -0.0146    0.0023   -0.0066   -0.0298    0.0532   -0.0395   -0.0067    0.0119    0.0034   -0.0001
    74 C19    2s        -0.0049    0.0131    0.0039    0.1421   -0.3124    0.2787    0.0662   -0.0760   -0.0252   -0.0042
    75 C19    3s        -0.0375    0.0153   -0.0174   -0.0618    0.1010   -0.0667   -0.0106    0.0298    0.0090    0.0014
    76 C19    4s        -0.0034    0.0052   -0.0018   -0.0130    0.0220   -0.0143   -0.0033    0.0082    0.0026    0.0009
    77 C19    2px       -0.0058    0.0077    0.0275    0.0399   -0.0350   -0.0060   -0.0227    0.0547    0.0365    0.0267
    78 C19    3px       -0.0058    0.0063    0.0034    0.0039    0.0022   -0.0012    0.0022   -0.0056    0.0003    0.0013
    79 C19    4px        0.0079   -0.0003   -0.0005   -0.0021    0.0102   -0.0128   -0.0034    0.0027    0.0034    0.0020
    80 C19    2py        0.0204    0.0026    0.0007    0.0275   -0.0297    0.0015   -0.0246    0.0658    0.0255   -0.0180
    81 C19    3py       -0.0081    0.0039   -0.0045   -0.0155    0.0261   -0.0138   -0.0005   -0.0109    0.0006    0.0057
    82 C19    4py        0.0047   -0.0007    0.0007   -0.0053    0.0138   -0.0137   -0.0060    0.0116    0.0003   -0.0016
    83 C19    2pz       -0.0002    0.0003   -0.0064    0.0001   -0.0032   -0.0004   -0.0033    0.0083   -0.0089   -0.0054
    84 C19    3pz       -0.0044    0.0006   -0.0065   -0.0043    0.0014   -0.0013   -0.0025    0.0008   -0.0011    0.0007
    85 C19    4pz        0.0002   -0.0001   -0.0006   -0.0006    0.0012   -0.0014   -0.0010    0.0010   -0.0004   -0.0006
    86 C19    3d2-       0.0013   -0.0000    0.0049    0.0076   -0.0083    0.0011   -0.0030    0.0082    0.0019   -0.0014
    87 C19    3d1-       0.0009   -0.0002   -0.0007    0.0010   -0.0016    0.0008   -0.0002    0.0006   -0.0002   -0.0004
    88 C19    3d0        0.0015   -0.0001   -0.0008   -0.0048    0.0068   -0.0028    0.0015   -0.0038   -0.0027   -0.0016
    89 C19    3d1+       0.0005   -0.0000    0.0010    0.0009   -0.0009   -0.0001   -0.0005    0.0014    0.0009    0.0002
    90 C19    3d2+      -0.0064    0.0006    0.0035   -0.0027    0.0054   -0.0039    0.0006   -0.0022   -0.0013    0.0010
    91 N2     1s        -0.0196   -0.0016   -0.0384   -0.0083   -0.0005    0.0045   -0.0002    0.0045   -0.0021   -0.0003
    92 N2     2s         0.1639    0.0358    0.5731    0.1227    0.1001   -0.2225    0.0012   -0.1150   -0.0210    0.0161
    93 N2     3s        -0.0469    0.0000   -0.0653   -0.0139    0.0061   -0.0006   -0.0015    0.0079   -0.0045    0.0015
    94 N2     4s        -0.0118   -0.0004   -0.0224   -0.0034   -0.0004    0.0029   -0.0008    0.0028   -0.0000    0.0006
    95 N2     2px       -0.0306    0.0073   -0.0206   -0.1014    0.0786    0.0641    0.1214   -0.3787   -0.0115    0.0050
    96 N2     3px        0.0226    0.0059   -0.0111    0.0280   -0.0152   -0.0586   -0.0338    0.1002    0.0066    0.0102
    97 N2     4px       -0.0048    0.0012    0.0020   -0.0003    0.0050   -0.0090   -0.0005   -0.0002    0.0040    0.0036
    98 N2     2py        0.0357    0.0005    0.0091   -0.1050    0.0653    0.0875    0.0215    0.1748   -0.1895   -0.1633
    99 N2     3py        0.0054   -0.0125   -0.0426    0.0398   -0.0023   -0.0517   -0.0310   -0.0261    0.0483    0.0255
   100 N2     4py       -0.0075   -0.0029   -0.0140   -0.0010    0.0018   -0.0038   -0.0053    0.0090   -0.0002   -0.0008
   101 N2     2pz        0.0082   -0.0036   -0.0170    0.0146   -0.0040   -0.0011    0.0092    0.0660   -0.1307   -0.0417
   102 N2     3pz        0.0125   -0.0038    0.0129    0.0145   -0.0070   -0.0015   -0.0036   -0.0281    0.0257    0.0025
   103 N2     4pz        0.0004   -0.0008   -0.0024    0.0022   -0.0017    0.0011   -0.0022    0.0017    0.0020   -0.0005
   104 N2     3d2-      -0.0027    0.0008    0.0079   -0.0039   -0.0002    0.0099    0.0043    0.0018   -0.0086   -0.0070
   105 N2     3d1-      -0.0008   -0.0004    0.0009    0.0035   -0.0002   -0.0043    0.0013   -0.0076    0.0003    0.0049
   106 N2     3d0       -0.0037   -0.0010   -0.0143   -0.0008   -0.0023    0.0027    0.0002   -0.0044    0.0042    0.0018
   107 N2     3d1+      -0.0011   -0.0002   -0.0025    0.0008   -0.0017    0.0012   -0.0006    0.0068   -0.0027   -0.0006
   108 N2     3d2+       0.0045   -0.0004    0.0032    0.0100   -0.0048   -0.0082   -0.0072    0.0191    0.0011   -0.0016
   109 N5     1s        -0.0004   -0.0424    0.0047   -0.0006    0.0022    0.0021   -0.0034   -0.0003   -0.0032   -0.0020
   110 N5     2s         0.0119    0.5820   -0.0714    0.0049   -0.1191   -0.1910    0.1716   -0.0367   -0.1123   -0.1092
   111 N5     3s         0.0022   -0.0829    0.0126   -0.0086   -0.0056   -0.0067   -0.0044   -0.0039   -0.0159   -0.0086
   112 N5     4s         0.0008   -0.0265    0.0047   -0.0035   -0.0009    0.0007   -0.0029   -0.0007   -0.0013   -0.0005
   113 N5     2px        0.0063   -0.0006    0.0175   -0.0695   -0.0718   -0.0126   -0.2115   -0.0614   -0.1241    0.1344
   114 N5     3px        0.0116    0.0122    0.0164    0.0252    0.0119    0.0206    0.0615    0.0065    0.0195   -0.0237
   115 N5     4px        0.0024   -0.0038    0.0038   -0.0003   -0.0017    0.0045   -0.0014   -0.0019    0.0011   -0.0027
   116 N5     2py       -0.0040   -0.0320   -0.0169    0.1365    0.1354    0.0637    0.2354    0.0694    0.0995   -0.2783
   117 N5     3py       -0.0053    0.0156   -0.0215   -0.0343   -0.0473   -0.0350   -0.0507    0.0021    0.0009    0.0517
   118 N5     4py       -0.0008    0.0038   -0.0035    0.0037    0.0011   -0.0019    0.0003    0.0024    0.0006    0.0065
   119 N5     2pz        0.0053   -0.0052    0.0248   -0.0978   -0.0776   -0.0539    0.2640    0.1280    0.2656    0.2216
   120 N5     3pz        0.0012    0.0391    0.0164    0.0272    0.0561    0.0516   -0.0465   -0.0290   -0.0484   -0.0193
   121 N5     4pz       -0.0003    0.0104    0.0016    0.0008    0.0025    0.0028    0.0084   -0.0004   -0.0002   -0.0029
   122 N5     3d2-       0.0000   -0.0156    0.0018    0.0020    0.0030    0.0022    0.0074    0.0023    0.0042   -0.0026
   123 N5     3d1-      -0.0007   -0.0053   -0.0005   -0.0050   -0.0079   -0.0069   -0.0081   -0.0035   -0.0018    0.0070
   124 N5     3d0        0.0001    0.0004   -0.0009    0.0075    0.0055    0.0006    0.0149    0.0028    0.0025   -0.0100
   125 N5     3d1+      -0.0002    0.0002    0.0004    0.0047    0.0070    0.0071   -0.0060   -0.0018   -0.0062   -0.0070
   126 N5     3d2+      -0.0002   -0.0087    0.0008    0.0028    0.0032    0.0014    0.0103    0.0030    0.0062   -0.0047
   127 O7     1s        -0.0234    0.0003    0.0051   -0.0020    0.0030   -0.0019    0.0024   -0.0106    0.0023    0.0056
   128 O7     2s         0.6678   -0.0595   -0.3451   -0.1407    0.1588   -0.0358    0.0689   -0.3095    0.0604    0.1154
   129 O7     3s        -0.0277   -0.0040   -0.0061   -0.0138    0.0170   -0.0085    0.0075   -0.0387    0.0071    0.0176
   130 O7     4s        -0.0123   -0.0010    0.0013   -0.0025    0.0032   -0.0021    0.0008   -0.0078    0.0013    0.0035
   131 O7     2px        0.0832   -0.0021   -0.0015   -0.0011    0.0143   -0.0331   -0.0374    0.1448   -0.0371   -0.0567
   132 O7     3px       -0.0204    0.0018    0.0060   -0.0072    0.0050    0.0009    0.0023   -0.0205    0.0044    0.0047
   133 O7     4px       -0.0012    0.0001    0.0011   -0.0017   -0.0001    0.0014   -0.0002   -0.0027   -0.0000   -0.0004
   134 O7     2py       -0.1107    0.0140    0.0521   -0.0130    0.0216   -0.0218    0.0237   -0.1048    0.0435    0.1039
   135 O7     3py        0.0405    0.0025   -0.0012    0.0088   -0.0095    0.0027   -0.0036    0.0151   -0.0011   -0.0090
   136 O7     4py        0.0011    0.0020   -0.0006    0.0001   -0.0002    0.0010    0.0008    0.0015   -0.0001   -0.0013
   137 O7     2pz       -0.0179   -0.0031    0.0072    0.0031    0.0039   -0.0051    0.0096   -0.0252   -0.0003    0.0113
   138 O7     3pz        0.0060   -0.0056   -0.0012   -0.0010   -0.0027   -0.0045    0.0001    0.0033    0.0016   -0.0029
   139 O7     4pz        0.0002   -0.0015   -0.0004   -0.0011   -0.0004   -0.0016    0.0005    0.0004    0.0006   -0.0006
   140 O7     3d2-      -0.0161    0.0011    0.0042    0.0002   -0.0018    0.0023    0.0025   -0.0092    0.0027    0.0050
   141 O7     3d1-       0.0041   -0.0005   -0.0021   -0.0006   -0.0000    0.0007   -0.0003    0.0011    0.0001   -0.0011
   142 O7     3d0       -0.0098    0.0004    0.0047    0.0014   -0.0012   -0.0003    0.0003   -0.0030    0.0016    0.0027
   143 O7     3d1+      -0.0029   -0.0003    0.0008    0.0005   -0.0006    0.0004    0.0008   -0.0018   -0.0000    0.0006
   144 O7     3d2+      -0.0068    0.0006    0.0056   -0.0001    0.0026   -0.0042   -0.0011    0.0020    0.0002    0.0024
   145 O8     1s         0.0005    0.0029   -0.0006    0.0028    0.0025   -0.0018    0.0141    0.0031   -0.0155    0.0189
   146 O8     2s        -0.0666   -0.3070   -0.0565    0.1698    0.0746   -0.0706    0.3571    0.0786   -0.2643    0.3030
   147 O8     3s        -0.0033   -0.0077   -0.0040    0.0106    0.0101   -0.0078    0.0445    0.0100   -0.0443    0.0527
   148 O8     4s        -0.0005    0.0004   -0.0004    0.0006    0.0019   -0.0018    0.0087    0.0023   -0.0091    0.0110
   149 O8     2px        0.0043   -0.0020    0.0053   -0.0022    0.0117    0.0112    0.0748    0.0376   -0.0258    0.1065
   150 O8     3px        0.0000   -0.0018   -0.0015   -0.0014    0.0008   -0.0015   -0.0099   -0.0030   -0.0010   -0.0094
   151 O8     4px       -0.0003   -0.0006   -0.0004   -0.0005    0.0004   -0.0011   -0.0009   -0.0008   -0.0012   -0.0009
   152 O8     2py       -0.0046    0.0013   -0.0132    0.0049   -0.0244   -0.0281   -0.1191   -0.0508    0.0237   -0.1423
   153 O8     3py        0.0015   -0.0048   -0.0034    0.0045   -0.0039   -0.0078    0.0192    0.0068    0.0019    0.0105
   154 O8     4py       -0.0001   -0.0017   -0.0015    0.0011   -0.0002   -0.0017    0.0021    0.0015    0.0012    0.0001
   155 O8     2pz       -0.0074   -0.0361    0.0042   -0.0351   -0.0120    0.0387   -0.1932   -0.0422    0.3154   -0.3954
   156 O8     3pz        0.0053    0.0073    0.0062    0.0117    0.0083    0.0045    0.0306    0.0099   -0.0386    0.0391
   157 O8     4pz        0.0017    0.0030    0.0022    0.0000   -0.0005    0.0011    0.0036    0.0019   -0.0056    0.0057
[...]
AIVX     1  Mu1.0001  In1.021 Se1.048               0.28688294      0.00045905     -0.00092316     -0.00000042
AIVX     1  Mu1.0001  In1.022 Se1.048               0.22796681     -0.00159835      0.00286764     -0.00000458
AIVX     1  Mu1.0001  In1.024 Se1.048               0.29790930     -0.00089035      0.00126833     -0.00000113
AIVX     1  Mu1.0001  In1.025 Se1.048               0.26572027     -0.00003042     -0.00001569      0.00000000
AIVX     1  Mu1.0001  In1.026 Se1.048               0.17492969      0.00162276     -0.00314900     -0.00000511
AIVX     1  Mu1.0001  In1.027 Se1.048               0.09122037     -0.00125128      0.00273274     -0.00000342
AIVX     1  Mu1.0001  In1.028 Se1.048               0.13187717     -0.00031488      0.00125077     -0.00000039
AIVX     1  Mu1.0001  In1.029 Se1.048               0.11424654      0.00003594     -0.00026483     -0.00000001
AIVX     1  Mu1.0001  In1.022 Se1.049               0.24372246      0.00036378     -0.00077446     -0.00000028
AIVX     1  Mu1.0001  In1.025 Se1.049               0.28147592     -0.00004329      0.00010164     -0.00000000
AIVX     1  Mu1.0001  In1.026 Se1.049               0.19068534      0.00169552     -0.00299219     -0.00000507
AIVX     1  Mu1.0001  In1.027 Se1.049               0.10697602     -0.00127606      0.00299619     -0.00000382
AIVX     1  Mu1.0001  In1.028 Se1.049               0.14763282      0.00030934     -0.00077011     -0.00000024
AIVX     1  Mu1.0001  In1.029 Se1.049               0.13000219      0.00022074     -0.00036359     -0.00000008
AIVX     1  Mu1.0001  In1.022 Se1.050               0.24761713      0.00009585     -0.00038103     -0.00000004
AIVX     1  Mu1.0001  In1.025 Se1.050               0.28537059      0.00072571     -0.00106792     -0.00000077
AIVX     1  Mu1.0001  In1.026 Se1.050               0.19458000      0.00266999     -0.00470575     -0.00001256
AIVX     1  Mu1.0001  In1.027 Se1.050               0.11087068     -0.00164048      0.00377277     -0.00000619
AIVX     1  Mu1.0001  In1.028 Se1.050               0.15152748      0.00051296     -0.00155140     -0.00000080
AIVX     1  Mu1.0001  In1.029 Se1.050               0.13389685     -0.00011616      0.00056022     -0.00000007
AIVX     1  Mu1.0001  In1.022 Se1.051               0.25284748     -0.00059257      0.00084317     -0.00000050
AIVX     1  Mu1.0001  In1.025 Se1.051               0.29060094     -0.00041912      0.00067499     -0.00000028
AIVX     1  Mu1.0001  In1.026 Se1.051               0.19981035      0.00189113     -0.00333590     -0.00000631
AIVX     1  Mu1.0001  In1.027 Se1.051               0.11610103     -0.00105810      0.00246847     -0.00000261
AIVX     1  Mu1.0001  In1.028 Se1.051               0.15675783     -0.00023068      0.00053245     -0.00000012
AIVX     1  Mu1.0001  In1.029 Se1.051               0.13912720      0.00156016     -0.00317045     -0.00000495
AIVX     1  Mu1.0001  In1.026 Se1.052               0.24994264     -0.00138900      0.00236525     -0.00000329
AIVX     1  Mu1.0001  In1.027 Se1.052               0.16623332      0.00240773     -0.00448878     -0.00001081
AIVX     1  Mu1.0001  In1.028 Se1.052               0.20689012     -0.00024733      0.00039470     -0.00000010
AIVX     1  Mu1.0001  In1.029 Se1.052               0.18925950     -0.00120663      0.00221360     -0.00000267
AIVX     1  Mu1.0001  In1.022 Se1.053               0.29215106      0.00042683     -0.00053036     -0.00000023
AIVX     1  Mu1.0001  In1.026 Se1.053               0.23911394      0.00004004     -0.00034527     -0.00000001
AIVX     1  Mu1.0001  In1.027 Se1.053               0.15540462     -0.00012764      0.00001037     -0.00000000
AIVX     1  Mu1.0001  In1.028 Se1.053               0.19606142     -0.00032689      0.00056554     -0.00000018
AIVX     1  Mu1.0001  In1.029 Se1.053               0.17843079     -0.00200154      0.00370152     -0.00000741
AIVX     1  Mu1.0001  In1.026 Se1.054               0.27539073     -0.00000476     -0.00019024      0.00000000
AIVX     1  Mu1.0001  In1.027 Se1.054               0.19168141      0.00090354     -0.00161763     -0.00000146
AIVX     1  Mu1.0001  In1.028 Se1.054               0.23233821     -0.00219315      0.00439095     -0.00000963
AIVX     1  Mu1.0001  In1.029 Se1.054               0.21470758      0.00085023     -0.00179319     -0.00000152
AIVX     1  Mu1.0001  In1.026 Se1.055               0.29730212     -0.00137027      0.00209019     -0.00000286
AIVX     1  Mu1.0001  In1.027 Se1.055               0.21359280      0.00046658     -0.00080354     -0.00000037
AIVX     1  Mu1.0001  In1.028 Se1.055               0.25424960      0.00037482     -0.00088902     -0.00000033
AIVX     1  Mu1.0001  In1.029 Se1.055               0.23661898     -0.00013874      0.00015698     -0.00000002
AIVX     1  Mu1.0001  In1.026 Se1.056               0.28529194      0.00014175     -0.00057557     -0.00000008
AIVX     1  Mu1.0001  In1.027 Se1.056               0.20158261     -0.00102171      0.00165833     -0.00000169
AIVX     1  Mu1.0001  In1.028 Se1.056               0.24223941      0.00015899     -0.00058033     -0.00000009
AIVX     1  Mu1.0001  In1.029 Se1.056               0.22460879      0.00014579     -0.00048597     -0.00000007
AIVX     1  Mu1.0001  In1.026 Se1.057               0.29283864      0.00062854     -0.00120188     -0.00000076
AIVX     1  Mu1.0001  In1.027 Se1.057               0.20912931     -0.00089637      0.00142893     -0.00000128
AIVX     1  Mu1.0001  In1.028 Se1.057               0.24978611     -0.00015540      0.00044447     -0.00000007
AIVX     1  Mu1.0001  In1.029 Se1.057               0.23215549     -0.00034082      0.00042518     -0.00000014
AIVX     1  Mu1.0001  In1.027 Se1.058               0.24626839      0.00009443      0.00015596      0.00000001
AIVX     1  Mu1.0001  In1.028 Se1.058               0.28692519      0.00075697     -0.00130524     -0.00000099
AIVX     1  Mu1.0001  In1.029 Se1.058               0.26929457     -0.00015159      0.00040742     -0.00000006
AIVX     1  Mu1.0001  In1.027 Se1.059               0.23382484     -0.00124472      0.00184591     -0.00000230
AIVX     1  Mu1.0001  In1.028 Se1.059               0.27448164      0.00023550     -0.00058492     -0.00000014
AIVX     1  Mu1.0001  In1.029 Se1.059               0.25685102     -0.00031850      0.00026250     -0.00000008
AIVX     1  Mu1.0001  In1.027 Se1.061               0.27818379     -0.00112411      0.00173273     -0.00000195
AIVX     1  Mu1.0001  In1.027 Se1.062               0.26156942     -0.00008511      0.00026354     -0.00000002
AIVX     1  Mu1.0001  In1.029 Se1.062               0.28459560      0.00081942     -0.00108266     -0.00000089
AIVX     1  Mu1.0001  In1.027 Se1.063               0.28570669     -0.00063039      0.00082327     -0.00000052
--
 
   (Skipping property calculation,
    use PROP keyword to activate)
--
 
  Total CASPT2 energies:
::    CASPT2 Root  1     Total energy:   -455.38331939
::    CASPT2 Root  2     Total energy:   -455.17715103
::    CASPT2 Root  3     Total energy:   -455.17688629
::    CASPT2 Root  4     Total energy:   -455.13789896
::    CASPT2 Root  5     Total energy:   -455.13560058
::    CASPT2 Root  6     Total energy:   -455.08633850
::    CASPT2 Root  7     Total energy:   -455.07687019
 
++ Multi-State CASPT2 section:
********************************************************************************
  MULTI-STATE CASPT2 SECTION
--------------------------------------------------------------------------------
 
  Output diagonal energies have been shifted. Add   -455.000000000000     
 
  Effective Hamiltonian matrix (Symmetric):
 
                1               2               3               4               5
   1        -0.38331939
   2        -0.00136883     -0.17715103
   3         0.00094311     -0.00017687     -0.17688629
   4        -0.01064493      0.00046466      0.00279138     -0.13789896
   5         0.01704417      0.00437722      0.00179146      0.00309424     -0.13560058
   6         0.00611852      0.00153996     -0.00108691     -0.00519188     -0.01649990
   7         0.00160243      0.00096651     -0.00101291      0.00917566      0.00325803
 
                6               7
   6        -0.08633850
   7         0.00465968     -0.07687019
 
       Total MS-CASPT2 energies:
::    MS-CASPT2 Root  1     Total energy:   -455.38515345
::    MS-CASPT2 Root  2     Total energy:   -455.17787602
::    MS-CASPT2 Root  3     Total energy:   -455.17696760
::    MS-CASPT2 Root  4     Total energy:   -455.13932692
::    MS-CASPT2 Root  5     Total energy:   -455.13898412
::    MS-CASPT2 Root  6     Total energy:   -455.08164347
::    MS-CASPT2 Root  7     Total energy:   -455.07411337
 
       Eigenvectors:
            0.99624963     -0.01196065      0.01204271     -0.06804373      0.05008798
            0.00813085      0.87505349     -0.46974110     -0.03609527      0.10990286
           -0.00463303      0.46689731      0.88039951      0.05019823      0.06302977
            0.04351401     -0.04244017     -0.05715752      0.90622269      0.37110447
           -0.07017410     -0.11531986      0.01611992     -0.39796853      0.85621948
           -0.02349223     -0.03185389      0.01650350     -0.01568880      0.30826385
           -0.00541755      0.00554329      0.01719838     -0.10808639     -0.12483139
 
            0.00454618      0.00625920
           -0.00389467      0.01272430
           -0.01631173     -0.01111120
           -0.15626664      0.09829054
           -0.29671029     -0.04460189
            0.87305887      0.37504206
           -0.35356759      0.92052624
 
--
 
  THE ORIGINAL CI ARRAYS ARE NOW MIXED AS LINEAR
  COMBINATIONS, GIVEN BY THE EIGENVECTORS.
  A NEW JOBIPH FILE NAMED 'JOBMIX' IS PREPARED.
********************************************************************************
 
++ Mixed CI coefficients:
  The CI coefficients for the MIXED state nr.   1
--------------------------------------------------------------------------------
 CI COEFFICIENTS LARGER THAN  0.50D-01
  Occupation of active orbitals, and spin coupling
  of open shells. (u,d: Spin up or down).
  SGUGA info is (Midvert:IsyUp:UpperWalk/LowerWalk)
        Conf  SGUGA info        Occupation    Coefficient         Weight
           1  ( 1:1:   1/   1)   22222200       -0.964311       0.929896
           4  ( 1:1:   4/   1)   22222020        0.110905       0.012300
          17  ( 1:1:  17/   1)   22220202        0.078077       0.006096
          21  ( 2:1:   1/   1)   222u22d0       -0.051943       0.002698
          61  ( 2:1:   1/   3)   2u2222d0       -0.100014       0.010003
          84  ( 2:1:   4/   4)   u222220d        0.112990       0.012767
         171  ( 3:1:   1/   8)   20222220        0.080756       0.006522
         195  ( 3:1:   5/  10)   02222202        0.074467       0.005545
 
  The CI coefficients for the MIXED state nr.   2
--------------------------------------------------------------------------------
 CI COEFFICIENTS LARGER THAN  0.50D-01
  Occupation of active orbitals, and spin coupling
  of open shells. (u,d: Spin up or down).
  SGUGA info is (Midvert:IsyUp:UpperWalk/LowerWalk)
        Conf  SGUGA info        Occupation    Coefficient         Weight
           2  ( 1:1:   2/   1)   22222ud0       -0.179631       0.032267
           7  ( 1:1:   7/   1)   22222u0d        0.081937       0.006714
          24  ( 2:1:   4/   1)   222u220d        0.444294       0.197397
          34  ( 2:1:  14/   1)   222ud202        0.067855       0.004604
          41  ( 2:1:   1/   2)   22u222d0        0.813038       0.661031
          42  ( 2:1:   2/   2)   22u22d20        0.118076       0.013942
          44  ( 2:1:   4/   2)   22u2220d       -0.123854       0.015340
          58  ( 2:1:  18/   2)   22u202d2        0.067526       0.004560
         135  ( 3:1:   5/   4)   u22d2202        0.060130       0.003616
         151  ( 3:1:   1/   6)   2ud22220       -0.130237       0.016962
         162  ( 3:1:   2/   7)   u2d222ud       -0.054570       0.002978
         225  ( 4:1:   1/   5)   u2u222dd       -0.087696       0.007691
         302  ( 5:1:   2/  17)   02u222d2       -0.065377       0.004274
 
  The CI coefficients for the MIXED state nr.   3
--------------------------------------------------------------------------------
 CI COEFFICIENTS LARGER THAN  0.50D-01
  Occupation of active orbitals, and spin coupling
  of open shells. (u,d: Spin up or down).
  SGUGA info is (Midvert:IsyUp:UpperWalk/LowerWalk)
        Conf  SGUGA info        Occupation    Coefficient         Weight
           2  ( 1:1:   2/   1)   22222ud0        0.081381       0.006623
           7  ( 1:1:   7/   1)   22222u0d        0.081867       0.006702
           8  ( 1:1:   8/   1)   2222u20d       -0.080430       0.006469
          24  ( 2:1:   4/   1)   222u220d        0.827236       0.684319
          27  ( 2:1:   7/   1)   222u2udd       -0.089223       0.007961
          29  ( 2:1:   9/   1)   222u202d       -0.082637       0.006829
          34  ( 2:1:  14/   1)   222ud202        0.130414       0.017008
          41  ( 2:1:   1/   2)   22u222d0       -0.445916       0.198841
          42  ( 2:1:   2/   2)   22u22d20       -0.065348       0.004270
         135  ( 3:1:   5/   4)   u22d2202        0.110397       0.012188
         151  ( 3:1:   1/   6)   2ud22220        0.071482       0.005110
         207  ( 4:1:   1/   2)   2u2u22dd       -0.071827       0.005159
         208  ( 4:1:   2/   2)   2u2u2d2d       -0.052339       0.002739
         261  ( 5:1:   1/   7)   202u222d        0.077647       0.006029
 
  The CI coefficients for the MIXED state nr.   4
--------------------------------------------------------------------------------
 CI COEFFICIENTS LARGER THAN  0.50D-01
  Occupation of active orbitals, and spin coupling
  of open shells. (u,d: Spin up or down).
  SGUGA info is (Midvert:IsyUp:UpperWalk/LowerWalk)
        Conf  SGUGA info        Occupation    Coefficient         Weight
           2  ( 1:1:   2/   1)   22222ud0       -0.500010       0.250010
           4  ( 1:1:   4/   1)   22222020        0.097343       0.009476
           7  ( 1:1:   7/   1)   22222u0d       -0.076444       0.005844
           8  ( 1:1:   8/   1)   2222u20d       -0.727920       0.529868
          12  ( 1:1:  12/   1)   2222uudd        0.062748       0.003937
          13  ( 1:1:  13/   1)   2222u02d        0.082298       0.006773
          24  ( 2:1:   4/   1)   222u220d       -0.051204       0.002622
          44  ( 2:1:   4/   2)   22u2220d        0.290863       0.084601
          61  ( 2:1:   1/   3)   2u2222d0       -0.085305       0.007277
          62  ( 2:1:   2/   3)   2u222d20        0.130788       0.017106
          66  ( 2:1:   6/   3)   2u22d2ud       -0.050799       0.002580
          68  ( 2:1:   8/   3)   2u22u2dd        0.076829       0.005903
          94  ( 2:1:  14/   4)   u222d202       -0.162569       0.026429
         171  ( 3:1:   1/   8)   20222220       -0.056011       0.003137
         174  ( 3:1:   4/   8)   2022u22d       -0.066330       0.004400
 
  The CI coefficients for the MIXED state nr.   5
--------------------------------------------------------------------------------
 CI COEFFICIENTS LARGER THAN  0.50D-01
  Occupation of active orbitals, and spin coupling
  of open shells. (u,d: Spin up or down).
  SGUGA info is (Midvert:IsyUp:UpperWalk/LowerWalk)
        Conf  SGUGA info        Occupation    Coefficient         Weight
           2  ( 1:1:   2/   1)   22222ud0        0.737458       0.543845
           4  ( 1:1:   4/   1)   22222020       -0.123877       0.015346
           7  ( 1:1:   7/   1)   22222u0d       -0.222401       0.049462
           8  ( 1:1:   8/   1)   2222u20d       -0.463168       0.214525
          19  ( 1:1:  19/   1)   22220ud2       -0.065270       0.004260
          21  ( 2:1:   1/   1)   222u22d0        0.061614       0.003796
          41  ( 2:1:   1/   2)   22u222d0        0.202453       0.040987
          44  ( 2:1:   4/   2)   22u2220d        0.149745       0.022423
          61  ( 2:1:   1/   3)   2u2222d0        0.062965       0.003965
          62  ( 2:1:   2/   3)   2u222d20       -0.196182       0.038487
          85  ( 2:1:   5/   4)   u2222dud       -0.053502       0.002862
          87  ( 2:1:   7/   4)   u2222udd       -0.085006       0.007226
          94  ( 2:1:  14/   4)   u222d202       -0.103431       0.010698
         171  ( 3:1:   1/   8)   20222220        0.076528       0.005857
         196  ( 3:1:   6/  10)   02222ud2       -0.053878       0.002903
 
  The CI coefficients for the MIXED state nr.   6
--------------------------------------------------------------------------------
 CI COEFFICIENTS LARGER THAN  0.50D-01
  Occupation of active orbitals, and spin coupling
  of open shells. (u,d: Spin up or down).
  SGUGA info is (Midvert:IsyUp:UpperWalk/LowerWalk)
        Conf  SGUGA info        Occupation    Coefficient         Weight
           2  ( 1:1:   2/   1)   22222ud0        0.134775       0.018164
           7  ( 1:1:   7/   1)   22222u0d        0.845573       0.714994
           8  ( 1:1:   8/   1)   2222u20d       -0.274926       0.075584
          10  ( 1:1:  10/   1)   2222udud        0.064303       0.004135
          24  ( 2:1:   4/   1)   222u220d       -0.129345       0.016730
          25  ( 2:1:   5/   1)   222u2dud       -0.057847       0.003346
          44  ( 2:1:   4/   2)   22u2220d       -0.271709       0.073826
          45  ( 2:1:   5/   2)   22u22dud       -0.069556       0.004838
          47  ( 2:1:   7/   2)   22u22udd       -0.080330       0.006453
          65  ( 2:1:   5/   3)   2u222dud       -0.147546       0.021770
          67  ( 2:1:   7/   3)   2u222udd       -0.138638       0.019220
          93  ( 2:1:  13/   4)   u2222d02        0.053537       0.002866
          94  ( 2:1:  14/   4)   u222d202       -0.059947       0.003594
         173  ( 3:1:   3/   8)   20222u2d        0.110494       0.012209
 
  The CI coefficients for the MIXED state nr.   7
--------------------------------------------------------------------------------
 CI COEFFICIENTS LARGER THAN  0.50D-01
  Occupation of active orbitals, and spin coupling
  of open shells. (u,d: Spin up or down).
  SGUGA info is (Midvert:IsyUp:UpperWalk/LowerWalk)
        Conf  SGUGA info        Occupation    Coefficient         Weight
           2  ( 1:1:   2/   1)   22222ud0        0.054866       0.003010
           7  ( 1:1:   7/   1)   22222u0d        0.352856       0.124507
           8  ( 1:1:   8/   1)   2222u20d        0.237644       0.056475
          41  ( 2:1:   1/   2)   22u222d0        0.105510       0.011132
          44  ( 2:1:   4/   2)   22u2220d        0.825017       0.680654
          45  ( 2:1:   5/   2)   22u22dud        0.143549       0.020606
          47  ( 2:1:   7/   2)   22u22udd        0.219122       0.048014
          48  ( 2:1:   8/   2)   22u2u2dd        0.052484       0.002755
          54  ( 2:1:  14/   2)   22u2d202       -0.054922       0.003016
          65  ( 2:1:   5/   3)   2u222dud       -0.068460       0.004687
          67  ( 2:1:   7/   3)   2u222udd       -0.066202       0.004383
          94  ( 2:1:  14/   4)   u222d202        0.054391       0.002958
         112  ( 3:1:   2/   2)   22ud22ud       -0.054430       0.002963
         201  ( 4:1:   1/   1)   22uu22dd       -0.071230       0.005074
         293  ( 5:1:   1/  15)   20u2222d        0.066772       0.004459
 
--
 
--- Stop Module: caspt2 at Tue Jun 10 20:24:13 2025 /rc=_RC_ALL_IS_WELL_ ---
*** files: xmldump
    saved to directory /home/pcaah4/diamide_project
--- Module caspt2 spent 7 minutes 2 seconds ---

.##################.
.# Happy landing! #.
.##################.

    Timing: Wall=683.10 User=593.05 System=80.36
******************************************************
*** WorkDir at /srv/COMMUNAL_SCRATCH/12448 cleaned ***
******************************************************
