   This run of MOLCAS is using the pymolcas driver

                             OPE
                             OPE          NMOL  CASOP  ENMOLC A   SO
                 OPE        NMOLC        AS  OP EN  MO LC     AS  OP
                OPENM       OL CA        SO  PE NM  OL CA     SOP EN
                OP EN      MO   LC       AS  OP ENMOL  CASO   PENMOL
                OP  EN     MO   LC       AS  OP EN     MO     LC ASO
               OP   E  NMOL  C  AS       OP  EN MO     LC     AS  OP
               OP  E   NMO   LC AS        OPEN  MO     LCASOP EN   M
               O  PEN   MO  LCA  SO
            OPE   NMO   L   CAS    OP
        OPENMOL  CASOP     ENMOL   CASOPE
     OPENMOLCA   SOPENMOLCASOPEN   MOLCASOPE
    OPENMOLCAS   OP           EN   MOL    CAS
    OPENMOLCAS       OP  ENM        O     LCA
    OPENMOLCAS    OPEN  MOLCASO     P  E  NMO
    OPENMOLCAS     OP               E  N  MOL
    OPENMOLCA   SO           PENM   O  L  CAS    OPEN    MO    LCAS
    OPENMOLCA   SOP           ENM   O  L  CAS   OP  EN  MOLC  AS   O
    OPENMOLCA   SOPE           NM      O  LCA   S      OP  EN MO
    OPENMOLC                AS         O  PEN   M      OL  CA  SOPE
    OPENMO        LCASOPE  NMOL        C  ASO   P      ENMOLC     AS
    OPE     NMO      LCA  SO     P     E   NM   OL  CA SO  PE N   MO
          OPENMOLCA            SOPE   NMO        LCAS  O    P  ENMO
     OPENMOLCASOPENMOLCASOPENMOLCASOPENMOLCA
        OPENMOLCASOPENMOLCASOPENMOLCASOPE
            OPENMOLCASOPENMOLCASOPENM
               OPENMOLCASOPENMOLCA        version: v23.06
                   OPENMOLCASO
                       OPE                tag:

 OpenMolcas is free software; you can redistribute it and/or modify it
 under the terms of the GNU Lesser General Public License version 2.1.
 OpenMolcas is distributed in the hope that it will be useful, but it
 is provided "as is" and without any express or implied warranties.
 For more details see the full text of the license in the file
 LICENSE or in <http://www.gnu.org/licenses/>.

                 Copyright (C) The OpenMolcas Authors
           For the author list and the recommended citation,
                   consult the file CONTRIBUTORS.md

           *************************************************
           * pymolcas version py2.24                       *
           *   build 4567b286dd94b1984b333a4ddf893180      *
           *   (after the EMIL interpreter by V. Veryazov) *
           *************************************************

configuration info
------------------
Host name: loginchem01.nottingham.ac.uk (Linux)
C Compiler ID: Intel
C flags: -std=gnu99 -gcc-sys -qopenmp
Fortran Compiler ID: Intel
Fortran flags: -fpp -i8 -heap-arrays -qopenmp
Definitions: _MOLCAS_;_I8_;_LINUX_
Parallel: OFF (GA=OFF)


   ---------------------------------------------------------------------------------------------------
  |
  |              Project: orca_geometry_optimisation_15_300_BP86_def2-SVP_def2J_scf_cas1_ras12i11_cas8
  |       Submitted from: /home/pcaah4/diamide_project
  |         Scratch area: /srv/COMMUNAL_SCRATCH/12379
  |      Save outputs to: /home/pcaah4/diamide_project
  |               Molcas: /software/chemistry/openmolcas/openmolcas-23.06-openmp
  |
  | Scratch area is empty
  |
  |       MOLCAS_DRIVER = /software/chemistry/openmolcas/openmolcas-23.06-openmp/sbin/pymolcas
  | MOLCAS_KEEP_WORKDIR = NO
  |       MOLCAS_NPROCS = 1
  |       MOLCAS_SOURCE = /software/chemistry/openmolcas/openmolcas-23.06-openmp
  |    MOLCAS_STRUCTURE = 0
  |
   ---------------------------------------------------------------------------------------------------

++ ---------   Input file   ---------

&SEWARD
TITLE
orca_geometry_optimisation_15_300_BP86_def2-SVP_def2J_scf_cas1_ras12i11
MULTIPOLES
2
SDIPOLE
ANGMOM
0 0 0
BASIS SET
C.ANO-S...4S3P1D.
C1           -0.169966   -0.421373   -0.146520 /Angstrom
C3            1.819214    1.223065   -0.029264 /Angstrom
C4            1.057088    2.523506    0.355691 /Angstrom
C6           -0.727308    4.108342   -0.176769 /Angstrom
C19          -0.477160   -1.890186    0.130496 /Angstrom
END OF BASIS
BASIS SET
N.ANO-S...4S3P1D.
N2            1.159293   -0.091687   -0.104164 /Angstrom
N5            0.016237    2.889478   -0.449204 /Angstrom
END OF BASIS
BASIS SET
O.ANO-S...4S3P1D.
O7           -1.081642    0.367386   -0.423800 /Angstrom
O8            1.551587    3.239328    1.229262 /Angstrom
END OF BASIS
BASIS SET
H.ANO-S...2S1P.
H9           -1.092884   -2.285570   -0.700651 /Angstrom
H10          -1.097418   -1.949236    1.047710 /Angstrom
H11           0.415414   -2.532574    0.262871 /Angstrom
H12           1.781538   -0.863244    0.142155 /Angstrom
H13           2.616543    1.149956    0.733593 /Angstrom
H14           2.317473    1.440899   -1.003024 /Angstrom
H15          -0.507351    2.082502   -0.834388 /Angstrom
H16          -1.638169    3.917441    0.433470 /Angstrom
H17          -0.072510    4.798477    0.387476 /Angstrom
H18          -1.039986    4.589720   -1.125883 /Angstrom
END OF BASIS
END OF INPUT

&RASSCF
TITLE
orca_geometry_optimisation_15_300_BP86_def2-SVP_def2J_scf_cas1_ras12i11
LUMORB
SPIN
1
SYMMETRY
1
NACTEL
12  0  0
INACTIVE
29
DELETED  ! delete Rydberg orbitals from an initial CAS(12,11) if done
3
FROZEN
0
RAS2
8
ITERATIONS
64 25
CIROOT
7 7
1 2 3 4 5 6 7
1 1 1 1 1 1 1
LEVSHFT
0.3
CIMX
20
FILEorb = /home/pcaah4/diamide_project/cas/ras12i11/ras_orb/orca_geometry_optimisation_15_300_BP86_def2-SVP_def2J_scf_cas1_ras12i11.RasOrb
ALTEr
0
END OF INPUT

&RASSI
NROF JOBIPH
    1 7
    1 2 3 5 4 6 7
TOFILE
TRDI
TDMN
1.0D-6
END OF INPUT

&CASPT2
TITLE
orca_geometry_optimisation_15_300_BP86_def2-SVP_def2J_scf_cas1_ras12i11
MULTISTATE
7 1 2 3 4 5 6 7
SHIFT
0.35
MAXITER
50
END OF INPUT

-- ----------------------------------

--- Start Module: seward at Tue Jun 10 17:12:31 2025 ---
 
()()()()()()()()()()()()()()()()()()()()()()()()()()()()()()()()()()()()()()()()()()()()()()()()()()

                                              &SEWARD

                                   only a single process is used
                       available to each process: 2.0 GB of memory, 1 thread
                                            pid: 3120642
()()()()()()()()()()()()()()()()()()()()()()()()()()()()()()()()()()()()()()()()()()()()()()()()()()
 
               SEWARD will generate:
                  Multipole Moment integrals up to order  2
                  Kinetic Energy integrals
                  Nuclear Attraction integrals (point charge)
                  One-Electron Hamiltonian integrals
                  Velocity integrals
                  Orbital angular momentum around ( 0.0000  0.0000  0.0000 )
                  Velocity quadrupole around ( 0.6348  2.5252  0.0883 )
                  Two-Electron Repulsion integrals
 
 Title:
            orca_geometry_optimisation_15_300_BP86_def2-SVP_def2J_scf_cas1_ras12i11     
 
 
                   Integrals are discarded if absolute value <: 0.10E-13
                   Integral cutoff threshold is set to       <: 0.10E-15
 
++    Symmetry information:
      ---------------------
 
                    Character Table for C1 
 
                             E  
                    a        1  x, y, xy, Rz, z, xz, Ry, yz, Rx, I
--
 
 
++    Basis set information:
      ----------------------
 
 
      Basis set label: C.ANO-S...4S3P1D......
 
      Electronic valence basis set:
      ------------------
      Associated Effective Charge   6.000000 au
      Associated Actual Charge      6.000000 au
      Nuclear Model: Point charge
 
      Shell  nPrim  nBasis  Cartesian Spherical Contaminant
         s      10       4        X                  
         p       6       3        X                  
         d       3       1                 X         
 
 
      Basis set label: N.ANO-S...4S3P1D......
 
      Electronic valence basis set:
      ------------------
      Associated Effective Charge   7.000000 au
      Associated Actual Charge      7.000000 au
      Nuclear Model: Point charge
 
      Shell  nPrim  nBasis  Cartesian Spherical Contaminant
         s      10       4        X                  
         p       6       3        X                  
         d       3       1                 X         
 
 
      Basis set label: O.ANO-S...4S3P1D......
 
      Electronic valence basis set:
      ------------------
      Associated Effective Charge   8.000000 au
      Associated Actual Charge      8.000000 au
      Nuclear Model: Point charge
 
      Shell  nPrim  nBasis  Cartesian Spherical Contaminant
         s      10       4        X                  
         p       6       3        X                  
         d       3       1                 X         
 
 
      Basis set label: H.ANO-S...2S1P......
 
      Electronic valence basis set:
      ------------------
      Associated Effective Charge   1.000000 au
      Associated Actual Charge      1.000000 au
      Nuclear Model: Point charge
 
      Shell  nPrim  nBasis  Cartesian Spherical Contaminant
         s       7       2        X                  
         p       3       1        X                  
--
 
 
++    Molecular structure info:
      -------------------------
 
                    ************************************************ 
                    **** Cartesian Coordinates / Bohr, Angstrom **** 
                    ************************************************ 
 
     Center  Label                x              y              z                     x              y              z
        1      C1              -0.321189      -0.796280      -0.276883             -0.169966      -0.421373      -0.146520
        2      C3               3.437816       2.311258      -0.055301              1.819214       1.223065      -0.029264
        3      C4               1.997607       4.768735       0.672159              1.057088       2.523506       0.355691
        4      C6              -1.374413       7.763641      -0.334045             -0.727308       4.108342      -0.176769
        5      C19             -0.901702      -3.571934       0.246602             -0.477160      -1.890186       0.130496
        6      N2               2.190746      -0.173263      -0.196841              1.159293      -0.091687      -0.104164
        7      N5               0.030683       5.460322      -0.848873              0.016237       2.889478      -0.449204
        8      O7              -2.044007       0.694259      -0.800866             -1.081642       0.367386      -0.423800
        9      O8               2.932074       6.121443       2.322969              1.551587       3.239328       1.229262
       10      H9              -2.065251      -4.319101      -1.324038             -1.092884      -2.285570      -0.700651
       11      H10             -2.073819      -3.683522       1.979885             -1.097418      -1.949236       1.047710
       12      H11              0.785019      -4.785871       0.496754              0.415414      -2.532574       0.262871
       13      H12              3.366619      -1.631295       0.268634              1.781538      -0.863244       0.142155
       14      H13              4.944550       2.173102       1.386290              2.616543       1.149956       0.733593
       15      H14              4.379389       2.722904      -1.895441              2.317473       1.440899      -1.003024
       16      H15             -0.958754       3.935358      -1.576765             -0.507351       2.082502      -0.834388
       17      H16             -3.095691       7.402891       0.819140             -1.638169       3.917441       0.433470
       18      H17             -0.137024       9.067807       0.732224             -0.072510       4.798477       0.387476
       19      H18             -1.965289       8.673314      -2.127611             -1.039986       4.589720      -1.125883
 
                    ************************************************* 
                    **** InterNuclear Distances / Bohr, Angstrom **** 
                    ************************************************* 
 
     Atom centers         Bohr        Angstrom
   13 H12       6 N2      1.930078        1.021353
   16 H15       7 N5      1.958144        1.036205
   14 H13       2 C3      2.089860        1.105907
   18 H17       4 C6      2.090194        1.106083
   10 H9        5 C19     2.092610        1.107362
   12 H11       5 C19     2.093143        1.107643
   11 H10       5 C19     2.095372        1.108823
   19 H18       4 C6      2.096071        1.109193
   17 H16       4 C6      2.103039        1.112880
   15 H14       2 C3      2.107635        1.115313
    9 O8        3 C4      2.329854        1.232906
    8 O7        1 C1      2.337598        1.237004
    7 N5        3 C4      2.580817        1.365709
    6 N2        1 C1      2.589281        1.370188
    7 N5        4 C6      2.746748        1.453516
    6 N2        2 C3      2.783534        1.472983
    5 C19       1 C1      2.883624        1.525948
    3 C4        2 C3      2.939829        1.555691
   11 H10      10 H9      3.364513        1.780423
   15 H14      14 H13     3.375121        1.786037
   18 H17      17 H16     3.396058        1.797117
   19 H18      17 H16     3.402223        1.800379
   12 H11      11 H10     3.404087        1.801365
   12 H11      10 H9      3.414264        1.806751
   19 H18      18 H17     3.417137        1.808271
   16 H15       8 O7      3.504928        1.854728
   16 H15       3 C4      3.806868        2.014508
   13 H12       1 C1      3.820310        2.021621
   18 H17       7 N5      3.942327        2.086190
   14 H13       6 N2      3.949072        2.089759
   13 H12       2 C3      3.956479        2.093678
   14 H13       3 C4      3.991462        2.112191
   19 H18       7 N5      3.992792        2.112895
   15 H14       6 N2      4.007890        2.120884
   17 H16       7 N5      4.041046        2.138429
   16 H15       4 C6      4.046341        2.141231
   15 H14       3 C4      4.055968        2.146326
   11 H10       1 C1      4.062128        2.149586
   10 H9        1 C1      4.067992        2.152689
   13 H12      12 H11     4.082653        2.160447
   12 H11       1 C1      4.211775        2.228776
   14 H13      13 H12     4.267605        2.258319
    9 O8        7 N5      4.349221        2.301509
    8 O7        6 N2      4.364697        2.309698
    9 O8        2 C3      4.519895        2.391825
   14 H13       9 O8      4.529550        2.396934
    8 O7        5 C19     4.538992        2.401931
   18 H17       9 O8      4.542125        2.403589
    6 N2        5 C19     4.616366        2.442876
    4 C6        3 C4      4.620868        2.445258
   13 H12       5 C19     4.688830        2.481222
    7 N5        2 C3      4.706901        2.490785
   17 H16      16 H15     4.725530        2.500643
   18 H17       3 C4      4.800237        2.540176
   12 H11       6 N2      4.871683        2.577984
   19 H18      16 H15     4.874912        2.579692
    2 C3        1 C1      4.882214        2.583556
   16 H15       2 C3      4.927716        2.607635
   16 H15       1 C1      4.948190        2.618469
   15 H14      13 H12     4.966686        2.628257
    6 N2        3 C4      5.021535        2.657282
   10 H9        8 O7      5.040629        2.667386
   11 H10       8 O7      5.186370        2.744509
    8 O7        7 N5      5.198269        2.750806
   15 H14       7 N5      5.244044        2.775029
    9 O8        4 C6      5.319997        2.815221
   16 H15       6 N2      5.357641        2.835141
   16 H15      15 H14     5.483373        2.901676
   15 H14       9 O8      5.607117        2.967158
--
 
 
            Nuclear Potential Energy            460.28047872 au
 
 
      Basis set specifications :
      Symmetry species         a  
      Basis functions          212
 
 
      Input file to MOLDEN was generated!
 
--- Stop Module: seward at Tue Jun 10 17:14:22 2025 /rc=_RC_ALL_IS_WELL_ ---
*** files: orca_geometry_optimisation_15_300_BP86_def2-SVP_def2J_scf_cas1_ras12i11_cas8.GssOrb
           orca_geometry_optimisation_15_300_BP86_def2-SVP_def2J_scf_cas1_ras12i11_cas8.guessorb.molden xmldump
    saved to directory /home/pcaah4/diamide_project
--- Module seward spent 1 minute 50 seconds ---

*** symbolic link created: INPORB -> orca_geometry_optimisation_15_300_BP86_def2-SVP_def2J_scf_cas1_ras12i11_cas8.GssOrb
--- Start Module: rasscf at Tue Jun 10 17:14:22 2025 ---
 
()()()()()()()()()()()()()()()()()()()()()()()()()()()()()()()()()()()()()()()()()()()()()()()()()()

                                              &RASSCF

                                   only a single process is used
                       available to each process: 2.0 GB of memory, 1 thread
                                            pid: 3120681
()()()()()()()()()()()()()()()()()()()()()()()()()()()()()()()()()()()()()()()()()()()()()()()()()()
 
 
      Header of the ONEINT file:
      --------------------------
      orca_geometry_optimisation_15_300_BP86_def2-SVP_def2J_scf_cas1_ras12i11
      Integrals generated by Gateway/Seward, Tue Jun 10 17:12:32 2025
 
 
      OrdInt status: non-squared
 
 
      Cartesian coordinates in Angstrom:
      -----------------------------------------------------
      No.  Label        X            Y            Z        
      -----------------------------------------------------
       1   C1        -0.16996600  -0.42137300  -0.14652000
       2   C3         1.81921400   1.22306500  -0.02926400
       3   C4         1.05708800   2.52350600   0.35569100
       4   C6        -0.72730800   4.10834200  -0.17676900
       5   C19       -0.47716000  -1.89018600   0.13049600
       6   N2         1.15929300  -0.09168700  -0.10416400
       7   N5         0.01623700   2.88947800  -0.44920400
       8   O7        -1.08164200   0.36738600  -0.42380000
       9   O8         1.55158700   3.23932800   1.22926200
      10   H9        -1.09288400  -2.28557000  -0.70065100
      11   H10       -1.09741800  -1.94923600   1.04771000
      12   H11        0.41541400  -2.53257400   0.26287100
      13   H12        1.78153800  -0.86324400   0.14215500
      14   H13        2.61654300   1.14995600   0.73359300
      15   H14        2.31747300   1.44089900  -1.00302400
      16   H15       -0.50735100   2.08250200  -0.83438800
      17   H16       -1.63816900   3.91744100   0.43347000
      18   H17       -0.07251000   4.79847700   0.38747600
      19   H18       -1.03998600   4.58972000  -1.12588300
      -----------------------------------------------------
      Nuclear repulsion energy =  460.28047872
 
++    Wave function specifications:
      -----------------------------
 
      Number of closed shell electrons          58
      Number of electrons in active shells      12
      Max number of holes in RAS1 space          0
      Max nr of electrons in RAS3 space          0
      Number of inactive orbitals               29
      Number of active orbitals                  8
      Number of secondary orbitals             172
      Spin quantum number                      0.0
      State symmetry                             1
--
 
++    Orbital specifications:
      -----------------------
 
      Symmetry species                           1
                                                 a
      Frozen orbitals                            0
      Inactive orbitals                         29
      Active orbitals                            8
      RAS1 orbitals                              0
      RAS2 orbitals                              8
      RAS3 orbitals                              0
      Secondary orbitals                       172
      Deleted orbitals                           3
      Number of basis functions                212
--
 
++    CI expansion specifications:
      ----------------------------
 
      Number of CSFs                           336
      Number of determinants                   406
      Number of root(s) required                 7
      Root chosen for geometry opt.              7
      CI roots used                              1     2     3     4     5     6     7
      weights                                0.143 0.143 0.143 0.143 0.143 0.143 0.143
      highest root included in the CI            7
      max. size of the explicit Hamiltonian    200
--
 
++    Optimization specifications:
      ----------------------------
 
      RASSCF algorithm: Conventional
      Maximum number of macro iterations        64
      Maximum number of SX iterations           25
      Threshold for RASSCF energy            0.100E-07
      Threshold for max MO rotation          0.100E+00
      Threshold for max BLB element          0.100E-03
      Level shift parameter                  0.300E+00
      Make Quasi-Newton update
--
 
      The MO-coefficients are taken from the file:
      /home/pcaah4/diamide_project/cas/ras12i11/ras_orb/orca_geometry_optimisation_15_300_BP86_def2-SVP_def2J_scf_cas1_ras12i11.RasOrb                                                                                                                                
      Title: RASSCF average (pseudo-natural) orbitals                                      
 
      Total molecular charge    0.00
 
      ************************************************************************************************************************
      *                                                                                                                      *
      *                                            Wave function control section                                             *
      *                                                                                                                      *
      ************************************************************************************************************************
 
 
                                         RASSCF iterations: Energy and convergence statistics
                                         ----------------------------------------------------
 
      Iter CI   SX   CI       RASSCF       Energy    max ROT     max BLB   max BLB  Level Ln srch  Step   QN   Walltime
          iter iter root      energy       change     param      element    value   shift minimum  type update hh:mm:ss
 Nr of preliminary CI iterations:   5
        1   1   25    0  -453.68842812    0.00E+00   0.39E-01   34  39 1 -0.30E-01*  0.20   0.00    SX    NO    0:00:13
        2   4   11    0  -453.69707399   -0.86E-02* -0.15E-01   34  39 1 -0.58E-02*  0.19   0.00    SX    NO    0:00:06
        3   1   11    0  -453.69801765   -0.94E-03* -0.86E-02   34  39 1 -0.45E-02*  0.19   0.00    SX    NO    0:00:06
        4   5   11    0  -453.69838784   -0.37E-03* -0.50E-02   30  38 1  0.23E-02*  0.19   0.00    SX    NO    0:00:06
        5   4   11    0  -453.69848167   -0.94E-04* -0.66E-02   34  39 1 -0.73E-03*  0.19   1.44    QN   YES    0:00:06
        6   5   10    0  -453.69852650   -0.45E-04* -0.14E-02   32  39 1 -0.33E-03*  0.19   1.11    QN   YES    0:00:07
        7   3    9    0  -453.69853025   -0.37E-05* -0.94E-03   21  97 1  0.17E-03*  0.19   1.32    QN   YES    0:00:06
        8   5    9    0  -453.69853169   -0.14E-05*  0.34E-03   34  39 1  0.98E-04   0.19   1.07    QN   YES    0:00:06
        9   3    8    0  -453.69853198   -0.30E-06*  0.16E-03   37  41 1 -0.33E-04   0.19   1.47    LS   YES    0:00:06
       10   3    7    0  -453.69853202   -0.35E-07* -0.19E-03   34  39 1 -0.44E-04   0.19   1.00    QN   YES    0:00:06
       11   3    7    0  -453.69853206   -0.43E-07* -0.16E-03   37  41 1 -0.21E-04   0.19   1.84    LS   YES    0:00:06
       12   3    7    0  -453.69853208   -0.14E-07*  0.17E-03   37  41 1 -0.15E-04   0.19   1.13    QN   YES    0:00:06
       13   1    7    0  -453.69853209   -0.11E-07*  0.15E-03   37  41 1 -0.84E-05   0.19   1.64    QN   YES    0:00:06
       14   3    6    0  -453.69853209   -0.57E-08   0.68E-04   34  39 1  0.37E-05   0.19   1.18    QN   YES    0:00:06
      Convergence after 14 iterations
       15   1    6    0  -453.69853209   -0.98E-09   0.68E-04   33 101 1 -0.98E-06   0.19   1.18    QN   YES    0:00:06
 
      ************************************************************************************************************************
                                                      Wave function printout:
                       occupation of active orbitals, and spin coupling of open shells (u,d: Spin up or down)
      ************************************************************************************************************************
 
      Note: transformation to natural orbitals
      has been made, which may change the order of the CSFs.
 
      printout of CI-coefficients larger than  0.05 for root  1
      energy=    -453.943460
      conf/sym  11111111     Coeff  Weight
             1  22222200   0.96179 0.92504
             2  22222ud0   0.08576 0.00735
             4  22222020  -0.09435 0.00890
            61  2u2222d0   0.09377 0.00879
            62  2u222d20  -0.07200 0.00518
            84  u222220d   0.12340 0.01523
           105  22202202  -0.08086 0.00654
           171  20222220  -0.10216 0.01044
           195  02222202  -0.07750 0.00601
 
      printout of CI-coefficients larger than  0.05 for root  2
      energy=    -453.741884
      conf/sym  11111111     Coeff  Weight
             2  22222ud0   0.10177 0.01036
             3  2222u2d0   0.95031 0.90308
             5  2222ud20  -0.13849 0.01918
            63  2u22d220  -0.17415 0.03033
            86  u222d2ud   0.06360 0.00405
            88  u222u2dd   0.10785 0.01163
           107  2220u2d2  -0.08061 0.00650
           197  0222u2d2  -0.07748 0.00600
 
      printout of CI-coefficients larger than  0.05 for root  3
      energy=    -453.718151
      conf/sym  11111111     Coeff  Weight
             7  22222u0d  -0.18591 0.03456
             8  2222u20d   0.05025 0.00252
            24  222u220d   0.07834 0.00614
            44  22u2220d   0.93259 0.86972
            45  22u22dud   0.05617 0.00315
            47  22u22udd   0.09543 0.00911
            49  22u2202d  -0.08620 0.00743
           115  22ud2202  -0.15242 0.02323
           165  u2d22202  -0.11323 0.01282
           219  2uu222dd  -0.07384 0.00545
           220  2uu22d2d   0.06525 0.00426
           293  20u2222d   0.10281 0.01057
 
      printout of CI-coefficients larger than  0.05 for root  4
      energy=    -453.644674
      conf/sym  11111111     Coeff  Weight
             2  22222ud0  -0.37908 0.14370
             4  22222020  -0.09889 0.00978
             7  22222u0d   0.31201 0.09735
             8  2222u20d   0.43194 0.18657
            10  2222udud  -0.07506 0.00563
            12  2222uudd  -0.10869 0.01181
            24  222u220d  -0.66558 0.44300
            27  222u2udd  -0.05308 0.00282
            29  222u202d   0.07343 0.00539
            44  22u2220d   0.09420 0.00887
            61  2u2222d0   0.05807 0.00337
            62  2u222d20   0.07971 0.00635
           135  u22d2202   0.16175 0.02616
           171  20222220   0.05109 0.00261
           207  2u2u22dd   0.06976 0.00487
           261  202u222d  -0.07024 0.00493
 
      printout of CI-coefficients larger than  0.05 for root  5
      energy=    -453.623857
      conf/sym  11111111     Coeff  Weight
             1  22222200   0.05246 0.00275
             2  22222ud0  -0.67873 0.46067
             3  2222u2d0   0.06964 0.00485
             4  22222020  -0.16556 0.02741
             7  22222u0d  -0.61895 0.38310
            24  222u220d   0.09304 0.00866
            44  22u2220d  -0.13090 0.01713
            61  2u2222d0   0.07114 0.00506
            62  2u222d20   0.14613 0.02136
            65  2u222dud   0.10045 0.01009
            67  2u222udd   0.10052 0.01010
            87  u2222udd  -0.08048 0.00648
            93  u2222d02   0.05282 0.00279
           106  22202ud2   0.05952 0.00354
           171  20222220   0.09524 0.00907
           173  20222u2d  -0.08861 0.00785
           196  02222ud2   0.05307 0.00282
 
      printout of CI-coefficients larger than  0.05 for root  6
      energy=    -453.619071
      conf/sym  11111111     Coeff  Weight
             2  22222ud0  -0.46891 0.21987
             4  22222020  -0.10911 0.01191
             7  22222u0d   0.62589 0.39174
             8  2222u20d  -0.13226 0.01749
            24  222u220d   0.50308 0.25309
            44  22u2220d   0.08642 0.00747
            62  2u222d20   0.10378 0.01077
            65  2u222dud  -0.11828 0.01399
            67  2u222udd  -0.11360 0.01290
           135  u22d2202  -0.11681 0.01364
           171  20222220   0.06530 0.00426
           173  20222u2d   0.09272 0.00860
           261  202u222d   0.05325 0.00284
 
      printout of CI-coefficients larger than  0.05 for root  7
      energy=    -453.598627
      conf/sym  11111111     Coeff  Weight
             2  22222ud0  -0.09206 0.00847
             4  22222020  -0.05505 0.00303
             7  22222u0d   0.08164 0.00667
             8  2222u20d  -0.80077 0.64124
            10  2222udud   0.18146 0.03293
            12  2222uudd   0.27031 0.07307
            24  222u220d  -0.42219 0.17824
            44  22u2220d   0.09392 0.00882
            61  2u2222d0   0.06232 0.00388
            71  2u22ud2d   0.06960 0.00484
            94  u222d202   0.05258 0.00276
           135  u22d2202   0.09658 0.00933
           174  2022u22d  -0.06464 0.00418
 
      Natural orbitals and occupation numbers for root  1
      sym 1:   1.973038   1.947422   1.999901   1.993612   1.999668   1.995219   0.057603   0.033536
 
      Natural orbitals and occupation numbers for root  2
      sym 1:   1.999812   1.971677   1.999889   1.993764   1.011260   1.999089   0.990073   0.034436
 
      Natural orbitals and occupation numbers for root  3
      sym 1:   1.999972   1.995800   0.984169   1.999565   1.999655   1.944541   0.059319   1.016979
 
      Natural orbitals and occupation numbers for root  4
      sym 1:   1.992289   1.944556   1.999641   1.183501   1.964070   1.802340   0.245100   0.868503
 
      Natural orbitals and occupation numbers for root  5
      sym 1:   1.984372   1.934205   1.993583   1.974360   1.998948   1.118388   0.902865   0.093279
 
      Natural orbitals and occupation numbers for root  6
      sym 1:   1.981996   1.926344   1.999052   1.894563   1.998954   1.102243   0.176527   0.920321
 
      Natural orbitals and occupation numbers for root  7
      sym 1:   1.995739   1.974466   1.999728   1.953665   1.111549   1.923811   0.102317   0.938724
 
      ************************************************************************************************************************
      *                                                                                                                      *
      *                                                    Final results                                                     *
      *                                                                                                                      *
      ************************************************************************************************************************
 
 
++    Wave function specifications:
      -----------------------------
 
      Number of closed shell electrons          58
      Number of electrons in active shells      12
      Max number of holes in RAS1 space          0
      Max nr of electrons in RAS3 space          0
      Number of inactive orbitals               29
      Number of active orbitals                  8
      Number of secondary orbitals             172
      Spin quantum number                      0.0
      State symmetry                             1
--
 
++    Orbital specifications:
      -----------------------
 
      Symmetry species                           1
                                                 a
      Frozen orbitals                            0
      Inactive orbitals                         29
      Active orbitals                            8
      RAS1 orbitals                              0
      RAS2 orbitals                              8
      RAS3 orbitals                              0
      Secondary orbitals                       172
      Deleted orbitals                           3
      Number of basis functions                212
--
 
++    CI expansion specifications:
      ----------------------------
 
      Number of CSFs                           336
      Number of determinants                   406
      Number of root(s) required                 7
      CI roots used                              1     2     3     4     5     6     7
      weights                                0.143 0.143 0.143 0.143 0.143 0.143 0.143
      highest root included in the CI            7
      Root passed to geometry opt.               7
--
 
++    Final optimization conditions:
      ------------------------------
 
      Average CI energy                            -453.69853209
      RASSCF energy for state  7                   -453.59862746
      Super-CI energy                                -0.00000000
      RASSCF energy change                            0.00000000
      Max change in MO coefficients               0.768E-04
      Max non-diagonal density matrix element     0.682E-04
      Maximum BLB matrix element                 -0.979E-06
      (orbital pair  33, 101 in symmetry   1)
      Norm of electronic gradient            0.335E+00
--
 
 
      Final state energy(ies):
      ------------------------
 
::    RASSCF root number  1 Total energy:   -453.94346026
::    RASSCF root number  2 Total energy:   -453.74188423
::    RASSCF root number  3 Total energy:   -453.71815052
::    RASSCF root number  4 Total energy:   -453.64467415
::    RASSCF root number  5 Total energy:   -453.62385739
::    RASSCF root number  6 Total energy:   -453.61907066
::    RASSCF root number  7 Total energy:   -453.59862746
 
++    Molecular orbitals:
      -------------------
 
      Pseudonatural active orbitals and approximate occupation numbers
 
 
 
 
      Molecular orbitals for symmetry species 1: a  
 
 
      Orbital                 1         2         3         4         5         6         7         8         9        10
      Energy           -20.6029  -20.5204  -15.6255  -15.5922  -11.3451  -11.3005  -11.2840  -11.2817  -11.2242   -1.4258
      Occ. No.           2.0000    2.0000    2.0000    2.0000    2.0000    2.0000    2.0000    2.0000    2.0000    2.0000
 
     1 C1     1s        -0.0001    0.0002   -0.0000    0.0002   -0.0001   -0.0008   -0.0001    0.9999   -0.0053   -0.0004
     2 C1     2s        -0.0004    0.0005   -0.0001    0.0008   -0.0006   -0.0014   -0.0005    0.0019   -0.0004    0.0243
     3 C1     3s        -0.0002   -0.0008   -0.0002    0.0004   -0.0004   -0.0010   -0.0004   -0.0004   -0.0007    0.0089
     4 C1     4s        -0.0001   -0.0004   -0.0001    0.0001   -0.0001   -0.0003   -0.0001    0.0012   -0.0002    0.0036
     5 C1     2px       -0.0006   -0.0017    0.0001    0.0016   -0.0002   -0.0007   -0.0001    0.0011   -0.0001    0.0116
     6 C1     3px       -0.0008   -0.0010    0.0001    0.0013   -0.0002   -0.0008   -0.0002    0.0008    0.0001    0.0193
     7 C1     4px       -0.0002    0.0002   -0.0000   -0.0001   -0.0000   -0.0001   -0.0001    0.0003    0.0001    0.0048
     8 C1     2py        0.0000    0.0021   -0.0003    0.0006   -0.0005   -0.0001   -0.0002    0.0009   -0.0008    0.0170
     9 C1     3py       -0.0001    0.0013   -0.0003    0.0003   -0.0006   -0.0004   -0.0002    0.0009   -0.0000    0.0198
    10 C1     4py       -0.0001   -0.0004   -0.0000   -0.0001   -0.0001   -0.0003   -0.0000    0.0007    0.0003    0.0071
    11 C1     2pz       -0.0002   -0.0006    0.0000    0.0002    0.0000    0.0000    0.0001   -0.0001    0.0002   -0.0021
    12 C1     3pz       -0.0002   -0.0003    0.0000    0.0001   -0.0000    0.0001    0.0001    0.0001    0.0000   -0.0011
    13 C1     4pz       -0.0000    0.0001   -0.0000   -0.0000   -0.0000    0.0001   -0.0000   -0.0001   -0.0000   -0.0003
    14 C1     3d2-       0.0000    0.0002    0.0000    0.0000   -0.0000   -0.0000    0.0000   -0.0003    0.0000   -0.0010
    15 C1     3d1-       0.0000   -0.0000   -0.0000    0.0000    0.0000    0.0000    0.0000   -0.0001    0.0000   -0.0006
    16 C1     3d0       -0.0000   -0.0000    0.0000    0.0001    0.0000   -0.0000    0.0000   -0.0003    0.0001   -0.0009
    17 C1     3d1+      -0.0000   -0.0000    0.0000    0.0000    0.0000    0.0000   -0.0000    0.0001   -0.0000    0.0006
    18 C1     3d2+       0.0000   -0.0000    0.0000   -0.0002    0.0000    0.0000    0.0000    0.0002   -0.0001    0.0004
    19 C3     1s         0.0001    0.0001    0.0000    0.0005    0.0060    0.9995    0.0000    0.0006    0.0000   -0.0119
    20 C3     2s         0.0004    0.0006    0.0003    0.0030    0.0001   -0.0010    0.0008    0.0002    0.0002    0.0121
    21 C3     3s         0.0003    0.0004    0.0002    0.0016   -0.0002   -0.0023    0.0004    0.0001    0.0001   -0.0336
    22 C3     4s         0.0000    0.0001    0.0000    0.0002   -0.0000    0.0007    0.0000   -0.0000   -0.0000   -0.0044
    23 C3     2px       -0.0006   -0.0004    0.0002   -0.0007    0.0002    0.0001   -0.0002    0.0005    0.0001    0.0076
    24 C3     3px       -0.0005   -0.0004    0.0001   -0.0002    0.0004    0.0001   -0.0003    0.0007    0.0002    0.0170
    25 C3     4px        0.0001    0.0000    0.0000    0.0003   -0.0000   -0.0007   -0.0000    0.0002    0.0001   -0.0036
    26 C3     2py       -0.0009   -0.0001    0.0000   -0.0002   -0.0000   -0.0005   -0.0000    0.0003   -0.0002    0.0257
    27 C3     3py       -0.0011   -0.0001   -0.0001    0.0006   -0.0007   -0.0004   -0.0003    0.0003   -0.0001    0.0058
    28 C3     4py       -0.0002   -0.0000   -0.0001    0.0003   -0.0003   -0.0004   -0.0002   -0.0000    0.0001    0.0072
    29 C3     2pz       -0.0011   -0.0001    0.0007    0.0002    0.0004   -0.0001   -0.0002    0.0004   -0.0002    0.0230
    30 C3     3pz       -0.0011   -0.0001    0.0006    0.0002    0.0003   -0.0000   -0.0003    0.0004   -0.0001    0.0075
    31 C3     4pz       -0.0000    0.0000   -0.0000   -0.0000    0.0000   -0.0000   -0.0001    0.0001    0.0000   -0.0002
    32 C3     3d2-      -0.0000    0.0000   -0.0000    0.0000   -0.0000   -0.0000   -0.0001    0.0000    0.0000   -0.0005
    33 C3     3d1-      -0.0000    0.0000    0.0001    0.0000   -0.0000   -0.0000    0.0000    0.0000   -0.0000    0.0030
    34 C3     3d0       -0.0000    0.0000    0.0000    0.0000    0.0000    0.0001   -0.0000   -0.0000   -0.0000   -0.0005
    35 C3     3d1+       0.0000   -0.0000    0.0001   -0.0001   -0.0001    0.0000   -0.0000    0.0000   -0.0000   -0.0023
    36 C3     3d2+       0.0001   -0.0000   -0.0000    0.0001   -0.0000    0.0000   -0.0000    0.0001   -0.0000   -0.0050
    37 C4     1s         0.0004   -0.0001    0.0003   -0.0002    1.0000   -0.0060    0.0001   -0.0001   -0.0000   -0.0412
    38 C4     2s         0.0016   -0.0004    0.0014   -0.0011    0.0025    0.0008   -0.0002   -0.0005   -0.0000    0.3372
    39 C4     3s         0.0000   -0.0003    0.0006   -0.0008    0.0001    0.0003   -0.0002   -0.0004   -0.0000   -0.0180
    40 C4     4s        -0.0003   -0.0001    0.0001   -0.0002    0.0013    0.0001   -0.0001   -0.0001   -0.0000    0.0004
    41 C4     2px        0.0015    0.0002   -0.0014   -0.0006   -0.0003    0.0006    0.0002   -0.0004   -0.0000    0.0302
    42 C4     3px        0.0013    0.0003   -0.0009   -0.0006   -0.0005    0.0007    0.0007   -0.0004   -0.0001   -0.0322
    43 C4     4px       -0.0000    0.0001    0.0002   -0.0001   -0.0001    0.0001    0.0004   -0.0000   -0.0000    0.0068
    44 C4     2py        0.0017   -0.0000    0.0006    0.0009    0.0010   -0.0008    0.0001    0.0004    0.0001    0.0866
    45 C4     3py        0.0012   -0.0000    0.0003    0.0009    0.0005   -0.0001   -0.0004    0.0007    0.0002   -0.0395
    46 C4     4py       -0.0002   -0.0000   -0.0002    0.0001    0.0005    0.0003   -0.0004    0.0002    0.0001    0.0174
    47 C4     2pz        0.0022    0.0000   -0.0010   -0.0004   -0.0004   -0.0004   -0.0000   -0.0006   -0.0000    0.0733
    48 C4     3pz        0.0016    0.0001   -0.0009   -0.0004   -0.0003   -0.0002   -0.0001   -0.0006   -0.0000   -0.0384
    49 C4     4pz       -0.0002    0.0000    0.0000    0.0000    0.0000    0.0000   -0.0000   -0.0000   -0.0000    0.0183
    50 C4     3d2-      -0.0001   -0.0000   -0.0000    0.0000    0.0001    0.0000   -0.0001   -0.0000   -0.0000    0.0136
    51 C4     3d1-      -0.0001   -0.0000    0.0000   -0.0000    0.0003   -0.0000   -0.0000   -0.0001   -0.0000    0.0304
    52 C4     3d0       -0.0001    0.0000   -0.0001   -0.0000    0.0001   -0.0000   -0.0000   -0.0000   -0.0000    0.0098
    53 C4     3d1+      -0.0000   -0.0000   -0.0002   -0.0000    0.0005   -0.0001    0.0001   -0.0000   -0.0000    0.0276
    54 C4     3d2+      -0.0000    0.0000   -0.0001    0.0001    0.0001   -0.0001    0.0000    0.0000   -0.0000   -0.0036
    55 C6     1s         0.0001    0.0000    0.0004   -0.0002   -0.0001    0.0002    0.9997   -0.0000    0.0000   -0.0076
    56 C6     2s         0.0007    0.0001    0.0019   -0.0012    0.0003    0.0005   -0.0001   -0.0003    0.0000    0.0225
    57 C6     3s         0.0005    0.0001    0.0007   -0.0009    0.0000    0.0004   -0.0017   -0.0003   -0.0000   -0.0102
    58 C6     4s         0.0001    0.0000   -0.0000   -0.0003   -0.0001    0.0001    0.0009   -0.0001   -0.0000    0.0001
    59 C6     2px        0.0003   -0.0000    0.0003   -0.0002   -0.0003    0.0003    0.0000   -0.0002    0.0000    0.0093
    60 C6     3px        0.0002   -0.0000   -0.0001   -0.0002   -0.0004    0.0002   -0.0000   -0.0003   -0.0000   -0.0046
    61 C6     4px       -0.0001   -0.0000   -0.0001   -0.0000   -0.0002   -0.0001    0.0004   -0.0001   -0.0000    0.0029
    62 C6     2py       -0.0001   -0.0000   -0.0006    0.0004    0.0001   -0.0001   -0.0001    0.0001    0.0000   -0.0202
    63 C6     3py       -0.0000   -0.0000    0.0001    0.0003    0.0001   -0.0001    0.0002    0.0001    0.0000   -0.0017
    64 C6     4py        0.0000    0.0000    0.0002   -0.0001    0.0000    0.0000   -0.0006    0.0000   -0.0000   -0.0019
    65 C6     2pz       -0.0002   -0.0001   -0.0001    0.0001    0.0000    0.0000   -0.0000   -0.0000   -0.0001    0.0068
    66 C6     3pz       -0.0001   -0.0001   -0.0000    0.0001   -0.0001    0.0000    0.0002   -0.0000   -0.0001    0.0054
    67 C6     4pz       -0.0000    0.0000   -0.0000   -0.0000   -0.0001    0.0000   -0.0001   -0.0000    0.0000   -0.0006
    68 C6     3d2-      -0.0000   -0.0000    0.0000    0.0000   -0.0000   -0.0000    0.0001   -0.0000    0.0000   -0.0033
    69 C6     3d1-       0.0000   -0.0000   -0.0001   -0.0000   -0.0000    0.0000   -0.0001   -0.0000    0.0000    0.0006
    70 C6     3d0       -0.0000    0.0000    0.0000    0.0000   -0.0000   -0.0000    0.0001   -0.0000    0.0000   -0.0027
    71 C6     3d1+       0.0000    0.0000   -0.0000    0.0000    0.0000    0.0000    0.0000    0.0000    0.0000   -0.0007
    72 C6     3d2+      -0.0000   -0.0000    0.0000    0.0000    0.0000   -0.0000    0.0001    0.0000   -0.0000   -0.0015
    73 C19    1s        -0.0000    0.0001   -0.0001    0.0000   -0.0000    0.0001   -0.0000    0.0053    1.0000   -0.0002
    74 C19    2s        -0.0001    0.0009   -0.0004    0.0002   -0.0001    0.0007   -0.0001    0.0007    0.0020    0.0039
    75 C19    3s        -0.0002    0.0005   -0.0003    0.0002   -0.0001    0.0004   -0.0001    0.0002   -0.0005    0.0050
    76 C19    4s        -0.0001    0.0000   -0.0001    0.0000   -0.0000    0.0000   -0.0001    0.0001    0.0012    0.0030
    77 C19    2px        0.0001    0.0008    0.0001   -0.0003    0.0001    0.0002    0.0000   -0.0002   -0.0000   -0.0026
    78 C19    3px        0.0001    0.0005    0.0001   -0.0002    0.0001    0.0002    0.0000   -0.0003   -0.0000   -0.0033
    79 C19    4px        0.0000   -0.0001   -0.0000   -0.0000   -0.0000    0.0000   -0.0000   -0.0000    0.0001   -0.0003
    80 C19    2py       -0.0001    0.0000   -0.0001    0.0003   -0.0001    0.0001   -0.0001    0.0003   -0.0005    0.0052
    81 C19    3py       -0.0002   -0.0001   -0.0001    0.0003   -0.0000   -0.0000   -0.0001   -0.0003   -0.0001    0.0051
    82 C19    4py       -0.0000   -0.0002    0.0000   -0.0001    0.0000   -0.0001   -0.0000   -0.0001    0.0003    0.0009
    83 C19    2pz       -0.0000    0.0001    0.0001   -0.0002    0.0001   -0.0002   -0.0000   -0.0002    0.0001   -0.0019
    84 C19    3pz        0.0000    0.0001    0.0001   -0.0002    0.0001   -0.0002   -0.0000   -0.0001   -0.0000   -0.0023
    85 C19    4pz        0.0000    0.0000   -0.0000    0.0000    0.0000    0.0000    0.0000    0.0000   -0.0000   -0.0005
    86 C19    3d2-       0.0000    0.0001   -0.0000   -0.0000   -0.0000    0.0000   -0.0000   -0.0000   -0.0001   -0.0001
    87 C19    3d1-       0.0000   -0.0000   -0.0000   -0.0000   -0.0000   -0.0000   -0.0000    0.0000    0.0000    0.0000
    88 C19    3d0        0.0000   -0.0001   -0.0000   -0.0001   -0.0000   -0.0000    0.0000    0.0001    0.0001    0.0002
    89 C19    3d1+       0.0000    0.0000   -0.0000    0.0000    0.0000    0.0000    0.0000   -0.0000    0.0000   -0.0001
    90 C19    3d2+      -0.0000    0.0001    0.0000   -0.0000   -0.0000   -0.0000    0.0000   -0.0001    0.0001    0.0000
    91 N2     1s         0.0000    0.0001    0.0000    0.9998    0.0001    0.0002   -0.0000   -0.0003    0.0001   -0.0015
    92 N2     2s         0.0001    0.0004   -0.0000   -0.0003    0.0005    0.0021   -0.0002   -0.0003    0.0005    0.0214
    93 N2     3s         0.0001    0.0003   -0.0001   -0.0016    0.0004    0.0013   -0.0001   -0.0004    0.0003   -0.0028
    94 N2     4s         0.0000    0.0000   -0.0000    0.0004    0.0001    0.0004   -0.0000    0.0000    0.0001   -0.0010
    95 N2     2px       -0.0002    0.0004    0.0000    0.0004   -0.0002   -0.0001   -0.0002   -0.0002   -0.0003   -0.0005
    96 N2     3px       -0.0005    0.0004   -0.0001    0.0003   -0.0004   -0.0003   -0.0004   -0.0002   -0.0003    0.0034
    97 N2     4px       -0.0001   -0.0000   -0.0001   -0.0001   -0.0001    0.0000   -0.0001   -0.0003    0.0001    0.0017
    98 N2     2py       -0.0005   -0.0012   -0.0000   -0.0005    0.0003    0.0009    0.0000    0.0005   -0.0002    0.0125
    99 N2     3py       -0.0007   -0.0014   -0.0000    0.0003    0.0004    0.0008    0.0000    0.0005   -0.0002    0.0073
   100 N2     4py       -0.0001    0.0000   -0.0000    0.0006   -0.0000    0.0001   -0.0000   -0.0002    0.0001   -0.0002
   101 N2     2pz        0.0003    0.0003   -0.0001    0.0002   -0.0001    0.0000   -0.0000   -0.0002    0.0001   -0.0016
   102 N2     3pz        0.0005    0.0003   -0.0002   -0.0002   -0.0001   -0.0000   -0.0000   -0.0001    0.0001   -0.0017
   103 N2     4pz        0.0000   -0.0000   -0.0000    0.0002   -0.0000   -0.0000    0.0000    0.0001    0.0000    0.0009
   104 N2     3d2-      -0.0000    0.0001    0.0000   -0.0002    0.0000   -0.0000    0.0000   -0.0001   -0.0000    0.0002
   105 N2     3d1-       0.0000   -0.0000   -0.0000   -0.0001   -0.0000    0.0000    0.0000    0.0001   -0.0000   -0.0003
   106 N2     3d0       -0.0000   -0.0000    0.0000    0.0001   -0.0000    0.0000    0.0000    0.0001   -0.0001   -0.0005
   107 N2     3d1+       0.0000   -0.0000   -0.0000    0.0000   -0.0000   -0.0000    0.0000    0.0000    0.0000    0.0000
   108 N2     3d2+      -0.0000   -0.0001   -0.0000    0.0001   -0.0000   -0.0000   -0.0000    0.0000    0.0000    0.0000
   109 N5     1s         0.0001   -0.0000    0.9997    0.0000   -0.0003    0.0000    0.0001   -0.0000    0.0000   -0.0171
   110 N5     2s         0.0009   -0.0001   -0.0007    0.0000   -0.0005   -0.0000    0.0016   -0.0000    0.0000    0.1105
   111 N5     3s         0.0006   -0.0001   -0.0018    0.0000   -0.0005    0.0000    0.0010    0.0000    0.0000   -0.0446
   112 N5     4s         0.0001    0.0000    0.0004    0.0000   -0.0000   -0.0000    0.0004    0.0000    0.0000   -0.0106
   113 N5     2px       -0.0001    0.0000   -0.0002   -0.0005    0.0003    0.0000   -0.0007   -0.0002    0.0000    0.0264
   114 N5     3px       -0.0001   -0.0000   -0.0000   -0.0007    0.0001   -0.0001   -0.0006   -0.0003   -0.0000   -0.0052
   115 N5     4px       -0.0000   -0.0000    0.0000   -0.0001    0.0001   -0.0001   -0.0000    0.0000   -0.0000    0.0049
   116 N5     2py       -0.0013    0.0002   -0.0007    0.0005    0.0001   -0.0003    0.0007    0.0001   -0.0001    0.0270
   117 N5     3py       -0.0014    0.0002   -0.0004    0.0007   -0.0003   -0.0004    0.0006    0.0003   -0.0001    0.0245
   118 N5     4py        0.0001   -0.0000    0.0001    0.0000   -0.0003    0.0000    0.0002    0.0001   -0.0000   -0.0047
   119 N5     2pz       -0.0006    0.0000   -0.0002    0.0000    0.0000    0.0000    0.0001   -0.0000    0.0000    0.0284
   120 N5     3pz       -0.0007    0.0001   -0.0003    0.0001    0.0001    0.0000    0.0003    0.0000    0.0000   -0.0137
   121 N5     4pz       -0.0000    0.0000    0.0007    0.0000    0.0001    0.0000    0.0002    0.0001   -0.0000    0.0005
   122 N5     3d2-      -0.0000   -0.0000    0.0002   -0.0000    0.0001   -0.0000    0.0001    0.0000   -0.0000    0.0003
   123 N5     3d1-       0.0000    0.0000    0.0000    0.0000   -0.0001    0.0000   -0.0000    0.0000   -0.0000    0.0005
   124 N5     3d0       -0.0001    0.0000   -0.0000    0.0000    0.0001   -0.0000    0.0000    0.0000    0.0000    0.0019
   125 N5     3d1+      -0.0000    0.0000    0.0000   -0.0000   -0.0000    0.0000   -0.0001    0.0000    0.0000    0.0047
   126 N5     3d2+      -0.0000    0.0000   -0.0000    0.0000    0.0001    0.0000   -0.0000    0.0000    0.0000    0.0034
   127 O7     1s        -0.0000    0.9998    0.0000    0.0000    0.0000   -0.0000    0.0000   -0.0002    0.0001   -0.0011
   128 O7     2s        -0.0001   -0.0010   -0.0000    0.0003    0.0000   -0.0002    0.0002    0.0007    0.0004    0.0224
   129 O7     3s        -0.0000   -0.0011   -0.0000    0.0002    0.0000   -0.0001    0.0001    0.0002    0.0003   -0.0026
   130 O7     4s         0.0000    0.0002   -0.0000    0.0001    0.0000   -0.0000    0.0000    0.0001    0.0001   -0.0012
   131 O7     2px        0.0001    0.0002   -0.0001   -0.0002   -0.0000   -0.0000    0.0001    0.0007    0.0001    0.0019
   132 O7     3px        0.0002   -0.0004   -0.0001   -0.0003   -0.0000    0.0001    0.0001    0.0001    0.0001   -0.0055
   133 O7     4px        0.0000    0.0010   -0.0000   -0.0001   -0.0000    0.0001    0.0000    0.0001   -0.0000   -0.0011
   134 O7     2py        0.0002   -0.0003   -0.0003   -0.0004   -0.0001    0.0000   -0.0001   -0.0005   -0.0002   -0.0009
   135 O7     3py        0.0003    0.0001   -0.0003   -0.0004   -0.0001    0.0001   -0.0002   -0.0003   -0.0002    0.0012
   136 O7     4py        0.0001   -0.0008   -0.0001   -0.0000   -0.0000    0.0000   -0.0000   -0.0002    0.0000    0.0002
   137 O7     2pz        0.0001    0.0001    0.0000    0.0001   -0.0000   -0.0000   -0.0000   -0.0000    0.0001    0.0010
   138 O7     3pz        0.0001   -0.0001    0.0000    0.0000   -0.0000   -0.0000   -0.0001    0.0001    0.0001   -0.0002
   139 O7     4pz        0.0000    0.0003   -0.0000   -0.0000    0.0000   -0.0000   -0.0000    0.0001   -0.0000    0.0001
   140 O7     3d2-       0.0000    0.0001   -0.0000   -0.0000    0.0000    0.0000   -0.0000   -0.0002   -0.0000   -0.0005
   141 O7     3d1-       0.0000    0.0000    0.0000   -0.0000    0.0000   -0.0000   -0.0000   -0.0000   -0.0000   -0.0002
   142 O7     3d0       -0.0000    0.0000    0.0000   -0.0000    0.0000    0.0000   -0.0000   -0.0001   -0.0000   -0.0003
   143 O7     3d1+       0.0000   -0.0000    0.0000    0.0000   -0.0000   -0.0000   -0.0000    0.0001    0.0000    0.0002
   144 O7     3d2+      -0.0000   -0.0000    0.0000   -0.0001    0.0000   -0.0000    0.0000    0.0001   -0.0000    0.0001
   145 O8     1s         0.9997    0.0000    0.0000    0.0000   -0.0003    0.0001   -0.0000    0.0001    0.0000   -0.0242
   146 O8     2s        -0.0014    0.0001    0.0001    0.0002    0.0004    0.0003   -0.0002    0.0005    0.0000    0.6908
   147 O8     3s        -0.0013    0.0001    0.0001    0.0001   -0.0000    0.0002   -0.0001    0.0003    0.0000   -0.0361
   148 O8     4s         0.0001    0.0000   -0.0000    0.0000    0.0000    0.0000   -0.0000    0.0001    0.0000   -0.0145
   149 O8     2px       -0.0002   -0.0001    0.0002    0.0000   -0.0001   -0.0001    0.0001   -0.0000   -0.0000   -0.0568
   150 O8     3px        0.0001   -0.0001    0.0004    0.0001    0.0000   -0.0002   -0.0000   -0.0001   -0.0000    0.0198
   151 O8     4px       -0.0006   -0.0000    0.0001    0.0000   -0.0001   -0.0000   -0.0000    0.0000   -0.0000    0.0011
   152 O8     2py       -0.0002   -0.0001   -0.0002   -0.0002   -0.0002   -0.0001   -0.0000   -0.0002   -0.0000   -0.0772
   153 O8     3py        0.0003   -0.0001   -0.0001   -0.0002   -0.0002   -0.0000   -0.0000   -0.0002   -0.0001    0.0244
   154 O8     4py       -0.0008   -0.0000    0.0001   -0.0000   -0.0003    0.0000   -0.0000   -0.0000   -0.0000   -0.0010
   155 O8     2pz       -0.0002   -0.0000    0.0002    0.0000   -0.0007   -0.0001    0.0001    0.0000   -0.0000   -0.1129
   156 O8     3pz        0.0004   -0.0000    0.0002    0.0001   -0.0001   -0.0001    0.0001    0.0001    0.0000    0.0311
   157 O8     4pz       -0.0010    0.0000    0.0001    0.0000   -0.0002    0.0000    0.0000    0.0001    0.0000    0.0006
   158 O8     3d2-      -0.0001    0.0000   -0.0000    0.0000    0.0001   -0.0000   -0.0000    0.0000    0.0000    0.0087
   159 O8     3d1-      -0.0000    0.0000    0.0000    0.0000    0.0001    0.0000    0.0000    0.0000    0.0000    0.0152
   160 O8     3d0       -0.0001    0.0000   -0.0000   -0.0000    0.0001   -0.0000   -0.0000   -0.0000   -0.0000    0.0067
   161 O8     3d1+       0.0000    0.0000   -0.0000   -0.0000    0.0001    0.0000   -0.0000    0.0000    0.0000    0.0111
   162 O8     3d2+      -0.0000   -0.0000   -0.0001   -0.0000   -0.0000   -0.0000   -0.0000   -0.0000   -0.0000   -0.0025
   163 H9     1s        -0.0001    0.0002    0.0002   -0.0000   -0.0001   -0.0004   -0.0001   -0.0002    0.0002    0.0059
   164 H9     2s        -0.0001    0.0001    0.0001   -0.0000   -0.0001   -0.0003   -0.0001   -0.0001   -0.0003    0.0042
   165 H9     2px       -0.0000   -0.0000    0.0000    0.0000   -0.0000   -0.0000   -0.0000   -0.0000   -0.0000    0.0005
   166 H9     2py       -0.0000   -0.0001    0.0000   -0.0000   -0.0000   -0.0000   -0.0000    0.0001    0.0000    0.0005
   167 H9     2pz       -0.0000    0.0000    0.0000   -0.0000   -0.0000   -0.0000   -0.0000    0.0000   -0.0001    0.0004
   168 H10    1s         0.0000    0.0001    0.0000    0.0002   -0.0001   -0.0000   -0.0000    0.0000    0.0003    0.0058
   169 H10    2s        -0.0000    0.0001    0.0000    0.0001   -0.0001   -0.0000   -0.0000    0.0000   -0.0003    0.0041
   170 H10    2px        0.0000   -0.0000   -0.0000    0.0000   -0.0000   -0.0000   -0.0000    0.0000   -0.0000    0.0004
   171 H10    2py       -0.0000   -0.0001    0.0000   -0.0000    0.0000   -0.0000    0.0000    0.0000    0.0000    0.0001
   172 H10    2pz        0.0000   -0.0000   -0.0000   -0.0000   -0.0000    0.0000    0.0000   -0.0000    0.0001   -0.0004
   173 H11    1s        -0.0001   -0.0005   -0.0001    0.0003   -0.0002   -0.0002   -0.0001    0.0001    0.0001    0.0080
   174 H11    2s        -0.0001   -0.0002   -0.0001    0.0003   -0.0001   -0.0001   -0.0001    0.0001   -0.0004    0.0053
   175 H11    2px       -0.0000    0.0000    0.0000   -0.0000    0.0000    0.0000    0.0000   -0.0000    0.0001   -0.0006
   176 H11    2py       -0.0000   -0.0000   -0.0000   -0.0000   -0.0000    0.0000   -0.0000    0.0001   -0.0000    0.0004
   177 H11    2pz        0.0000   -0.0000   -0.0000    0.0000   -0.0000    0.0000    0.0000    0.0000    0.0000   -0.0000
   178 H12    1s        -0.0005   -0.0010   -0.0001   -0.0002    0.0001    0.0002    0.0002    0.0005   -0.0003    0.0105
   179 H12    2s        -0.0003   -0.0005   -0.0001   -0.0002    0.0001    0.0002    0.0001    0.0002   -0.0001    0.0036
   180 H12    2px        0.0000    0.0000    0.0000    0.0003   -0.0000    0.0000    0.0000   -0.0002    0.0000   -0.0008
   181 H12    2py       -0.0000   -0.0000   -0.0000   -0.0003   -0.0000    0.0001    0.0000    0.0000   -0.0000    0.0013
   182 H12    2pz       -0.0000    0.0000    0.0000    0.0001    0.0000   -0.0000   -0.0000   -0.0000    0.0000   -0.0003
   183 H13    1s         0.0007    0.0003   -0.0002   -0.0005   -0.0003    0.0007   -0.0001   -0.0005    0.0001    0.0061
   184 H13    2s         0.0005    0.0002   -0.0001   -0.0002   -0.0003   -0.0000   -0.0001   -0.0004    0.0000   -0.0075
   185 H13    2px       -0.0000   -0.0000    0.0000    0.0000   -0.0000   -0.0000    0.0000    0.0000   -0.0000   -0.0007
   186 H13    2py       -0.0000    0.0000    0.0000    0.0000    0.0000   -0.0000   -0.0000    0.0000    0.0000    0.0005
   187 H13    2pz       -0.0000   -0.0000    0.0000   -0.0000   -0.0000   -0.0000    0.0000    0.0000    0.0000   -0.0002
   188 H14    1s        -0.0001    0.0002    0.0003   -0.0006    0.0000    0.0008   -0.0003   -0.0002   -0.0002    0.0201
   189 H14    2s        -0.0001    0.0002    0.0001   -0.0003    0.0001    0.0000   -0.0002   -0.0002   -0.0001    0.0070
   190 H14    2px        0.0000   -0.0000    0.0000    0.0000   -0.0001   -0.0000    0.0000    0.0000    0.0000   -0.0024
   191 H14    2py        0.0000   -0.0000   -0.0001    0.0000    0.0001   -0.0000    0.0000    0.0000    0.0000    0.0003
   192 H14    2pz       -0.0000    0.0000    0.0000    0.0000    0.0000    0.0000   -0.0000   -0.0001   -0.0000    0.0011
   193 H15    1s        -0.0012    0.0006    0.0001    0.0002    0.0004   -0.0004   -0.0003   -0.0003    0.0001    0.0352
   194 H15    2s        -0.0007    0.0004    0.0000    0.0001    0.0001   -0.0002   -0.0001   -0.0002    0.0001   -0.0020
   195 H15    2px       -0.0001    0.0000   -0.0002    0.0000    0.0001    0.0000   -0.0000   -0.0000    0.0000    0.0031
   196 H15    2py       -0.0001   -0.0001   -0.0003   -0.0000    0.0000   -0.0000    0.0000   -0.0001    0.0000    0.0045
   197 H15    2pz        0.0000    0.0001   -0.0000    0.0000    0.0001    0.0000   -0.0000    0.0000    0.0000    0.0018
   198 H16    1s         0.0004    0.0000   -0.0006   -0.0000   -0.0004    0.0001    0.0007   -0.0001    0.0000    0.0041
   199 H16    2s         0.0003   -0.0000   -0.0003   -0.0001   -0.0003    0.0000   -0.0001   -0.0001    0.0000   -0.0021
   200 H16    2px        0.0000    0.0000   -0.0001   -0.0000   -0.0001    0.0000    0.0001   -0.0000    0.0000    0.0006
   201 H16    2py       -0.0000   -0.0000    0.0000   -0.0000    0.0000    0.0000   -0.0000   -0.0000   -0.0000   -0.0005
   202 H16    2pz       -0.0000   -0.0000   -0.0000   -0.0000    0.0000   -0.0000   -0.0000    0.0000   -0.0000   -0.0004
   203 H17    1s        -0.0001    0.0000   -0.0003   -0.0002   -0.0002   -0.0002    0.0009    0.0000   -0.0000    0.0138
   204 H17    2s        -0.0000    0.0000   -0.0001   -0.0001   -0.0001   -0.0001    0.0001    0.0000   -0.0000   -0.0011
   205 H17    2px       -0.0000   -0.0000   -0.0000    0.0000    0.0000    0.0000   -0.0000    0.0000    0.0000    0.0002
   206 H17    2py        0.0000    0.0000   -0.0000    0.0000    0.0000    0.0000   -0.0001    0.0000    0.0000   -0.0012
   207 H17    2pz        0.0000   -0.0000    0.0000    0.0000    0.0000    0.0000   -0.0001    0.0000    0.0000   -0.0007
   208 H18    1s         0.0000   -0.0002   -0.0004    0.0000   -0.0002    0.0001    0.0006   -0.0001   -0.0001    0.0114
   209 H18    2s         0.0000   -0.0001   -0.0002   -0.0000   -0.0001    0.0001   -0.0000   -0.0001   -0.0001    0.0031
   210 H18    2px        0.0000   -0.0000   -0.0000    0.0000    0.0000   -0.0000    0.0000    0.0000   -0.0000    0.0007
   211 H18    2py       -0.0000    0.0000    0.0000   -0.0000    0.0000   -0.0000   -0.0000    0.0000    0.0000   -0.0006
   212 H18    2pz        0.0000   -0.0000   -0.0000   -0.0000   -0.0000    0.0000   -0.0000   -0.0000   -0.0000    0.0011
 
 
      Orbital                11        12        13        14        15        16        17        18        19        20
      Energy            -1.3593   -1.2519   -1.2196   -1.0157   -0.9657   -0.9278   -0.8138   -0.7713   -0.7108   -0.6902
      Occ. No.           2.0000    2.0000    2.0000    2.0000    2.0000    2.0000    2.0000    2.0000    2.0000    2.0000
 
     1 C1     1s         0.0390    0.0061   -0.0070   -0.0118   -0.0090    0.0033    0.0097   -0.0125   -0.0040    0.0082
     2 C1     2s        -0.3554   -0.0028    0.1146    0.2212    0.1558    0.0059   -0.2284    0.2952    0.1171   -0.2047
     3 C1     3s         0.0039    0.0197    0.0029   -0.0033   -0.0106    0.0090   -0.0005   -0.0047   -0.0056    0.0133
     4 C1     4s        -0.0032    0.0055    0.0010   -0.0021   -0.0021    0.0038    0.0011   -0.0028   -0.0019    0.0054
     5 C1     2px        0.0587    0.0258    0.1503    0.0542   -0.0238   -0.0902   -0.0851    0.1276   -0.0663    0.0837
     6 C1     3px       -0.0360   -0.0026   -0.0423   -0.0520   -0.0278    0.0429   -0.0030   -0.0366    0.0251   -0.0425
     7 C1     4px        0.0184    0.0071    0.0302   -0.0004   -0.0078   -0.0078   -0.0090    0.0071   -0.0061    0.0047
     8 C1     2py       -0.0807    0.0246   -0.0019   -0.0921   -0.1124   -0.0574   -0.0273    0.0600    0.0543    0.0602
     9 C1     3py        0.0428    0.0489    0.0339   -0.0110    0.0376    0.0626    0.0301    0.0069   -0.0289   -0.0080
    10 C1     4py       -0.0202    0.0074   -0.0004   -0.0185   -0.0149   -0.0033   -0.0004    0.0090   -0.0002    0.0004
    11 C1     2pz        0.0314   -0.0037    0.0204    0.0196    0.0201    0.0071   -0.0007   -0.0064   -0.0288   -0.0015
    12 C1     3pz       -0.0140   -0.0135   -0.0090   -0.0048   -0.0116   -0.0044   -0.0093   -0.0097    0.0078   -0.0051
    13 C1     4pz        0.0071   -0.0012    0.0040    0.0024    0.0018    0.0026   -0.0026   -0.0028   -0.0017    0.0004
    14 C1     3d2-       0.0289    0.0060    0.0240    0.0078    0.0058   -0.0013   -0.0032    0.0164    0.0056    0.0121
    15 C1     3d1-       0.0118    0.0017    0.0036   -0.0016   -0.0032   -0.0028    0.0013   -0.0018   -0.0028    0.0036
    16 C1     3d0        0.0243    0.0014   -0.0065   -0.0094   -0.0051    0.0026    0.0093   -0.0107   -0.0031    0.0046
    17 C1     3d1+      -0.0125   -0.0015   -0.0020   -0.0005   -0.0020   -0.0003   -0.0011   -0.0024   -0.0018   -0.0034
    18 C1     3d2+      -0.0095    0.0004    0.0163    0.0051   -0.0098   -0.0170   -0.0087    0.0034   -0.0055    0.0028
    19 C3     1s         0.0089   -0.0073   -0.0324    0.0403    0.0035   -0.0271   -0.0037   -0.0021   -0.0044    0.0065
    20 C3     2s        -0.0222    0.0423    0.1769   -0.3397   -0.0331    0.3395    0.0606    0.1028    0.0984   -0.0540
    21 C3     3s         0.0169   -0.0125   -0.0604    0.0747    0.0063   -0.0325   -0.0039    0.0028   -0.0021    0.0202
    22 C3     4s         0.0021   -0.0009   -0.0134    0.0192    0.0025   -0.0081   -0.0016   -0.0013   -0.0015    0.0055
    23 C3     2px        0.0165   -0.0270   -0.0444    0.0022   -0.0283    0.0516    0.0631   -0.0455    0.0070   -0.2234
    24 C3     3px       -0.0006    0.0056    0.0191   -0.0308   -0.0200    0.0117   -0.0101   -0.0056   -0.0014    0.0197
    25 C3     4px        0.0012    0.0049    0.0086   -0.0171   -0.0083    0.0174    0.0046    0.0027    0.0010   -0.0069
    26 C3     2py        0.0234    0.0077   -0.1085   -0.0414    0.0566    0.0319   -0.1621    0.1665   -0.1719   -0.0059
    27 C3     3py        0.0058    0.0117   -0.0181    0.0168   -0.0452   -0.0290   -0.0050   -0.0105    0.0391    0.0114
    28 C3     4py        0.0056    0.0060   -0.0136   -0.0041   -0.0007    0.0010   -0.0110    0.0064    0.0014    0.0013
    29 C3     2pz       -0.0023   -0.0124    0.0004    0.0048   -0.0200    0.0265   -0.0167    0.0027   -0.1619   -0.0803
    30 C3     3pz       -0.0023   -0.0015   -0.0005    0.0172   -0.0249    0.0069   -0.0076   -0.0086    0.0115    0.0041
    31 C3     4pz        0.0010    0.0018   -0.0016    0.0031   -0.0019   -0.0012   -0.0029   -0.0032   -0.0039   -0.0031
    32 C3     3d2-      -0.0033   -0.0016    0.0150    0.0092   -0.0122   -0.0073    0.0112   -0.0066    0.0217    0.0039
    33 C3     3d1-      -0.0005   -0.0031    0.0020   -0.0024   -0.0004    0.0019   -0.0023    0.0050   -0.0067    0.0030
    34 C3     3d0        0.0032   -0.0048   -0.0116    0.0062    0.0007    0.0015    0.0019    0.0035    0.0011   -0.0140
    35 C3     3d1+      -0.0008   -0.0006    0.0006    0.0010   -0.0031    0.0016    0.0047   -0.0023   -0.0001   -0.0079
    36 C3     3d2+       0.0016    0.0001   -0.0126    0.0061    0.0031   -0.0016   -0.0040    0.0124    0.0050   -0.0062
    37 C4     1s        -0.0021   -0.0090    0.0029    0.0128   -0.0108    0.0035    0.0175    0.0040    0.0058   -0.0011
    38 C4     2s        -0.0077    0.1518    0.0304   -0.2263    0.1915    0.0405   -0.3457   -0.1038   -0.2193    0.0703
    39 C4     3s        -0.0071    0.0017    0.0118    0.0175   -0.0088    0.0125    0.0270   -0.0038    0.0093    0.0082
    40 C4     4s        -0.0022    0.0008    0.0035    0.0068   -0.0030    0.0027    0.0080   -0.0024    0.0033    0.0003
    41 C4     2px        0.0055   -0.1334    0.0379   -0.0347   -0.0145    0.0906    0.0326    0.1191   -0.1830   -0.0965
    42 C4     3px       -0.0067    0.0118    0.0098   -0.0121    0.0688   -0.0514    0.0140   -0.0470    0.0573    0.0104
    43 C4     4px        0.0000   -0.0263    0.0061   -0.0055    0.0047    0.0043    0.0070    0.0041   -0.0097   -0.0098
    44 C4     2py        0.0203    0.0145   -0.0438    0.1129   -0.0540   -0.0701   -0.0407   -0.1569    0.0474   -0.0770
    45 C4     3py        0.0086    0.0409   -0.0029   -0.0207   -0.0621    0.0636   -0.0125    0.0578   -0.0229    0.0393
    46 C4     4py        0.0052    0.0063   -0.0077    0.0109   -0.0153    0.0020   -0.0070   -0.0069   -0.0023   -0.0008
    47 C4     2pz        0.0073   -0.0984    0.0137    0.0669   -0.0701    0.0300    0.0538    0.0237   -0.1272   -0.1291
    48 C4     3pz       -0.0117    0.0609    0.0148   -0.0296    0.0213    0.0109   -0.0009    0.0071    0.0415    0.0391
    49 C4     4pz        0.0017   -0.0169    0.0015    0.0044   -0.0067    0.0071    0.0030    0.0034   -0.0106   -0.0064
    50 C4     3d2-       0.0017   -0.0184   -0.0010    0.0126   -0.0049   -0.0091    0.0134    0.0031   -0.0126    0.0034
    51 C4     3d1-       0.0020   -0.0173    0.0028   -0.0021   -0.0017    0.0048    0.0005    0.0092   -0.0189    0.0015
    52 C4     3d0        0.0011   -0.0053   -0.0005    0.0050    0.0012   -0.0077    0.0048   -0.0013   -0.0010    0.0037
    53 C4     3d1+       0.0001    0.0129   -0.0029   -0.0023    0.0120   -0.0146   -0.0058   -0.0124   -0.0017    0.0042
    54 C4     3d2+      -0.0006    0.0148   -0.0054    0.0016    0.0075   -0.0088    0.0036   -0.0025    0.0040    0.0004
    55 C6     1s        -0.0003   -0.0325    0.0103   -0.0312    0.0381   -0.0307    0.0109   -0.0025    0.0039   -0.0073
    56 C6     2s        -0.0150    0.1588   -0.0044    0.1939   -0.3101    0.2780   -0.1094    0.0033   -0.0317    0.0771
    57 C6     3s        -0.0069   -0.0525    0.0340   -0.0587    0.0653   -0.0480    0.0277   -0.0088    0.0092   -0.0224
    58 C6     4s        -0.0023   -0.0083    0.0086   -0.0123    0.0143   -0.0096    0.0076   -0.0024    0.0018   -0.0070
    59 C6     2px       -0.0028    0.0504   -0.0075    0.0147    0.0073   -0.0206   -0.0165   -0.0833    0.1450   -0.1654
    60 C6     3px       -0.0024   -0.0164    0.0072   -0.0101    0.0125   -0.0030   -0.0011    0.0064   -0.0154    0.0226
    61 C6     4px       -0.0013   -0.0009    0.0021   -0.0061    0.0108   -0.0066   -0.0002   -0.0058    0.0064   -0.0088
    62 C6     2py        0.0081   -0.0929    0.0051   -0.0184   -0.0067    0.0298   -0.1203   -0.0251   -0.0175    0.2374
    63 C6     3py        0.0025    0.0142   -0.0144    0.0183   -0.0143   -0.0000   -0.0020    0.0002    0.0096   -0.0357
    64 C6     4py       -0.0006    0.0003   -0.0004    0.0092   -0.0136    0.0133   -0.0099   -0.0012   -0.0005    0.0115
    65 C6     2pz       -0.0000   -0.0186   -0.0002   -0.0119    0.0225   -0.0108   -0.0595   -0.0620    0.0510    0.0935
    66 C6     3pz       -0.0009   -0.0019   -0.0026   -0.0029    0.0156   -0.0108    0.0117    0.0060   -0.0052   -0.0151
    67 C6     4pz       -0.0001   -0.0021    0.0006    0.0008   -0.0001    0.0009   -0.0058   -0.0056    0.0029    0.0027
    68 C6     3d2-       0.0008   -0.0176    0.0029   -0.0053    0.0011    0.0030   -0.0069    0.0031   -0.0085    0.0270
    69 C6     3d1-      -0.0002    0.0053   -0.0012    0.0033   -0.0029    0.0003    0.0061    0.0016    0.0035   -0.0106
    70 C6     3d0        0.0006   -0.0119    0.0020   -0.0028   -0.0002    0.0025   -0.0024    0.0049   -0.0089    0.0136
    71 C6     3d1+       0.0006   -0.0044    0.0001   -0.0001   -0.0003    0.0007   -0.0061   -0.0043    0.0040    0.0045
    72 C6     3d2+       0.0004   -0.0105    0.0016   -0.0032    0.0017    0.0013   -0.0123   -0.0060    0.0011    0.0145
    73 C19    1s         0.0150    0.0018   -0.0100   -0.0332   -0.0516   -0.0387   -0.0132    0.0090   -0.0004   -0.0075
    74 C19    2s         0.0056    0.0054   -0.0040    0.1671    0.3103    0.2567    0.0936   -0.0468    0.0126    0.0668
    75 C19    3s         0.0383    0.0120   -0.0297   -0.0658   -0.0967   -0.0695   -0.0275    0.0256   -0.0029   -0.0125
    76 C19    4s         0.0031    0.0045   -0.0040   -0.0134   -0.0207   -0.0149   -0.0072    0.0073   -0.0015   -0.0032
    77 C19    2px        0.0112    0.0046    0.0216    0.0387    0.0239   -0.0109   -0.0187    0.0335   -0.0523   -0.0065
    78 C19    3px        0.0039    0.0018   -0.0015    0.0129    0.0056   -0.0022    0.0056    0.0016    0.0020    0.0056
    79 C19    4px       -0.0066   -0.0003   -0.0002   -0.0005   -0.0072   -0.0090   -0.0017   -0.0007   -0.0044   -0.0019
    80 C19    2py       -0.0207    0.0053    0.0138    0.0392    0.0297    0.0018   -0.0571    0.0611    0.0128   -0.1586
    81 C19    3py        0.0079    0.0080   -0.0023   -0.0165   -0.0253   -0.0121    0.0042   -0.0091   -0.0080    0.0198
    82 C19    4py       -0.0063   -0.0004    0.0009   -0.0070   -0.0160   -0.0150   -0.0102    0.0089    0.0015   -0.0073
    83 C19    2pz        0.0055   -0.0008    0.0027   -0.0049   -0.0063   -0.0011    0.0136   -0.0084   -0.0121    0.0344
    84 C19    3pz       -0.0023   -0.0017    0.0035    0.0046    0.0033    0.0010    0.0032    0.0035    0.0008   -0.0039
    85 C19    4pz        0.0005    0.0001   -0.0001    0.0013    0.0030    0.0021    0.0027   -0.0011   -0.0007    0.0013
    86 C19    3d2-       0.0018    0.0007    0.0061    0.0057    0.0036   -0.0013   -0.0041    0.0052    0.0007   -0.0058
    87 C19    3d1-       0.0015    0.0003    0.0002   -0.0029   -0.0033   -0.0016    0.0013   -0.0016    0.0002    0.0044
    88 C19    3d0       -0.0016   -0.0001   -0.0010   -0.0052   -0.0058   -0.0024    0.0022   -0.0029    0.0030    0.0048
    89 C19    3d1+       0.0004   -0.0000   -0.0015   -0.0010   -0.0005    0.0003    0.0009   -0.0014   -0.0000    0.0013
    90 C19    3d2+       0.0063    0.0008   -0.0003   -0.0067   -0.0074   -0.0038    0.0043   -0.0045   -0.0028    0.0128
    91 N2     1s         0.0190   -0.0034   -0.0402   -0.0062    0.0010    0.0023   -0.0019    0.0033    0.0010    0.0032
    92 N2     2s        -0.1408    0.0562    0.5773    0.0962   -0.1402   -0.2069    0.0284   -0.1021   -0.0151    0.1156
    93 N2     3s         0.0468   -0.0037   -0.0709   -0.0074   -0.0076   -0.0090   -0.0050    0.0040   -0.0007    0.0166
    94 N2     4s         0.0114   -0.0015   -0.0240   -0.0014    0.0005    0.0005   -0.0021    0.0020   -0.0005    0.0019
    95 N2     2px        0.0328    0.0097   -0.0185   -0.0890   -0.0738    0.0666    0.2037   -0.3558   -0.0328   -0.0433
    96 N2     3px       -0.0158    0.0084   -0.0096    0.0438   -0.0111   -0.0498   -0.0730    0.0823    0.0066    0.0081
    97 N2     4px        0.0052    0.0024    0.0016   -0.0004   -0.0081   -0.0065   -0.0020   -0.0029   -0.0036    0.0014
    98 N2     2py       -0.0179   -0.0031   -0.0197   -0.1353   -0.0573    0.0790    0.0205    0.0676    0.2635    0.1111
    99 N2     3py       -0.0057   -0.0191   -0.0454    0.0418   -0.0112   -0.0581   -0.0386   -0.0165   -0.0524   -0.0311
   100 N2     4py        0.0099   -0.0020   -0.0136   -0.0028   -0.0031   -0.0048   -0.0076    0.0051   -0.0012   -0.0024
   101 N2     2pz        0.0127    0.0083    0.0207   -0.0044    0.0019    0.0025    0.0212   -0.0475   -0.0848   -0.0232
   102 N2     3pz        0.0051    0.0090   -0.0037   -0.0091    0.0041   -0.0004   -0.0032    0.0179    0.0193    0.0108
   103 N2     4pz       -0.0010    0.0016    0.0021   -0.0014   -0.0004    0.0002    0.0011   -0.0005    0.0019    0.0011
   104 N2     3d2-       0.0000    0.0013    0.0111   -0.0009    0.0019    0.0055   -0.0008    0.0100    0.0124    0.0011
   105 N2     3d1-      -0.0012   -0.0003   -0.0014   -0.0022    0.0001    0.0021   -0.0011    0.0042    0.0026    0.0001
   106 N2     3d0        0.0033   -0.0017   -0.0158   -0.0006    0.0031    0.0028   -0.0001   -0.0009   -0.0017   -0.0015
   107 N2     3d1+      -0.0016   -0.0001    0.0022   -0.0006   -0.0018   -0.0014    0.0019   -0.0040   -0.0026   -0.0017
   108 N2     3d2+      -0.0056   -0.0003    0.0026    0.0096    0.0005   -0.0093   -0.0107    0.0138   -0.0012   -0.0047
   109 N5     1s         0.0028   -0.0403    0.0059   -0.0011   -0.0011    0.0010   -0.0004    0.0012    0.0013   -0.0018
   110 N5     2s        -0.0291    0.5883   -0.0936    0.0211    0.1132   -0.1845    0.2071    0.0376    0.0849   -0.1542
   111 N5     3s         0.0046   -0.0756    0.0131   -0.0085    0.0105   -0.0116    0.0070    0.0023    0.0091   -0.0111
   112 N5     4s         0.0013   -0.0253    0.0048   -0.0038    0.0022   -0.0004   -0.0009   -0.0002    0.0002   -0.0003
   113 N5     2px       -0.0065    0.0184    0.0251   -0.0970    0.1243   -0.0475   -0.2493   -0.2165    0.1501    0.1702
   114 N5     3px       -0.0152    0.0104    0.0259    0.0187   -0.0410    0.0418    0.0664    0.0360   -0.0266   -0.0342
   115 N5     4px       -0.0026   -0.0024    0.0052   -0.0044    0.0007    0.0045    0.0004   -0.0001   -0.0028   -0.0044
   116 N5     2py        0.0114   -0.0131   -0.0208    0.1171   -0.1234    0.1084   -0.1064   -0.1246    0.1342   -0.2992
   117 N5     3py        0.0038   -0.0118   -0.0211   -0.0316    0.0741   -0.0484    0.0155    0.0233   -0.0300    0.0539
   118 N5     4py        0.0006   -0.0032   -0.0031    0.0003    0.0043   -0.0027   -0.0023    0.0012   -0.0007    0.0066
   119 N5     2pz        0.0012    0.0330   -0.0074   -0.0017    0.0319   -0.0132   -0.1981   -0.2061    0.1518   -0.0069
   120 N5     3pz        0.0008   -0.0427    0.0027    0.0027    0.0054   -0.0059    0.0293    0.0212   -0.0164   -0.0116
   121 N5     4pz        0.0001   -0.0059    0.0002   -0.0023    0.0039   -0.0019   -0.0029   -0.0017   -0.0005   -0.0010
   122 N5     3d2-       0.0001   -0.0116    0.0006   -0.0024    0.0037   -0.0062    0.0099    0.0061   -0.0088    0.0067
   123 N5     3d1-       0.0000    0.0015   -0.0012    0.0057   -0.0059    0.0015    0.0085    0.0038   -0.0018   -0.0085
   124 N5     3d0        0.0010   -0.0074    0.0008   -0.0009    0.0028   -0.0024   -0.0076   -0.0090    0.0040    0.0034
   125 N5     3d1+      -0.0005    0.0120   -0.0020   -0.0051    0.0100   -0.0094   -0.0071   -0.0079    0.0035    0.0094
   126 N5     3d2+       0.0007    0.0002   -0.0000   -0.0042    0.0062   -0.0033   -0.0093   -0.0072    0.0015    0.0061
   127 O7     1s         0.0232    0.0010    0.0031   -0.0028   -0.0030   -0.0019    0.0057   -0.0086   -0.0095    0.0103
   128 O7     2s        -0.6824   -0.0959   -0.3206   -0.1638   -0.1512   -0.0222    0.1466   -0.2576   -0.1905    0.1799
   129 O7     3s         0.0272   -0.0045   -0.0127   -0.0172   -0.0163   -0.0099    0.0188   -0.0319   -0.0304    0.0319
   130 O7     4s         0.0129   -0.0009   -0.0008   -0.0032   -0.0031   -0.0029    0.0029   -0.0064   -0.0060    0.0063
   131 O7     2px       -0.1118   -0.0123   -0.0178    0.0063   -0.0053   -0.0330   -0.0901    0.1440    0.1424   -0.1091
   132 O7     3px        0.0320   -0.0020   -0.0028   -0.0061   -0.0034   -0.0080    0.0107   -0.0166   -0.0137    0.0097
   133 O7     4px        0.0029   -0.0015   -0.0002   -0.0004    0.0010   -0.0006   -0.0002   -0.0032   -0.0002    0.0001
   134 O7     2py        0.0773    0.0272    0.0361   -0.0124   -0.0262   -0.0517    0.0727   -0.0143   -0.1499    0.1864
   135 O7     3py       -0.0299    0.0055   -0.0045    0.0109    0.0062   -0.0022   -0.0082    0.0068    0.0124   -0.0179
   136 O7     4py        0.0001    0.0026   -0.0021    0.0011    0.0006    0.0003   -0.0003    0.0010    0.0030   -0.0035
   137 O7     2pz       -0.0212   -0.0045   -0.0083    0.0018    0.0039    0.0094   -0.0296    0.0169    0.0432   -0.0514
   138 O7     3pz        0.0098    0.0016    0.0008   -0.0021   -0.0038    0.0040    0.0008   -0.0039   -0.0028    0.0056
   139 O7     4pz       -0.0002    0.0004    0.0002    0.0002   -0.0008    0.0012   -0.0005   -0.0008   -0.0002    0.0011
   140 O7     3d2-       0.0162    0.0027    0.0053   -0.0001   -0.0002   -0.0016    0.0056   -0.0036   -0.0097    0.0104
   141 O7     3d1-       0.0050    0.0005    0.0029    0.0007   -0.0003   -0.0011   -0.0002    0.0000   -0.0018    0.0028
   142 O7     3d0        0.0096    0.0008    0.0043    0.0012    0.0009    0.0002    0.0012   -0.0025   -0.0039    0.0034
   143 O7     3d1+      -0.0056   -0.0007   -0.0017   -0.0005   -0.0006    0.0001   -0.0022    0.0017    0.0030   -0.0027
   144 O7     3d2+      -0.0033   -0.0004    0.0023   -0.0001   -0.0031   -0.0047   -0.0045    0.0061    0.0023    0.0018
   145 O8     1s        -0.0008    0.0022   -0.0011    0.0030   -0.0030   -0.0018    0.0136    0.0059    0.0192    0.0087
   146 O8     2s         0.0610   -0.3080   -0.0259    0.1745   -0.1110   -0.0735    0.3382    0.1315    0.3164    0.1503
   147 O8     3s         0.0016   -0.0107   -0.0047    0.0130   -0.0115   -0.0091    0.0432    0.0172    0.0549    0.0252
   148 O8     4s         0.0001   -0.0005   -0.0008    0.0016   -0.0018   -0.0024    0.0085    0.0033    0.0114    0.0055
   149 O8     2px       -0.0061    0.0012    0.0082   -0.0090   -0.0160    0.0230    0.0960    0.1015    0.0895    0.0774
   150 O8     3px       -0.0008    0.0017    0.0008    0.0003    0.0006    0.0007   -0.0164   -0.0140   -0.0053   -0.0044
   151 O8     4px       -0.0003    0.0000   -0.0002    0.0002    0.0006   -0.0002   -0.0017   -0.0022    0.0003   -0.0003
   152 O8     2py       -0.0082    0.0330   -0.0036    0.0312   -0.0053   -0.0381    0.1053    0.0094    0.2640    0.1287
   153 O8     3py       -0.0024   -0.0038    0.0006   -0.0041    0.0129    0.0001   -0.0156   -0.0002   -0.0322   -0.0149
   154 O8     4py       -0.0007   -0.0025   -0.0007    0.0019    0.0009    0.0003   -0.0015    0.0005   -0.0044   -0.0031
   155 O8     2pz       -0.0070    0.0158    0.0022    0.0222   -0.0292   -0.0057    0.1738    0.0971    0.2651    0.1365
   156 O8     3pz        0.0030   -0.0035   -0.0022   -0.0085    0.0057    0.0005   -0.0269   -0.0143   -0.0257   -0.0156
   157 O8     4pz        0.0010   -0.0018   -0.0012   -0.0013   -0.0002   -0.0002   -0.0031   -0.0021   -0.0032   -0.0022
[...]
AIVX     1  Mu1.0001  In1.025 Se1.049               0.26175093     -0.00034016      0.00058327     -0.00000020
AIVX     1  Mu1.0001  In1.026 Se1.049               0.08243783      0.00018760     -0.00038967     -0.00000007
AIVX     1  Mu1.0001  In1.027 Se1.049               0.24302498     -0.00170178      0.00314068     -0.00000534
AIVX     1  Mu1.0001  In1.028 Se1.049               0.11841036      0.00060996     -0.00174835     -0.00000107
AIVX     1  Mu1.0001  In1.029 Se1.049               0.10768739      0.00070644     -0.00138918     -0.00000098
AIVX     1  Mu1.0001  In1.021 Se1.050               0.26959799      0.00084578     -0.00122618     -0.00000104
AIVX     1  Mu1.0001  In1.022 Se1.050               0.16628648      0.00141182     -0.00249640     -0.00000352
AIVX     1  Mu1.0001  In1.023 Se1.050               0.29376842      0.00104341     -0.00200906     -0.00000210
AIVX     1  Mu1.0001  In1.024 Se1.050               0.28853756     -0.00076005      0.00114484     -0.00000087
AIVX     1  Mu1.0001  In1.025 Se1.050               0.25700277     -0.00074225      0.00117631     -0.00000087
AIVX     1  Mu1.0001  In1.026 Se1.050               0.07768967     -0.00099476      0.00220225     -0.00000219
AIVX     1  Mu1.0001  In1.027 Se1.050               0.23827682     -0.00088029      0.00151863     -0.00000134
AIVX     1  Mu1.0001  In1.028 Se1.050               0.11366219     -0.00028122      0.00030815     -0.00000009
AIVX     1  Mu1.0001  In1.029 Se1.050               0.10293923      0.00089889     -0.00184916     -0.00000166
AIVX     1  Mu1.0001  In1.021 Se1.051               0.26673009     -0.00021025      0.00033966     -0.00000007
AIVX     1  Mu1.0001  In1.022 Se1.051               0.16341858      0.00231502     -0.00435198     -0.00001007
AIVX     1  Mu1.0001  In1.023 Se1.051               0.29090052      0.00115272     -0.00175563     -0.00000202
AIVX     1  Mu1.0001  In1.024 Se1.051               0.28566966      0.00035795     -0.00064367     -0.00000023
AIVX     1  Mu1.0001  In1.025 Se1.051               0.25413486      0.00007242     -0.00021494     -0.00000002
AIVX     1  Mu1.0001  In1.026 Se1.051               0.07482177     -0.00122476      0.00273216     -0.00000335
AIVX     1  Mu1.0001  In1.027 Se1.051               0.23540891     -0.00254847      0.00425653     -0.00001085
AIVX     1  Mu1.0001  In1.028 Se1.051               0.11079429      0.00054034     -0.00151944     -0.00000082
AIVX     1  Mu1.0001  In1.029 Se1.051               0.10007133      0.00013147     -0.00005994     -0.00000001
AIVX     1  Mu1.0001  In1.022 Se1.052               0.21694832     -0.00121915      0.00217410     -0.00000265
AIVX     1  Mu1.0001  In1.026 Se1.052               0.12835151      0.00179954     -0.00328082     -0.00000590
AIVX     1  Mu1.0001  In1.027 Se1.052               0.28893866      0.00253577     -0.00413804     -0.00001049
AIVX     1  Mu1.0001  In1.028 Se1.052               0.16432403      0.00020387     -0.00037418     -0.00000008
AIVX     1  Mu1.0001  In1.029 Se1.052               0.15360107      0.00015184     -0.00028893     -0.00000004
AIVX     1  Mu1.0001  In1.022 Se1.053               0.22279626     -0.00038709      0.00093182     -0.00000036
AIVX     1  Mu1.0001  In1.026 Se1.053               0.13419945     -0.00052642      0.00082613     -0.00000043
AIVX     1  Mu1.0001  In1.027 Se1.053               0.29478660     -0.00104389      0.00177138     -0.00000185
AIVX     1  Mu1.0001  In1.028 Se1.053               0.17017197      0.00065670     -0.00162230     -0.00000107
AIVX     1  Mu1.0001  In1.029 Se1.053               0.15944901      0.00059350     -0.00103404     -0.00000061
AIVX     1  Mu1.0001  In1.022 Se1.054               0.23772834      0.00070942     -0.00097802     -0.00000069
AIVX     1  Mu1.0001  In1.026 Se1.054               0.14913153     -0.00099299      0.00207235     -0.00000206
AIVX     1  Mu1.0001  In1.028 Se1.054               0.18510405     -0.00057880      0.00147379     -0.00000085
AIVX     1  Mu1.0001  In1.029 Se1.054               0.17438109      0.00215776     -0.00413123     -0.00000891
AIVX     1  Mu1.0001  In1.022 Se1.055               0.27422087     -0.00212041      0.00307405     -0.00000652
AIVX     1  Mu1.0001  In1.026 Se1.055               0.18562406      0.00017786     -0.00049015     -0.00000009
AIVX     1  Mu1.0001  In1.028 Se1.055               0.22159658     -0.00019998      0.00030987     -0.00000006
AIVX     1  Mu1.0001  In1.029 Se1.055               0.21087362     -0.00117904      0.00196654     -0.00000232
AIVX     1  Mu1.0001  In1.022 Se1.056               0.26394263      0.00035828     -0.00037250     -0.00000013
AIVX     1  Mu1.0001  In1.026 Se1.056               0.17534582     -0.00111306      0.00184734     -0.00000206
AIVX     1  Mu1.0001  In1.028 Se1.056               0.21131834      0.00191539     -0.00408854     -0.00000783
AIVX     1  Mu1.0001  In1.029 Se1.056               0.20059538      0.00019928     -0.00026310     -0.00000005
AIVX     1  Mu1.0001  In1.022 Se1.057               0.28580166     -0.00006428     -0.00014807      0.00000001
AIVX     1  Mu1.0001  In1.026 Se1.057               0.19720485     -0.00001454     -0.00045283      0.00000001
AIVX     1  Mu1.0001  In1.028 Se1.057               0.23317737     -0.00009637      0.00009403     -0.00000001
AIVX     1  Mu1.0001  In1.029 Se1.057               0.22245441      0.00034815     -0.00091139     -0.00000032
AIVX     1  Mu1.0001  In1.022 Se1.058               0.25736405      0.00073258     -0.00111729     -0.00000082
AIVX     1  Mu1.0001  In1.026 Se1.058               0.16876724     -0.00118467      0.00214713     -0.00000254
AIVX     1  Mu1.0001  In1.028 Se1.058               0.20473976     -0.00054889      0.00107688     -0.00000059
AIVX     1  Mu1.0001  In1.029 Se1.058               0.19401680     -0.00000882      0.00001700     -0.00000000
AIVX     1  Mu1.0001  In1.022 Se1.059               0.28857350     -0.00047810      0.00096558     -0.00000046
AIVX     1  Mu1.0001  In1.026 Se1.059               0.19997669      0.00087457     -0.00111407     -0.00000097
AIVX     1  Mu1.0001  In1.028 Se1.059               0.23594921     -0.00174594      0.00354351     -0.00000619
AIVX     1  Mu1.0001  In1.029 Se1.059               0.22522625     -0.00049727      0.00099487     -0.00000049
AIVX     1  Mu1.0001  In1.026 Se1.060               0.23098392     -0.00061856      0.00051882     -0.00000032
AIVX     1  Mu1.0001  In1.028 Se1.060               0.26695644      0.00045285     -0.00105558     -0.00000048
AIVX     1  Mu1.0001  In1.029 Se1.060               0.25623348      0.00209593     -0.00335082     -0.00000702
AIVX     1  Mu1.0001  In1.026 Se1.061               0.27133978      0.00112087     -0.00215304     -0.00000241
AIVX     1  Mu1.0001  In1.029 Se1.061               0.29658934      0.00023703     -0.00035926     -0.00000009
AIVX     1  Mu1.0001  In1.026 Se1.062               0.25849953     -0.00005065      0.00018028     -0.00000001
AIVX     1  Mu1.0001  In1.028 Se1.062               0.29447205      0.00056475     -0.00081690     -0.00000046
AIVX     1  Mu1.0001  In1.029 Se1.062               0.28374909      0.00103016     -0.00134756     -0.00000139
AIVX     1  Mu1.0001  In1.026 Se1.063               0.28377188     -0.00243961      0.00431210     -0.00001052
AIVX     1  Mu1.0001  In1.026 Se1.065               0.23222400     -0.00061500      0.00111048     -0.00000068
AIVX     1  Mu1.0001  In1.028 Se1.065               0.26819652     -0.00044638      0.00087847     -0.00000039
AIVX     1  Mu1.0001  In1.029 Se1.065               0.25747356      0.00102422     -0.00190265     -0.00000195
AIVX     1  Mu1.0001  In1.026 Se1.066               0.29900350     -0.00071332      0.00145104     -0.00000104
--
 
   (Skipping property calculation,
    use PROP keyword to activate)
--
 
  Total CASPT2 energies:
::    CASPT2 Root  1     Total energy:   -455.37074972
::    CASPT2 Root  2     Total energy:   -455.16973122
::    CASPT2 Root  3     Total energy:   -455.15982204
::    CASPT2 Root  4     Total energy:   -455.13655480
::    CASPT2 Root  5     Total energy:   -455.11764631
::    CASPT2 Root  6     Total energy:   -455.10241267
::    CASPT2 Root  7     Total energy:   -455.06831472
 
++ Multi-State CASPT2 section:
********************************************************************************
  MULTI-STATE CASPT2 SECTION
--------------------------------------------------------------------------------
 
  Output diagonal energies have been shifted. Add   -455.000000000000     
 
  Effective Hamiltonian matrix (Symmetric):
 
                1               2               3               4               5
   1        -0.37074972
   2         0.00062204     -0.16973122
   3        -0.00018809     -0.00002196     -0.15982204
   4        -0.01551872      0.00234083      0.00187800     -0.13655480
   5        -0.01227609      0.00382178     -0.00227058     -0.01001307     -0.11764631
   6        -0.00707001      0.00143764      0.00059391      0.00122478     -0.02081433
   7        -0.00687846      0.00057215      0.00124867     -0.01146864     -0.00438736
 
                6               7
   6        -0.10241267
   7         0.00241786     -0.06831472
 
       Total MS-CASPT2 energies:
::    MS-CASPT2 Root  1     Total energy:   -455.37287258
::    MS-CASPT2 Root  2     Total energy:   -455.17043598
::    MS-CASPT2 Root  3     Total energy:   -455.16006701
::    MS-CASPT2 Root  4     Total energy:   -455.14171011
::    MS-CASPT2 Root  5     Total energy:   -455.12706873
::    MS-CASPT2 Root  6     Total energy:   -455.08725784
::    MS-CASPT2 Root  7     Total energy:   -455.06581923
 
       Eigenvectors:
            0.99541268      0.01929208      0.00255556     -0.09139271     -0.01529915
           -0.00512904      0.98823709     -0.00434535      0.14451611      0.04870670
            0.00060968      0.00148664      0.99645250      0.04358387     -0.06551091
            0.06877060     -0.09525331     -0.07137902      0.82947314     -0.49533585
            0.05351472     -0.10587662      0.03867824      0.47276010      0.64536503
            0.02962474     -0.04892377      0.00650032      0.19348316      0.57091076
            0.02561401     -0.01834324     -0.02058607      0.14106514     -0.07286411
 
           -0.00062289     -0.01370426
           -0.00921988      0.00010127
            0.02659592      0.01346349
            0.16883116     -0.13861884
           -0.57799018     -0.10178174
            0.78660078      0.12071026
           -0.13375300      0.97748926
 
--
 
  THE ORIGINAL CI ARRAYS ARE NOW MIXED AS LINEAR
  COMBINATIONS, GIVEN BY THE EIGENVECTORS.
  A NEW JOBIPH FILE NAMED 'JOBMIX' IS PREPARED.
********************************************************************************
 
++ Mixed CI coefficients:
  The CI coefficients for the MIXED state nr.   1
--------------------------------------------------------------------------------
 CI COEFFICIENTS LARGER THAN  0.50D-01
  Occupation of active orbitals, and spin coupling
  of open shells. (u,d: Spin up or down).
  SGUGA info is (Midvert:IsyUp:UpperWalk/LowerWalk)
        Conf  SGUGA info        Occupation    Coefficient         Weight
           1  ( 1:1:   1/   1)   22222200        0.965474       0.932140
           4  ( 1:1:   4/   1)   22222020       -0.114210       0.013044
          61  ( 2:1:   1/   3)   2u2222d0        0.103716       0.010757
          62  ( 2:1:   2/   3)   2u222d20       -0.055016       0.003027
          84  ( 2:1:   4/   4)   u222220d        0.124024       0.015382
         105  ( 3:1:   5/   1)   22202202       -0.082058       0.006734
         171  ( 3:1:   1/   8)   20222220       -0.090701       0.008227
         195  ( 3:1:   5/  10)   02222202       -0.075908       0.005762
 
  The CI coefficients for the MIXED state nr.   2
--------------------------------------------------------------------------------
 CI COEFFICIENTS LARGER THAN  0.50D-01
  Occupation of active orbitals, and spin coupling
  of open shells. (u,d: Spin up or down).
  SGUGA info is (Midvert:IsyUp:UpperWalk/LowerWalk)
        Conf  SGUGA info        Occupation    Coefficient         Weight
           2  ( 1:1:   2/   1)   22222ud0        0.234820       0.055141
           3  ( 1:1:   3/   1)   2222u2d0        0.924714       0.855097
           5  ( 1:1:   5/   1)   2222ud20       -0.135612       0.018391
          62  ( 2:1:   2/   3)   2u222d20       -0.052585       0.002765
          63  ( 2:1:   3/   3)   2u22d220       -0.168943       0.028542
          86  ( 2:1:   6/   4)   u222d2ud        0.061631       0.003798
          88  ( 2:1:   8/   4)   u222u2dd        0.105155       0.011058
         107  ( 3:1:   7/   1)   2220u2d2       -0.078448       0.006154
         197  ( 3:1:   7/  10)   0222u2d2       -0.075380       0.005682
 
  The CI coefficients for the MIXED state nr.   3
--------------------------------------------------------------------------------
 CI COEFFICIENTS LARGER THAN  0.50D-01
  Occupation of active orbitals, and spin coupling
  of open shells. (u,d: Spin up or down).
  SGUGA info is (Midvert:IsyUp:UpperWalk/LowerWalk)
        Conf  SGUGA info        Occupation    Coefficient         Weight
           7  ( 1:1:   7/   1)   22222u0d       -0.229087       0.052481
          24  ( 2:1:   4/   1)   222u220d        0.141187       0.019934
          44  ( 2:1:   4/   2)   22u2220d        0.916106       0.839250
          45  ( 2:1:   5/   2)   22u22dud        0.055982       0.003134
          47  ( 2:1:   7/   2)   22u22udd        0.094143       0.008863
          49  ( 2:1:   9/   2)   22u2202d       -0.084978       0.007221
         115  ( 3:1:   5/   2)   22ud2202       -0.150877       0.022764
         165  ( 3:1:   5/   7)   u2d22202       -0.110836       0.012285
         219  ( 4:1:   1/   4)   2uu222dd       -0.072464       0.005251
         220  ( 4:1:   2/   4)   2uu22d2d        0.064146       0.004115
         293  ( 5:1:   1/  15)   20u2222d        0.100963       0.010194
 
  The CI coefficients for the MIXED state nr.   4
--------------------------------------------------------------------------------
 CI COEFFICIENTS LARGER THAN  0.50D-01
  Occupation of active orbitals, and spin coupling
  of open shells. (u,d: Spin up or down).
  SGUGA info is (Midvert:IsyUp:UpperWalk/LowerWalk)
        Conf  SGUGA info        Occupation    Coefficient         Weight
           2  ( 1:1:   2/   1)   22222ud0       -0.732302       0.536267
           3  ( 1:1:   3/   1)   2222u2d0        0.219068       0.047991
           4  ( 1:1:   4/   1)   22222020       -0.180941       0.032740
           7  ( 1:1:   7/   1)   22222u0d        0.091169       0.008312
           8  ( 1:1:   8/   1)   2222u20d        0.200636       0.040255
          12  ( 1:1:  12/   1)   2222uudd       -0.053325       0.002844
          24  ( 2:1:   4/   1)   222u220d       -0.469011       0.219971
          29  ( 2:1:   9/   1)   222u202d        0.052659       0.002773
          44  ( 2:1:   4/   2)   22u2220d        0.087306       0.007622
          61  ( 2:1:   1/   3)   2u2222d0        0.089361       0.007985
          62  ( 2:1:   2/   3)   2u222d20        0.159400       0.025408
          87  ( 2:1:   7/   4)   u2222udd       -0.080334       0.006454
         106  ( 3:1:   6/   1)   22202ud2        0.057427       0.003298
         135  ( 3:1:   5/   4)   u22d2202        0.114896       0.013201
         171  ( 3:1:   1/   8)   20222220        0.110913       0.012302
         196  ( 3:1:   6/  10)   02222ud2        0.061342       0.003763
         207  ( 4:1:   1/   2)   2u2u22dd        0.053677       0.002881
 
  The CI coefficients for the MIXED state nr.   5
--------------------------------------------------------------------------------
 CI COEFFICIENTS LARGER THAN  0.50D-01
  Occupation of active orbitals, and spin coupling
  of open shells. (u,d: Spin up or down).
  SGUGA info is (Midvert:IsyUp:UpperWalk/LowerWalk)
        Conf  SGUGA info        Occupation    Coefficient         Weight
           2  ( 1:1:   2/   1)   22222ud0       -0.507382       0.257437
           3  ( 1:1:   3/   1)   2222u2d0        0.096700       0.009351
           4  ( 1:1:   4/   1)   22222020       -0.114794       0.013178
           7  ( 1:1:   7/   1)   22222u0d       -0.190417       0.036259
           8  ( 1:1:   8/   1)   2222u20d       -0.260571       0.067897
          24  ( 2:1:   4/   1)   222u220d        0.702285       0.493204
          27  ( 2:1:   7/   1)   222u2udd        0.059309       0.003518
          29  ( 2:1:   9/   1)   222u202d       -0.071738       0.005146
          44  ( 2:1:   4/   2)   22u2220d       -0.149648       0.022395
          62  ( 2:1:   2/   3)   2u222d20        0.113553       0.012894
          87  ( 2:1:   7/   4)   u2222udd       -0.057673       0.003326
         135  ( 3:1:   5/   4)   u22d2202       -0.170798       0.029172
         171  ( 3:1:   1/   8)   20222220        0.073508       0.005403
         207  ( 4:1:   1/   2)   2u2u22dd       -0.061194       0.003745
         261  ( 5:1:   1/   7)   202u222d        0.074105       0.005492
 
  The CI coefficients for the MIXED state nr.   6
--------------------------------------------------------------------------------
 CI COEFFICIENTS LARGER THAN  0.50D-01
  Occupation of active orbitals, and spin coupling
  of open shells. (u,d: Spin up or down).
  SGUGA info is (Midvert:IsyUp:UpperWalk/LowerWalk)
        Conf  SGUGA info        Occupation    Coefficient         Weight
           7  ( 1:1:   7/   1)   22222u0d        0.886913       0.786615
           8  ( 1:1:   8/   1)   2222u20d        0.100316       0.010063
          12  ( 1:1:  12/   1)   2222uudd       -0.050334       0.002534
          24  ( 2:1:   4/   1)   222u220d        0.288086       0.082994
          44  ( 2:1:   4/   2)   22u2220d        0.171777       0.029507
          65  ( 2:1:   5/   3)   2u222dud       -0.155792       0.024271
          67  ( 2:1:   7/   3)   2u222udd       -0.152039       0.023116
          93  ( 2:1:  13/   4)   u2222d02       -0.067959       0.004618
         135  ( 3:1:   5/   4)   u22d2202       -0.061413       0.003772
         173  ( 3:1:   3/   8)   20222u2d        0.128828       0.016597
 
  The CI coefficients for the MIXED state nr.   7
--------------------------------------------------------------------------------
 CI COEFFICIENTS LARGER THAN  0.50D-01
  Occupation of active orbitals, and spin coupling
  of open shells. (u,d: Spin up or down).
  SGUGA info is (Midvert:IsyUp:UpperWalk/LowerWalk)
        Conf  SGUGA info        Occupation    Coefficient         Weight
           7  ( 1:1:   7/   1)   22222u0d        0.172721       0.029832
           8  ( 1:1:   8/   1)   2222u20d       -0.854141       0.729557
          10  ( 1:1:  10/   1)   2222udud        0.189011       0.035725
          12  ( 1:1:  12/   1)   2222uudd        0.280107       0.078460
          24  ( 2:1:   4/   1)   222u220d       -0.268483       0.072083
          44  ( 2:1:   4/   2)   22u2220d        0.115105       0.013249
          71  ( 2:1:  11/   3)   2u22ud2d        0.071014       0.005043
          94  ( 2:1:  14/   4)   u222d202        0.058267       0.003395
         135  ( 3:1:   5/   4)   u22d2202        0.061157       0.003740
         174  ( 3:1:   4/   8)   2022u22d       -0.069769       0.004868
 
--
 
--- Stop Module: caspt2 at Tue Jun 10 17:23:56 2025 /rc=_RC_ALL_IS_WELL_ ---
*** files: xmldump
    saved to directory /home/pcaah4/diamide_project
--- Module caspt2 spent 6 minutes 54 seconds ---

.##################.
.# Happy landing! #.
.##################.

    Timing: Wall=681.27 User=593.90 System=77.75
******************************************************
*** WorkDir at /srv/COMMUNAL_SCRATCH/12379 cleaned ***
******************************************************
