   This run of MOLCAS is using the pymolcas driver

                             OPE
                             OPE          NMOL  CASOP  ENMOLC A   SO
                 OPE        NMOLC        AS  OP EN  MO LC     AS  OP
                OPENM       OL CA        SO  PE NM  OL CA     SOP EN
                OP EN      MO   LC       AS  OP ENMOL  CASO   PENMOL
                OP  EN     MO   LC       AS  OP EN     MO     LC ASO
               OP   E  NMOL  C  AS       OP  EN MO     LC     AS  OP
               OP  E   NMO   LC AS        OPEN  MO     LCASOP EN   M
               O  PEN   MO  LCA  SO
            OPE   NMO   L   CAS    OP
        OPENMOL  CASOP     ENMOL   CASOPE
     OPENMOLCA   SOPENMOLCASOPEN   MOLCASOPE
    OPENMOLCAS   OP           EN   MOL    CAS
    OPENMOLCAS       OP  ENM        O     LCA
    OPENMOLCAS    OPEN  MOLCASO     P  E  NMO
    OPENMOLCAS     OP               E  N  MOL
    OPENMOLCA   SO           PENM   O  L  CAS    OPEN    MO    LCAS
    OPENMOLCA   SOP           ENM   O  L  CAS   OP  EN  MOLC  AS   O
    OPENMOLCA   SOPE           NM      O  LCA   S      OP  EN MO
    OPENMOLC                AS         O  PEN   M      OL  CA  SOPE
    OPENMO        LCASOPE  NMOL        C  ASO   P      ENMOLC     AS
    OPE     NMO      LCA  SO     P     E   NM   OL  CA SO  PE N   MO
          OPENMOLCA            SOPE   NMO        LCAS  O    P  ENMO
     OPENMOLCASOPENMOLCASOPENMOLCASOPENMOLCA
        OPENMOLCASOPENMOLCASOPENMOLCASOPE
            OPENMOLCASOPENMOLCASOPENM
               OPENMOLCASOPENMOLCA        version: v23.06
                   OPENMOLCASO
                       OPE                tag:

 OpenMolcas is free software; you can redistribute it and/or modify it
 under the terms of the GNU Lesser General Public License version 2.1.
 OpenMolcas is distributed in the hope that it will be useful, but it
 is provided "as is" and without any express or implied warranties.
 For more details see the full text of the license in the file
 LICENSE or in <http://www.gnu.org/licenses/>.

                 Copyright (C) The OpenMolcas Authors
           For the author list and the recommended citation,
                   consult the file CONTRIBUTORS.md

           *************************************************
           * pymolcas version py2.24                       *
           *   build 4567b286dd94b1984b333a4ddf893180      *
           *   (after the EMIL interpreter by V. Veryazov) *
           *************************************************

configuration info
------------------
Host name: loginchem01.nottingham.ac.uk (Linux)
C Compiler ID: Intel
C flags: -std=gnu99 -gcc-sys -qopenmp
Fortran Compiler ID: Intel
Fortran flags: -fpp -i8 -heap-arrays -qopenmp
Definitions: _MOLCAS_;_I8_;_LINUX_
Parallel: OFF (GA=OFF)


   ---------------------------------------------------------------------------------------------------
  |
  |              Project: orca_geometry_optimisation_210_90_BP86_def2-SVP_def2J_scf_cas1_ras12i11_cas8
  |       Submitted from: /home/pcaah4/diamide_project
  |         Scratch area: /srv/COMMUNAL_SCRATCH/12389
  |      Save outputs to: /home/pcaah4/diamide_project
  |               Molcas: /software/chemistry/openmolcas/openmolcas-23.06-openmp
  |
  | Scratch area is empty
  |
  |       MOLCAS_DRIVER = /software/chemistry/openmolcas/openmolcas-23.06-openmp/sbin/pymolcas
  | MOLCAS_KEEP_WORKDIR = NO
  |       MOLCAS_NPROCS = 1
  |       MOLCAS_SOURCE = /software/chemistry/openmolcas/openmolcas-23.06-openmp
  |    MOLCAS_STRUCTURE = 0
  |
   ---------------------------------------------------------------------------------------------------

++ ---------   Input file   ---------

&SEWARD
TITLE
orca_geometry_optimisation_210_90_BP86_def2-SVP_def2J_scf_cas1_ras12i11
MULTIPOLES
2
SDIPOLE
ANGMOM
0 0 0
BASIS SET
C.ANO-S...4S3P1D.
C1           -0.003650   -0.056582   -0.054934 /Angstrom
C3            2.168612    1.129651   -0.016280 /Angstrom
C4            3.507799    0.901277   -0.733638 /Angstrom
C6            4.640636    0.950064   -2.935695 /Angstrom
C19          -0.686504   -1.409644    0.115110 /Angstrom
END OF BASIS
BASIS SET
N.ANO-S...4S3P1D.
N2            1.375961   -0.091648   -0.045785 /Angstrom
N5            3.492922    1.176326   -2.078094 /Angstrom
END OF BASIS
BASIS SET
O.ANO-S...4S3P1D.
O7           -0.635780    0.987629   -0.204450 /Angstrom
O8            4.486253    0.447991   -0.139198 /Angstrom
END OF BASIS
BASIS SET
H.ANO-S...2S1P.
H9           -1.212915   -1.423801    1.091229 /Angstrom
H10          -1.459940   -1.516882   -0.669894 /Angstrom
H11           0.004421   -2.274332    0.068503 /Angstrom
H12           1.849679   -0.956111    0.225535 /Angstrom
H13           1.545046    1.923791   -0.474276 /Angstrom
H14           2.408948    1.439499    1.024648 /Angstrom
H15           2.629291    1.533755   -2.489033 /Angstrom
H16           4.422640    0.200122   -3.726355 /Angstrom
H17           4.980047    1.888057   -3.424545 /Angstrom
H18           5.455578    0.566032   -2.292985 /Angstrom
END OF BASIS
END OF INPUT

&RASSCF
TITLE
orca_geometry_optimisation_210_90_BP86_def2-SVP_def2J_scf_cas1_ras12i11
LUMORB
SPIN
1
SYMMETRY
1
NACTEL
12  0  0
INACTIVE
29
DELETED  ! delete Rydberg orbitals from an initial CAS(12,11) if done
3
FROZEN
0
RAS2
8
ITERATIONS
64 25
CIROOT
7 7
1 2 3 4 5 6 7
1 1 1 1 1 1 1
LEVSHFT
0.3
CIMX
20
FILEorb = /home/pcaah4/diamide_project/cas/ras12i11/ras_orb/orca_geometry_optimisation_210_90_BP86_def2-SVP_def2J_scf_cas1_ras12i11.RasOrb
ALTEr
2
 1 36 37
 1 37 38
END OF INPUT

&RASSI
NROF JOBIPH
    1 7
    1 2 3 5 4 6 7
TOFILE
TRDI
TDMN
1.0D-6
END OF INPUT

&CASPT2
TITLE
orca_geometry_optimisation_210_90_BP86_def2-SVP_def2J_scf_cas1_ras12i11
MULTISTATE
7 1 2 3 4 5 6 7
SHIFT
0.35
MAXITER
50
END OF INPUT

-- ----------------------------------

--- Start Module: seward at Tue Jun 10 17:40:09 2025 ---
 
()()()()()()()()()()()()()()()()()()()()()()()()()()()()()()()()()()()()()()()()()()()()()()()()()()

                                              &SEWARD

                                   only a single process is used
                       available to each process: 2.0 GB of memory, 1 thread
                                            pid: 3121370
()()()()()()()()()()()()()()()()()()()()()()()()()()()()()()()()()()()()()()()()()()()()()()()()()()
 
               SEWARD will generate:
                  Multipole Moment integrals up to order  2
                  Kinetic Energy integrals
                  Nuclear Attraction integrals (point charge)
                  One-Electron Hamiltonian integrals
                  Velocity integrals
                  Orbital angular momentum around ( 0.0000  0.0000  0.0000 )
                  Velocity quadrupole around ( 3.8655  0.8386 -1.3002 )
                  Two-Electron Repulsion integrals
 
 Title:
            orca_geometry_optimisation_210_90_BP86_def2-SVP_def2J_scf_cas1_ras12i11     
 
 
                   Integrals are discarded if absolute value <: 0.10E-13
                   Integral cutoff threshold is set to       <: 0.10E-15
 
++    Symmetry information:
      ---------------------
 
                    Character Table for C1 
 
                             E  
                    a        1  x, y, xy, Rz, z, xz, Ry, yz, Rx, I
--
 
 
++    Basis set information:
      ----------------------
 
 
      Basis set label: C.ANO-S...4S3P1D......
 
      Electronic valence basis set:
      ------------------
      Associated Effective Charge   6.000000 au
      Associated Actual Charge      6.000000 au
      Nuclear Model: Point charge
 
      Shell  nPrim  nBasis  Cartesian Spherical Contaminant
         s      10       4        X                  
         p       6       3        X                  
         d       3       1                 X         
 
 
      Basis set label: N.ANO-S...4S3P1D......
 
      Electronic valence basis set:
      ------------------
      Associated Effective Charge   7.000000 au
      Associated Actual Charge      7.000000 au
      Nuclear Model: Point charge
 
      Shell  nPrim  nBasis  Cartesian Spherical Contaminant
         s      10       4        X                  
         p       6       3        X                  
         d       3       1                 X         
 
 
      Basis set label: O.ANO-S...4S3P1D......
 
      Electronic valence basis set:
      ------------------
      Associated Effective Charge   8.000000 au
      Associated Actual Charge      8.000000 au
      Nuclear Model: Point charge
 
      Shell  nPrim  nBasis  Cartesian Spherical Contaminant
         s      10       4        X                  
         p       6       3        X                  
         d       3       1                 X         
 
 
      Basis set label: H.ANO-S...2S1P......
 
      Electronic valence basis set:
      ------------------
      Associated Effective Charge   1.000000 au
      Associated Actual Charge      1.000000 au
      Nuclear Model: Point charge
 
      Shell  nPrim  nBasis  Cartesian Spherical Contaminant
         s       7       2        X                  
         p       3       1        X                  
--
 
 
++    Molecular structure info:
      -------------------------
 
                    ************************************************ 
                    **** Cartesian Coordinates / Bohr, Angstrom **** 
                    ************************************************ 
 
     Center  Label                x              y              z                     x              y              z
        1      C1              -0.006898      -0.106924      -0.103810             -0.003650      -0.056582      -0.054934
        2      C3               4.098083       2.134731      -0.030765              2.168612       1.129651      -0.016280
        3      C4               6.628779       1.703167      -1.386375              3.507799       0.901277      -0.733638
        4      C6               8.769531       1.795361      -5.547660              4.640636       0.950064      -2.935695
        5      C19             -1.297305      -2.663841       0.217526             -0.686504      -1.409644       0.115110
        6      N2               2.600189      -0.173190      -0.086521              1.375961      -0.091648      -0.045785
        7      N5               6.600666       2.222934      -3.927029              3.492922       1.176326      -2.078094
        8      O7              -1.201450       1.866348      -0.386355             -0.635780       0.987629      -0.204450
        9      O8               8.477789       0.846580      -0.263046              4.486253       0.447991      -0.139198
       10      H9              -2.292077      -2.690594       2.062124             -1.212915      -1.423801       1.091229
       11      H10             -2.758887      -2.866492      -1.265916             -1.459940      -1.516882      -0.669894
       12      H11              0.008354      -4.297865       0.129452              0.004421      -2.274332       0.068503
       13      H12              3.495387      -1.806788       0.426199              1.849679      -0.956111       0.225535
       14      H13              2.919714       3.635438      -0.896252              1.545046       1.923791      -0.474276
       15      H14              4.552252       2.720259       1.936304              2.408948       1.439499       1.024648
       16      H15              4.968640       2.898377      -4.703591              2.629291       1.533755      -2.489033
       17      H16              8.357578       0.378176      -7.041790              4.422640       0.200122      -3.726355
       18      H17              9.410925       3.567911      -6.471452              4.980047       1.888057      -3.424545
       19      H18             10.309548       1.069645      -4.333114              5.455578       0.566032      -2.292985
 
                    ************************************************* 
                    **** InterNuclear Distances / Bohr, Angstrom **** 
                    ************************************************* 
 
     Atom centers         Bohr        Angstrom
   16 H15       7 N5      1.929451        1.021021
   13 H12       6 N2      1.932072        1.022409
   19 H18       4 C6      2.091276        1.106656
   11 H10       5 C19     2.092341        1.107219
   12 H11       5 C19     2.093451        1.107806
   14 H13       2 C3      2.095171        1.108717
   10 H9        5 C19     2.095908        1.109107
   18 H17       4 C6      2.099217        1.110858
   17 H16       4 C6      2.100130        1.111341
   15 H14       2 C3      2.102016        1.112339
    8 O7        1 C1      2.323918        1.229764
    9 O8        3 C4      2.326896        1.231340
    7 N5        3 C4      2.593428        1.372383
    6 N2        1 C1      2.607986        1.380087
    7 N5        4 C6      2.741029        1.450490
    6 N2        2 C3      2.751961        1.456275
    5 C19       1 C1      2.882053        1.525117
    3 C4        2 C3      2.903162        1.536287
   11 H10      10 H9      3.365220        1.780797
   15 H14      14 H13     3.395012        1.796563
   18 H17      17 H16     3.407232        1.803030
   12 H11      10 H9      3.407422        1.803130
   19 H18      18 H17     3.409009        1.803970
   19 H18      17 H16     3.409582        1.804273
   12 H11      11 H10     3.413723        1.806464
   16 H15       3 C4      3.897244        2.062333
   19 H18       7 N5      3.905226        2.066556
   14 H13       6 N2      3.906841        2.067411
   13 H12       1 C1      3.928924        2.079097
   13 H12       2 C3      4.013431        2.123816
   18 H17       7 N5      4.022513        2.128622
   17 H16       7 N5      4.023881        2.129346
   15 H14       6 N2      4.034156        2.134783
   16 H15       4 C6      4.046711        2.141427
   15 H14       3 C4      4.048041        2.142131
   11 H10       1 C1      4.066835        2.152076
   10 H9        1 C1      4.072918        2.155296
   12 H11       1 C1      4.197454        2.221197
   14 H13       3 C4      4.210827        2.228274
   13 H12      12 H11     4.295686        2.273179
    8 O7        6 N2      4.324590        2.288474
    9 O8        7 N5      4.340819        2.297062
   16 H15      14 H13     4.386022        2.320983
   19 H18       9 O8      4.468842        2.364809
   14 H13       8 O7      4.513720        2.388558
    9 O8        2 C3      4.571118        2.418931
    8 O7        5 C19     4.571266        2.419010
    6 N2        3 C4      4.630321        2.450260
    7 N5        2 C3      4.631584        2.450929
    6 N2        5 C19     4.635326        2.452909
    2 C3        1 C1      4.677736        2.475352
    4 C6        3 C4      4.680556        2.476844
   19 H18       3 C4      4.757381        2.517498
   16 H15       2 C3      4.814180        2.547554
   14 H13       1 C1      4.816461        2.548761
   17 H16      16 H15     4.827369        2.554534
   18 H17      16 H15     4.827785        2.554754
   13 H12       5 C19     4.873189        2.578781
   15 H14       9 O8      4.874183        2.579306
   12 H11       6 N2      4.876187        2.580367
   15 H14      13 H12     4.887897        2.586563
   14 H13       7 N5      4.972945        2.631569
   13 H12       3 C4      5.042158        2.668195
   11 H10       8 O7      5.059547        2.677397
   10 H9        8 O7      5.286798        2.797653
    8 O7        2 C3      5.318225        2.814284
    9 O8        4 C6      5.377029        2.845401
   14 H13      13 H12     5.630107        2.979324
   19 H18      16 H15     5.657457        2.993797
--
 
 
            Nuclear Potential Energy            447.61055394 au
 
 
      Basis set specifications :
      Symmetry species         a  
      Basis functions          212
 
 
      Input file to MOLDEN was generated!
 
--- Stop Module: seward at Tue Jun 10 17:41:57 2025 /rc=_RC_ALL_IS_WELL_ ---
*** files: orca_geometry_optimisation_210_90_BP86_def2-SVP_def2J_scf_cas1_ras12i11_cas8.GssOrb
           orca_geometry_optimisation_210_90_BP86_def2-SVP_def2J_scf_cas1_ras12i11_cas8.guessorb.molden xmldump
    saved to directory /home/pcaah4/diamide_project
--- Module seward spent 1 minute 48 seconds ---

*** symbolic link created: INPORB -> orca_geometry_optimisation_210_90_BP86_def2-SVP_def2J_scf_cas1_ras12i11_cas8.GssOrb
--- Start Module: rasscf at Tue Jun 10 17:41:58 2025 ---
 
()()()()()()()()()()()()()()()()()()()()()()()()()()()()()()()()()()()()()()()()()()()()()()()()()()

                                              &RASSCF

                                   only a single process is used
                       available to each process: 2.0 GB of memory, 1 thread
                                            pid: 3121401
()()()()()()()()()()()()()()()()()()()()()()()()()()()()()()()()()()()()()()()()()()()()()()()()()()
 
 
      Header of the ONEINT file:
      --------------------------
      orca_geometry_optimisation_210_90_BP86_def2-SVP_def2J_scf_cas1_ras12i11
      Integrals generated by Gateway/Seward, Tue Jun 10 17:40:10 2025
 
 
      OrdInt status: non-squared
 
 
      Cartesian coordinates in Angstrom:
      -----------------------------------------------------
      No.  Label        X            Y            Z        
      -----------------------------------------------------
       1   C1        -0.00365000  -0.05658200  -0.05493400
       2   C3         2.16861200   1.12965100  -0.01628000
       3   C4         3.50779900   0.90127700  -0.73363800
       4   C6         4.64063600   0.95006400  -2.93569500
       5   C19       -0.68650400  -1.40964400   0.11511000
       6   N2         1.37596100  -0.09164800  -0.04578500
       7   N5         3.49292200   1.17632600  -2.07809400
       8   O7        -0.63578000   0.98762900  -0.20445000
       9   O8         4.48625300   0.44799100  -0.13919800
      10   H9        -1.21291500  -1.42380100   1.09122900
      11   H10       -1.45994000  -1.51688200  -0.66989400
      12   H11        0.00442100  -2.27433200   0.06850300
      13   H12        1.84967900  -0.95611100   0.22553500
      14   H13        1.54504600   1.92379100  -0.47427600
      15   H14        2.40894800   1.43949900   1.02464800
      16   H15        2.62929100   1.53375500  -2.48903300
      17   H16        4.42264000   0.20012200  -3.72635500
      18   H17        4.98004700   1.88805700  -3.42454500
      19   H18        5.45557800   0.56603200  -2.29298500
      -----------------------------------------------------
      Nuclear repulsion energy =  447.61055394
 
++    Wave function specifications:
      -----------------------------
 
      Number of closed shell electrons          58
      Number of electrons in active shells      12
      Max number of holes in RAS1 space          0
      Max nr of electrons in RAS3 space          0
      Number of inactive orbitals               29
      Number of active orbitals                  8
      Number of secondary orbitals             172
      Spin quantum number                      0.0
      State symmetry                             1
--
 
++    Orbital specifications:
      -----------------------
 
      Symmetry species                           1
                                                 a
      Frozen orbitals                            0
      Inactive orbitals                         29
      Active orbitals                            8
      RAS1 orbitals                              0
      RAS2 orbitals                              8
      RAS3 orbitals                              0
      Secondary orbitals                       172
      Deleted orbitals                           3
      Number of basis functions                212
--
 
++    CI expansion specifications:
      ----------------------------
 
      Number of CSFs                           336
      Number of determinants                   406
      Number of root(s) required                 7
      Root chosen for geometry opt.              7
      CI roots used                              1     2     3     4     5     6     7
      weights                                0.143 0.143 0.143 0.143 0.143 0.143 0.143
      highest root included in the CI            7
      max. size of the explicit Hamiltonian    200
--
 
++    Optimization specifications:
      ----------------------------
 
      RASSCF algorithm: Conventional
      Maximum number of macro iterations        64
      Maximum number of SX iterations           25
      Threshold for RASSCF energy            0.100E-07
      Threshold for max MO rotation          0.100E+00
      Threshold for max BLB element          0.100E-03
      Level shift parameter                  0.300E+00
      Make Quasi-Newton update
--
 
      The MO-coefficients are taken from the file:
      /home/pcaah4/diamide_project/cas/ras12i11/ras_orb/orca_geometry_optimisation_210_90_BP86_def2-SVP_def2J_scf_cas1_ras12i11.RasOrb                                                                                                                                
      Title: RASSCF average (pseudo-natural) orbitals                                      
 
      Total molecular charge    0.00
 
      Molecular orbitals exchanged:
        In symmetry  1 :  36  37
        In symmetry  1 :  37  38
 
 
      ************************************************************************************************************************
      *                                                                                                                      *
      *                                            Wave function control section                                             *
      *                                                                                                                      *
      ************************************************************************************************************************
 
 
                                         RASSCF iterations: Energy and convergence statistics
                                         ----------------------------------------------------
 
      Iter CI   SX   CI       RASSCF       Energy    max ROT     max BLB   max BLB  Level Ln srch  Step   QN   Walltime
          iter iter root      energy       change     param      element    value   shift minimum  type update hh:mm:ss
 Nr of preliminary CI iterations:   5
        1   1   15    0  -453.69784974    0.00E+00  -0.46E-01   37  39 1  0.14E-01*  0.15   0.00    SX    NO    0:00:13
        2   5   15    0  -453.70470533   -0.69E-02*  0.23E-01   37  39 1  0.64E-02*  0.17   0.00    SX    NO    0:00:07
        3   3   13    0  -453.70567110   -0.97E-03* -0.12E-01   19  40 1 -0.38E-02*  0.17   0.00    SX    NO    0:00:06
        4   5   13    0  -453.70634875   -0.68E-03*  0.63E-02   37  39 1  0.16E-02*  0.17   0.00    SX    NO    0:00:06
        5   4   12    0  -453.70650120   -0.15E-03*  0.11E-01   21  68 1 -0.99E-03*  0.17   1.48    QN   YES    0:00:06
        6   8   11    0  -453.70659493   -0.94E-04*  0.20E-02   21  98 1  0.64E-03*  0.18   0.81    QN   YES    0:00:06
        7   4   10    0  -453.70660127   -0.63E-05* -0.80E-03   21  98 1 -0.55E-03*  0.18   0.62    QN   YES    0:00:06
        8   7    9    0  -453.70660536   -0.41E-05* -0.12E-02   21  76 1  0.96E-04   0.18   2.50    LS   YES    0:00:06
        9   4   10    0  -453.70660511    0.25E-06*  0.21E-03   19  40 1 -0.35E-03*  0.18   0.54    QN   YES    0:00:06
       10   7    9    0  -453.70660667   -0.16E-05* -0.42E-03   34  40 1  0.66E-04   0.18   1.13    QN   YES    0:00:06
       11   3    8    0  -453.70660689   -0.22E-06*  0.55E-03   11  83 1 -0.44E-04   0.18   1.50    QN   YES    0:00:06
       12   4    8    0  -453.70660702   -0.13E-06*  0.21E-03   34  40 1 -0.45E-04   0.18   1.06    QN   YES    0:00:06
       13   3    7    0  -453.70660706   -0.40E-07* -0.26E-03   34  40 1 -0.21E-04   0.18   1.69    QN   YES    0:00:06
       14   4    6    0  -453.70660708   -0.20E-07* -0.17E-04   30 162 1 -0.49E-05   0.18   1.00    QN   YES    0:00:06
       15   1    5    0  -453.70660708   -0.13E-08   0.16E-04   30 162 1 -0.26E-05   0.18   1.54    QN   YES    0:00:06
      Convergence after 15 iterations
       16   1    5    0  -453.70660708   -0.35E-09   0.16E-04   19  40 1 -0.12E-05   0.18   1.54    QN   YES    0:00:06
 
      ************************************************************************************************************************
                                                      Wave function printout:
                       occupation of active orbitals, and spin coupling of open shells (u,d: Spin up or down)
      ************************************************************************************************************************
 
      Note: transformation to natural orbitals
      has been made, which may change the order of the CSFs.
 
      printout of CI-coefficients larger than  0.05 for root  1
      energy=    -453.958441
      conf/sym  11111111     Coeff  Weight
             1  22222200  -0.96182 0.92510
             8  2222u20d  -0.14012 0.01963
            17  22220202   0.07666 0.00588
            64  2u22220d   0.07816 0.00611
            74  2u22d202  -0.06710 0.00450
            81  u22222d0   0.08876 0.00788
           141  22022220   0.08650 0.00748
           161  u2d22220  -0.05100 0.00260
           175  20222202   0.10065 0.01013
           191  02222220   0.08063 0.00650
 
      printout of CI-coefficients larger than  0.05 for root  2
      energy=    -453.748998
      conf/sym  11111111     Coeff  Weight
            21  222u22d0   0.08633 0.00745
            24  222u220d   0.95648 0.91486
            34  222ud202  -0.09340 0.00872
           125  2u2d2202   0.18702 0.03498
           213  u22u22dd   0.07312 0.00535
           249  220u222d   0.08467 0.00717
           257  u2du222d  -0.05162 0.00266
           269  022u222d   0.08091 0.00655
 
      printout of CI-coefficients larger than  0.05 for root  3
      energy=    -453.738755
      conf/sym  11111111     Coeff  Weight
             2  22222ud0   0.92105 0.84833
             3  2222u2d0  -0.20603 0.04245
            10  2222udud   0.06158 0.00379
            12  2222uudd   0.10587 0.01121
            19  22220ud2  -0.07909 0.00625
            41  22u222d0  -0.08633 0.00745
            42  22u22d20  -0.17559 0.03083
            67  2u222udd  -0.06647 0.00442
            76  2u22dud2   0.06382 0.00407
            82  u2222d20   0.13606 0.01851
           176  20222ud2  -0.09505 0.00903
 
      printout of CI-coefficients larger than  0.05 for root  4
      energy=    -453.647791
      conf/sym  11111111     Coeff  Weight
             2  22222ud0  -0.17491 0.03059
             3  2222u2d0  -0.44330 0.19651
             8  2222u20d  -0.20054 0.04022
            41  22u222d0  -0.78512 0.61641
            43  22u2d220  -0.05101 0.00260
            48  22u2u2dd   0.08737 0.00763
            58  22u202d2  -0.06933 0.00481
            66  2u22d2ud  -0.05672 0.00322
            68  2u22u2dd   0.08317 0.00692
            81  u22222d0  -0.09168 0.00841
           141  22022220  -0.06816 0.00465
           161  u2d22220  -0.19079 0.03640
           177  2022u2d2   0.05907 0.00349
           191  02222220   0.05720 0.00327
           219  2uu222dd   0.05731 0.00328
           294  20u222d2   0.07895 0.00623
 
      printout of CI-coefficients larger than  0.05 for root  5
      energy=    -453.630968
      conf/sym  11111111     Coeff  Weight
             1  22222200  -0.06983 0.00488
             2  22222ud0   0.10227 0.01046
             3  2222u2d0   0.62353 0.38879
             8  2222u20d   0.47164 0.22245
            17  22220202   0.10346 0.01070
            21  222u22d0   0.06885 0.00474
            41  22u222d0  -0.50220 0.25220
            61  2u2222d0   0.05214 0.00272
            66  2u22d2ud   0.10409 0.01084
            68  2u22u2dd  -0.13320 0.01774
            74  2u22d202   0.11929 0.01423
            88  u222u2dd   0.05056 0.00256
           161  u2d22220  -0.12883 0.01660
           175  20222202  -0.05766 0.00332
           177  2022u2d2  -0.08688 0.00755
           294  20u222d2   0.05226 0.00273
 
      printout of CI-coefficients larger than  0.05 for root  6
      energy=    -453.623723
      conf/sym  11111111     Coeff  Weight
             1  22222200  -0.08945 0.00800
             2  22222ud0  -0.06618 0.00438
             3  2222u2d0  -0.48715 0.23732
             8  2222u20d   0.64218 0.41239
            17  22220202   0.12147 0.01476
            21  222u22d0   0.43346 0.18788
            26  222ud2ud  -0.10739 0.01153
            28  222uu2dd   0.15312 0.02344
            41  22u222d0   0.09861 0.00972
            66  2u22d2ud  -0.08108 0.00657
            68  2u22u2dd   0.12236 0.01497
            74  2u22d202   0.16311 0.02660
            88  u222u2dd   0.05993 0.00359
           144  2202u22d   0.05898 0.00348
           175  20222202  -0.06974 0.00486
           177  2022u2d2   0.07643 0.00584
           194  0222u22d   0.05170 0.00267
 
      printout of CI-coefficients larger than  0.05 for root  7
      energy=    -453.597573
      conf/sym  11111111     Coeff  Weight
             1  22222200   0.05217 0.00272
             2  22222ud0   0.05419 0.00294
             3  2222u2d0   0.19913 0.03965
             8  2222u20d  -0.39348 0.15482
            17  22220202  -0.09737 0.00948
            21  222u22d0   0.77288 0.59734
            24  222u220d  -0.08836 0.00781
            25  222u2dud   0.07131 0.00508
            26  222ud2ud  -0.20108 0.04043
            27  222u2udd  -0.07318 0.00536
            28  222uu2dd   0.27958 0.07816
            74  2u22d202  -0.09524 0.00907
            81  u22222d0  -0.07434 0.00553
           175  20222202   0.05134 0.00264
           211  2u2ud2d2  -0.06700 0.00449
           262  202u22d2  -0.06890 0.00475
 
      Natural orbitals and occupation numbers for root  1
      sym 1:   1.968053   1.996102   1.994650   1.999612   1.952971   1.999840   0.037665   0.051107
 
      Natural orbitals and occupation numbers for root  2
      sym 1:   1.968169   1.999903   1.994987   1.006539   1.999444   1.999823   0.037046   0.994089
 
      Natural orbitals and occupation numbers for root  3
      sym 1:   1.999907   1.994578   1.999126   1.999577   1.953130   1.005762   0.996389   0.051531
 
      Natural orbitals and occupation numbers for root  4
      sym 1:   1.972263   1.965088   1.143531   1.999460   1.919209   1.999119   0.900972   0.100358
 
      Natural orbitals and occupation numbers for root  5
      sym 1:   1.980186   1.931759   1.885955   1.997225   1.109135   1.998721   0.929406   0.167611
 
      Natural orbitals and occupation numbers for root  6
      sym 1:   1.997351   1.946076   1.982599   1.861922   1.163759   1.995196   0.206902   0.846194
 
      Natural orbitals and occupation numbers for root  7
      sym 1:   1.997515   1.971407   1.985267   1.310899   1.786655   1.991954   0.707838   0.248465
 
      ************************************************************************************************************************
      *                                                                                                                      *
      *                                                    Final results                                                     *
      *                                                                                                                      *
      ************************************************************************************************************************
 
 
++    Wave function specifications:
      -----------------------------
 
      Number of closed shell electrons          58
      Number of electrons in active shells      12
      Max number of holes in RAS1 space          0
      Max nr of electrons in RAS3 space          0
      Number of inactive orbitals               29
      Number of active orbitals                  8
      Number of secondary orbitals             172
      Spin quantum number                      0.0
      State symmetry                             1
--
 
++    Orbital specifications:
      -----------------------
 
      Symmetry species                           1
                                                 a
      Frozen orbitals                            0
      Inactive orbitals                         29
      Active orbitals                            8
      RAS1 orbitals                              0
      RAS2 orbitals                              8
      RAS3 orbitals                              0
      Secondary orbitals                       172
      Deleted orbitals                           3
      Number of basis functions                212
--
 
++    CI expansion specifications:
      ----------------------------
 
      Number of CSFs                           336
      Number of determinants                   406
      Number of root(s) required                 7
      CI roots used                              1     2     3     4     5     6     7
      weights                                0.143 0.143 0.143 0.143 0.143 0.143 0.143
      highest root included in the CI            7
      Root passed to geometry opt.               7
--
 
++    Final optimization conditions:
      ------------------------------
 
      Average CI energy                            -453.70660708
      RASSCF energy for state  7                   -453.59757258
      Super-CI energy                                -0.00000000
      RASSCF energy change                            0.00000000
      Max change in MO coefficients               0.238E-04
      Max non-diagonal density matrix element     0.160E-04
      Maximum BLB matrix element                 -0.121E-05
      (orbital pair  19,  40 in symmetry   1)
      Norm of electronic gradient            0.282E+00
--
 
 
      Final state energy(ies):
      ------------------------
 
::    RASSCF root number  1 Total energy:   -453.95844113
::    RASSCF root number  2 Total energy:   -453.74899841
::    RASSCF root number  3 Total energy:   -453.73875539
::    RASSCF root number  4 Total energy:   -453.64779112
::    RASSCF root number  5 Total energy:   -453.63096752
::    RASSCF root number  6 Total energy:   -453.62372339
::    RASSCF root number  7 Total energy:   -453.59757258
 
++    Molecular orbitals:
      -------------------
 
      Pseudonatural active orbitals and approximate occupation numbers
 
 
 
 
      Molecular orbitals for symmetry species 1: a  
 
 
      Orbital                 1         2         3         4         5         6         7         8         9        10
      Energy           -20.6021  -20.5166  -15.6393  -15.5806  -11.3441  -11.2869  -11.2863  -11.2619  -11.2606   -1.4274
      Occ. No.           2.0000    2.0000    2.0000    2.0000    2.0000    2.0000    2.0000    2.0000    2.0000    2.0000
 
     1 C1     1s         0.0003   -0.0001    0.0003   -0.0001    0.9999    0.0001    0.0001    0.0038   -0.0001   -0.0386
     2 C1     2s         0.0005   -0.0009    0.0010   -0.0006    0.0019   -0.0004   -0.0003    0.0005   -0.0006    0.3583
     3 C1     3s        -0.0007   -0.0007    0.0003   -0.0005   -0.0003   -0.0004   -0.0003    0.0008   -0.0005   -0.0023
     4 C1     4s        -0.0004   -0.0002    0.0000   -0.0001    0.0012   -0.0002   -0.0001    0.0003   -0.0001    0.0041
     5 C1     2px       -0.0011   -0.0005    0.0017   -0.0004    0.0012    0.0000    0.0001    0.0004   -0.0001   -0.0407
     6 C1     3px       -0.0007   -0.0003    0.0012   -0.0005    0.0013   -0.0005    0.0002   -0.0001   -0.0002    0.0248
     7 C1     4px        0.0001    0.0001   -0.0001   -0.0001    0.0005   -0.0003   -0.0000   -0.0002   -0.0000   -0.0126
     8 C1     2py        0.0028   -0.0002    0.0001   -0.0000    0.0011   -0.0002    0.0003    0.0006   -0.0001    0.0971
     9 C1     3py        0.0019   -0.0003    0.0001   -0.0000    0.0010   -0.0006    0.0001   -0.0002   -0.0001   -0.0701
    10 C1     4py       -0.0003   -0.0001    0.0000   -0.0000    0.0007   -0.0003   -0.0002   -0.0003   -0.0000    0.0232
    11 C1     2pz       -0.0004   -0.0001    0.0002   -0.0001   -0.0001   -0.0000   -0.0000   -0.0000    0.0000   -0.0116
    12 C1     3pz       -0.0003   -0.0001    0.0001   -0.0002   -0.0001   -0.0000    0.0000    0.0001    0.0000    0.0097
    13 C1     4pz        0.0000   -0.0000   -0.0000   -0.0001   -0.0001    0.0000    0.0000    0.0000    0.0000   -0.0040
    14 C1     3d2-       0.0002   -0.0000    0.0001    0.0000   -0.0004   -0.0000    0.0000   -0.0001    0.0000   -0.0321
    15 C1     3d1-       0.0000   -0.0000    0.0000   -0.0000   -0.0001    0.0000    0.0000   -0.0000    0.0000   -0.0087
    16 C1     3d0       -0.0000    0.0000    0.0001    0.0000   -0.0004   -0.0000   -0.0000   -0.0001    0.0000   -0.0268
    17 C1     3d1+      -0.0000   -0.0000    0.0000   -0.0000    0.0001    0.0000    0.0000    0.0000   -0.0000    0.0050
    18 C1     3d2+       0.0001   -0.0000   -0.0002   -0.0000   -0.0001    0.0001   -0.0000    0.0000    0.0000   -0.0126
    19 C3     1s         0.0001    0.0002    0.0003    0.0001   -0.0001    0.7972    0.6028   -0.0000    0.0000   -0.0086
    20 C3     2s         0.0008    0.0011    0.0017    0.0009    0.0002   -0.0019   -0.0003   -0.0005    0.0006    0.0193
    21 C3     3s         0.0005    0.0007    0.0009    0.0007    0.0001   -0.0028   -0.0010   -0.0003    0.0003   -0.0164
    22 C3     4s         0.0001    0.0001    0.0002    0.0001   -0.0001    0.0004    0.0005   -0.0000    0.0000   -0.0018
    23 C3     2px        0.0002   -0.0005   -0.0003    0.0004    0.0008   -0.0008   -0.0006   -0.0002   -0.0001   -0.0225
    24 C3     3px        0.0003   -0.0007    0.0003    0.0004    0.0014   -0.0011   -0.0002   -0.0003   -0.0005   -0.0134
    25 C3     4px        0.0001   -0.0002    0.0002   -0.0000    0.0005   -0.0005   -0.0002   -0.0001   -0.0002   -0.0073
    26 C3     2py       -0.0003   -0.0000   -0.0007   -0.0005    0.0003    0.0002   -0.0003   -0.0000   -0.0001   -0.0174
    27 C3     3py       -0.0002    0.0000   -0.0001   -0.0004    0.0004    0.0003   -0.0001   -0.0002   -0.0001   -0.0039
    28 C3     4py        0.0000    0.0001    0.0002    0.0001    0.0001   -0.0007   -0.0004   -0.0001   -0.0000   -0.0045
    29 C3     2pz       -0.0002   -0.0005   -0.0003    0.0004   -0.0002   -0.0002   -0.0002    0.0002   -0.0006    0.0096
    30 C3     3pz       -0.0001   -0.0003   -0.0005    0.0004   -0.0003   -0.0002   -0.0005    0.0002   -0.0007    0.0143
    31 C3     4pz        0.0001    0.0001   -0.0001    0.0001   -0.0001   -0.0001   -0.0002    0.0000   -0.0001    0.0017
    32 C3     3d2-       0.0000    0.0001    0.0000   -0.0000    0.0001   -0.0001   -0.0000   -0.0000   -0.0000    0.0035
    33 C3     3d1-      -0.0000   -0.0000   -0.0000   -0.0000   -0.0000   -0.0000   -0.0000    0.0000    0.0000    0.0002
    34 C3     3d0       -0.0000    0.0001    0.0001    0.0000   -0.0000    0.0000    0.0001    0.0000   -0.0000   -0.0022
    35 C3     3d1+       0.0000   -0.0001   -0.0000    0.0000    0.0000    0.0001    0.0000   -0.0000   -0.0001   -0.0004
    36 C3     3d2+      -0.0000   -0.0000    0.0001    0.0000    0.0000    0.0000    0.0000    0.0000    0.0000   -0.0002
    37 C4     1s        -0.0001    0.0004   -0.0000    0.0002   -0.0001    0.6030   -0.7977    0.0000    0.0003    0.0000
    38 C4     2s        -0.0005    0.0016    0.0000    0.0010   -0.0007    0.0022   -0.0015    0.0003   -0.0002    0.0240
    39 C4     3s        -0.0003    0.0001    0.0001    0.0004   -0.0006    0.0003    0.0001    0.0002   -0.0002    0.0066
    40 C4     4s        -0.0001   -0.0002    0.0000    0.0001   -0.0002    0.0009   -0.0010    0.0001   -0.0001    0.0024
    41 C4     2px        0.0001    0.0024   -0.0003    0.0001   -0.0000   -0.0008   -0.0006   -0.0001    0.0001   -0.0003
    42 C4     3px        0.0001    0.0015   -0.0003   -0.0000    0.0001   -0.0002   -0.0002   -0.0002   -0.0005    0.0003
    43 C4     4px        0.0000   -0.0004    0.0000   -0.0001    0.0001    0.0003   -0.0001   -0.0001   -0.0004   -0.0011
    44 C4     2py        0.0000   -0.0013    0.0002    0.0001   -0.0002    0.0003    0.0003    0.0002   -0.0001    0.0024
    45 C4     3py       -0.0000   -0.0010    0.0001    0.0000   -0.0004    0.0004    0.0004    0.0003   -0.0001    0.0090
    46 C4     4py       -0.0000    0.0001   -0.0001   -0.0000   -0.0001    0.0001    0.0002    0.0001    0.0000    0.0024
    47 C4     2pz       -0.0002    0.0014   -0.0002   -0.0016   -0.0002    0.0004    0.0011    0.0000    0.0005    0.0035
    48 C4     3pz       -0.0003    0.0011    0.0000   -0.0012   -0.0003    0.0005    0.0008    0.0001    0.0010    0.0026
    49 C4     4pz       -0.0001   -0.0001    0.0001    0.0001   -0.0001   -0.0001    0.0003    0.0000    0.0004    0.0013
    50 C4     3d2-       0.0000    0.0000    0.0000    0.0000    0.0000   -0.0001    0.0002   -0.0000   -0.0000   -0.0007
    51 C4     3d1-       0.0000   -0.0000    0.0000    0.0001    0.0000   -0.0001    0.0002    0.0000   -0.0000   -0.0007
    52 C4     3d0       -0.0000    0.0001    0.0000   -0.0002   -0.0000    0.0000   -0.0002    0.0000    0.0001    0.0003
    53 C4     3d1+      -0.0000   -0.0001   -0.0001   -0.0001   -0.0000    0.0001   -0.0003    0.0000   -0.0000    0.0009
    54 C4     3d2+       0.0000   -0.0000   -0.0000    0.0000    0.0000    0.0001   -0.0002   -0.0000    0.0000    0.0009
    55 C6     1s        -0.0000    0.0001   -0.0001    0.0003   -0.0001   -0.0002    0.0003    0.0000    0.9997    0.0014
    56 C6     2s        -0.0001    0.0006   -0.0010    0.0014   -0.0008   -0.0002    0.0000    0.0001   -0.0001    0.0129
    57 C6     3s        -0.0001    0.0005   -0.0007    0.0003   -0.0007   -0.0002    0.0002    0.0001   -0.0017    0.0100
    58 C6     4s        -0.0000    0.0001   -0.0002   -0.0001   -0.0002   -0.0001    0.0001    0.0000    0.0009    0.0031
    59 C6     2px        0.0001   -0.0001    0.0002   -0.0004    0.0002   -0.0001   -0.0002   -0.0001   -0.0001   -0.0061
    60 C6     3px        0.0000   -0.0002    0.0002    0.0001    0.0002   -0.0001   -0.0002   -0.0001    0.0002   -0.0054
    61 C6     4px       -0.0000   -0.0000   -0.0000    0.0002    0.0000    0.0000    0.0000    0.0000   -0.0005   -0.0001
    62 C6     2py        0.0001    0.0001   -0.0002    0.0002   -0.0001   -0.0001   -0.0002   -0.0001    0.0000    0.0004
    63 C6     3py        0.0001    0.0001   -0.0002    0.0002   -0.0000   -0.0001   -0.0002   -0.0001   -0.0001   -0.0002
    64 C6     4py       -0.0000    0.0000    0.0000   -0.0000    0.0000   -0.0000   -0.0001   -0.0000    0.0001   -0.0003
    65 C6     2pz        0.0000    0.0004   -0.0001    0.0002   -0.0002   -0.0002    0.0003   -0.0000   -0.0002    0.0029
    66 C6     3pz       -0.0000    0.0003   -0.0001   -0.0002   -0.0002   -0.0003    0.0005    0.0000   -0.0001    0.0030
    67 C6     4pz       -0.0000   -0.0000   -0.0000   -0.0002   -0.0000   -0.0001    0.0001    0.0000    0.0004    0.0008
    68 C6     3d2-      -0.0000   -0.0000    0.0000    0.0001   -0.0000   -0.0000   -0.0000    0.0000    0.0001    0.0000
    69 C6     3d1-      -0.0000   -0.0000   -0.0000    0.0000    0.0000   -0.0000    0.0000    0.0000   -0.0000    0.0001
    70 C6     3d0       -0.0000    0.0000    0.0000    0.0000    0.0000    0.0000   -0.0001    0.0000    0.0000   -0.0001
    71 C6     3d1+       0.0000   -0.0000    0.0000    0.0000    0.0000   -0.0000    0.0000   -0.0000    0.0001   -0.0004
    72 C6     3d2+      -0.0000    0.0000   -0.0000   -0.0001   -0.0000    0.0000    0.0000   -0.0000   -0.0001    0.0001
    73 C19    1s         0.0002   -0.0001   -0.0000    0.0000    0.0037    0.0001    0.0001   -1.0000   -0.0000   -0.0145
    74 C19    2s         0.0010   -0.0006   -0.0001   -0.0000    0.0006    0.0007    0.0004   -0.0020   -0.0001   -0.0124
    75 C19    3s         0.0007   -0.0005    0.0000   -0.0001    0.0003    0.0003    0.0002    0.0004   -0.0001   -0.0392
    76 C19    4s         0.0001   -0.0002   -0.0000   -0.0001    0.0001   -0.0000   -0.0000   -0.0012   -0.0001   -0.0037
    77 C19    2px        0.0008   -0.0002   -0.0003   -0.0000   -0.0001    0.0002    0.0000    0.0002   -0.0000   -0.0090
    78 C19    3px        0.0005   -0.0002   -0.0002   -0.0000   -0.0003    0.0002   -0.0000    0.0001   -0.0000   -0.0076
    79 C19    4px       -0.0002    0.0000   -0.0000    0.0000   -0.0000    0.0000   -0.0000   -0.0002    0.0000    0.0079
    80 C19    2py       -0.0001   -0.0001    0.0003   -0.0001    0.0004    0.0002    0.0001    0.0002   -0.0001    0.0212
    81 C19    3py       -0.0003   -0.0001    0.0003   -0.0001   -0.0001    0.0000    0.0001    0.0000   -0.0001   -0.0057
    82 C19    4py       -0.0001    0.0000   -0.0001   -0.0000   -0.0001   -0.0001   -0.0000   -0.0004   -0.0000    0.0053
    83 C19    2pz       -0.0001   -0.0000   -0.0000   -0.0000   -0.0001    0.0000   -0.0000   -0.0000   -0.0000   -0.0029
    84 C19    3pz       -0.0000   -0.0000   -0.0000   -0.0000   -0.0000    0.0000   -0.0000   -0.0000   -0.0000    0.0008
    85 C19    4pz        0.0000    0.0000    0.0000    0.0000    0.0000    0.0000   -0.0000    0.0000    0.0000   -0.0006
    86 C19    3d2-       0.0001    0.0000   -0.0000   -0.0000    0.0000    0.0001    0.0000    0.0001   -0.0000    0.0011
    87 C19    3d1-       0.0000    0.0000   -0.0000   -0.0000    0.0000   -0.0000   -0.0000   -0.0000    0.0000   -0.0010
    88 C19    3d0       -0.0001    0.0000   -0.0001    0.0000    0.0001   -0.0000   -0.0000   -0.0001    0.0000    0.0015
    89 C19    3d1+       0.0000    0.0000    0.0000    0.0000   -0.0000   -0.0000   -0.0000   -0.0000    0.0000    0.0001
    90 C19    3d2+       0.0001    0.0000   -0.0000    0.0000   -0.0001   -0.0000   -0.0000   -0.0001    0.0000   -0.0068
    91 N2     1s         0.0001    0.0001    0.9998   -0.0000   -0.0002    0.0001    0.0000   -0.0001    0.0000   -0.0178
    92 N2     2s         0.0004    0.0004   -0.0001   -0.0003   -0.0001    0.0016    0.0005   -0.0007    0.0000    0.1129
    93 N2     3s         0.0003    0.0003   -0.0015   -0.0002   -0.0002    0.0009    0.0001   -0.0005    0.0000   -0.0478
    94 N2     4s         0.0001    0.0001    0.0004   -0.0000    0.0001    0.0003    0.0000   -0.0001   -0.0000   -0.0114
    95 N2     2px        0.0001   -0.0008    0.0003   -0.0007   -0.0004    0.0012    0.0002    0.0005   -0.0003   -0.0256
    96 N2     3px        0.0000   -0.0012    0.0003   -0.0009   -0.0003    0.0011    0.0002    0.0004   -0.0004    0.0232
    97 N2     4px       -0.0000   -0.0001   -0.0002   -0.0000   -0.0003   -0.0000    0.0001   -0.0001   -0.0001   -0.0046
    98 N2     2py       -0.0015   -0.0004   -0.0008   -0.0001    0.0002    0.0008    0.0002    0.0003   -0.0001    0.0393
    99 N2     3py       -0.0018   -0.0005   -0.0002   -0.0002    0.0002    0.0009    0.0001    0.0002   -0.0001    0.0150
   100 N2     4py       -0.0000   -0.0001    0.0005   -0.0000   -0.0000    0.0002    0.0001   -0.0001    0.0000   -0.0059
   101 N2     2pz        0.0003    0.0001    0.0003    0.0001    0.0000    0.0001   -0.0001   -0.0001    0.0001   -0.0047
   102 N2     3pz        0.0004    0.0002   -0.0001    0.0001    0.0001    0.0000   -0.0001   -0.0002    0.0001   -0.0095
   103 N2     4pz        0.0000    0.0000    0.0001    0.0001    0.0001   -0.0000   -0.0001   -0.0000    0.0000    0.0001
   104 N2     3d2-       0.0001   -0.0000   -0.0002   -0.0000   -0.0001   -0.0000   -0.0000    0.0000   -0.0000   -0.0031
   105 N2     3d1-      -0.0000    0.0000   -0.0001    0.0000    0.0000   -0.0000    0.0000    0.0000    0.0000    0.0006
   106 N2     3d0       -0.0000    0.0000   -0.0000    0.0000    0.0001    0.0000    0.0001    0.0001   -0.0000   -0.0027
   107 N2     3d1+      -0.0000    0.0000    0.0000    0.0000   -0.0000   -0.0000    0.0000   -0.0000    0.0000    0.0005
   108 N2     3d2+      -0.0000   -0.0000   -0.0000   -0.0000    0.0001   -0.0000   -0.0000   -0.0000   -0.0000    0.0044
   109 N5     1s         0.0000    0.0001   -0.0000    0.9999    0.0001   -0.0001    0.0002   -0.0000    0.0001   -0.0017
   110 N5     2s         0.0002    0.0006   -0.0001    0.0006    0.0006    0.0003    0.0003   -0.0002    0.0017   -0.0015
   111 N5     3s         0.0002    0.0005   -0.0001   -0.0010    0.0004    0.0001    0.0004   -0.0001    0.0010   -0.0054
   112 N5     4s         0.0001    0.0001   -0.0000    0.0006    0.0001    0.0001   -0.0000   -0.0000    0.0004   -0.0012
   113 N5     2px       -0.0002   -0.0015    0.0006   -0.0010    0.0003    0.0003   -0.0001    0.0000    0.0008   -0.0071
   114 N5     3px       -0.0002   -0.0019    0.0009   -0.0005    0.0006    0.0004    0.0001    0.0000    0.0009   -0.0112
   115 N5     4px       -0.0000   -0.0000    0.0001    0.0003    0.0002    0.0001    0.0002   -0.0000    0.0003   -0.0023
   116 N5     2py       -0.0000    0.0005    0.0000    0.0003    0.0001   -0.0002    0.0002   -0.0000   -0.0001   -0.0020
   117 N5     3py       -0.0001    0.0006    0.0000    0.0001    0.0001   -0.0001    0.0000   -0.0001   -0.0002   -0.0001
   118 N5     4py       -0.0000    0.0000   -0.0000   -0.0002    0.0000    0.0000    0.0000   -0.0000   -0.0001   -0.0000
   119 N5     2pz        0.0000    0.0000   -0.0006   -0.0003   -0.0004    0.0002   -0.0000    0.0000   -0.0007    0.0079
   120 N5     3pz        0.0000    0.0002   -0.0008   -0.0001   -0.0006    0.0000   -0.0001    0.0001   -0.0004    0.0109
   121 N5     4pz       -0.0000    0.0000   -0.0000    0.0001   -0.0001    0.0000   -0.0003    0.0000    0.0000    0.0023
   122 N5     3d2-      -0.0000   -0.0000   -0.0000   -0.0000   -0.0000    0.0000   -0.0001    0.0000    0.0000    0.0001
   123 N5     3d1-      -0.0000    0.0000    0.0000   -0.0000   -0.0000   -0.0000   -0.0000    0.0000    0.0000   -0.0001
   124 N5     3d0        0.0000   -0.0000   -0.0000   -0.0001   -0.0000   -0.0000    0.0001   -0.0000   -0.0001    0.0002
   125 N5     3d1+       0.0000   -0.0001    0.0000    0.0002    0.0000    0.0000   -0.0001   -0.0000    0.0000   -0.0003
   126 N5     3d2+       0.0000    0.0001   -0.0000   -0.0000    0.0000   -0.0000    0.0001   -0.0000   -0.0000    0.0000
   127 O7     1s         0.9998   -0.0000    0.0000    0.0000   -0.0003   -0.0000   -0.0000   -0.0001    0.0000   -0.0241
   128 O7     2s        -0.0011   -0.0001    0.0002    0.0000    0.0004    0.0000   -0.0002   -0.0003    0.0000    0.6913
   129 O7     3s        -0.0011   -0.0001    0.0001    0.0000   -0.0001    0.0001   -0.0001   -0.0003   -0.0000   -0.0345
   130 O7     4s         0.0002   -0.0000   -0.0000    0.0000    0.0000    0.0000   -0.0000   -0.0001   -0.0000   -0.0140
   131 O7     2px        0.0002   -0.0001   -0.0003    0.0001    0.0003   -0.0000   -0.0002   -0.0001   -0.0000    0.0818
   132 O7     3px       -0.0002   -0.0001   -0.0004    0.0002   -0.0001   -0.0000   -0.0002   -0.0001   -0.0000   -0.0243
   133 O7     4px        0.0008   -0.0000   -0.0001    0.0000    0.0001    0.0000   -0.0000    0.0000   -0.0000   -0.0014
   134 O7     2py       -0.0003    0.0000   -0.0002    0.0000   -0.0006   -0.0000   -0.0000    0.0001   -0.0000   -0.1225
   135 O7     3py        0.0005    0.0000   -0.0002    0.0001   -0.0004   -0.0000   -0.0001    0.0001   -0.0001    0.0380
   136 O7     4py       -0.0011   -0.0000    0.0001    0.0000   -0.0003   -0.0000   -0.0001   -0.0000   -0.0000    0.0001
   137 O7     2pz        0.0001    0.0000    0.0001    0.0000    0.0001    0.0000    0.0000   -0.0000    0.0000    0.0181
   138 O7     3pz       -0.0001    0.0000    0.0000    0.0000    0.0001    0.0000    0.0001   -0.0000    0.0000   -0.0063
   139 O7     4pz        0.0002    0.0000   -0.0000    0.0000    0.0001    0.0000    0.0000   -0.0000   -0.0000   -0.0002
   140 O7     3d2-       0.0001    0.0000    0.0000   -0.0000   -0.0002    0.0000    0.0000    0.0000   -0.0000   -0.0173
   141 O7     3d1-      -0.0000    0.0000   -0.0000   -0.0000   -0.0000    0.0000    0.0000    0.0000    0.0000   -0.0038
   142 O7     3d0       -0.0000    0.0000   -0.0001   -0.0000   -0.0001   -0.0000   -0.0000    0.0000    0.0000   -0.0102
   143 O7     3d1+      -0.0000   -0.0000   -0.0000   -0.0000    0.0000    0.0000    0.0000   -0.0000    0.0000    0.0024
   144 O7     3d2+       0.0000    0.0000   -0.0001    0.0000   -0.0001   -0.0000   -0.0000    0.0000   -0.0000   -0.0079
   145 O8     1s         0.0000    0.9997    0.0000    0.0000    0.0000   -0.0001    0.0002    0.0000   -0.0001   -0.0011
   146 O8     2s         0.0001   -0.0015    0.0002    0.0002    0.0002    0.0006   -0.0003    0.0000   -0.0003    0.0117
   147 O8     3s         0.0001   -0.0014    0.0001    0.0001    0.0001    0.0002    0.0000    0.0000   -0.0002   -0.0024
   148 O8     4s         0.0000    0.0001   -0.0000    0.0000    0.0000    0.0001   -0.0000    0.0000   -0.0000   -0.0007
   149 O8     2px       -0.0000   -0.0002    0.0000   -0.0002   -0.0001   -0.0004    0.0004    0.0000    0.0000   -0.0029
   150 O8     3px        0.0000    0.0004    0.0001   -0.0001   -0.0001   -0.0002    0.0001    0.0001   -0.0000    0.0019
   151 O8     4px        0.0000   -0.0011    0.0001    0.0001   -0.0000   -0.0001    0.0002    0.0000   -0.0000    0.0001
   152 O8     2py       -0.0000    0.0001    0.0000    0.0000    0.0001    0.0001   -0.0001   -0.0000   -0.0000   -0.0025
   153 O8     3py        0.0000   -0.0002    0.0000    0.0000    0.0001    0.0000   -0.0001   -0.0000   -0.0000   -0.0022
   154 O8     4py        0.0000    0.0005   -0.0000   -0.0000    0.0000    0.0000   -0.0001   -0.0000    0.0000   -0.0003
   155 O8     2pz        0.0000   -0.0002   -0.0001    0.0003   -0.0000   -0.0004    0.0003    0.0000    0.0001   -0.0009
   156 O8     3pz        0.0000    0.0002   -0.0001    0.0003   -0.0001   -0.0002   -0.0001    0.0000    0.0000    0.0015
   157 O8     4pz        0.0000   -0.0007    0.0000    0.0001   -0.0000   -0.0000    0.0000    0.0000   -0.0000    0.0000
   158 O8     3d2-       0.0000    0.0000   -0.0000   -0.0000   -0.0000   -0.0001    0.0001    0.0000   -0.0000   -0.0001
   159 O8     3d1-       0.0000    0.0000    0.0000   -0.0000   -0.0000   -0.0001    0.0001    0.0000    0.0000    0.0000
   160 O8     3d0        0.0000    0.0000    0.0000   -0.0000   -0.0000   -0.0000    0.0000    0.0000   -0.0000   -0.0001
   161 O8     3d1+       0.0000   -0.0001    0.0000   -0.0000    0.0000    0.0001   -0.0002   -0.0000   -0.0000    0.0002
   162 O8     3d2+       0.0000   -0.0000   -0.0000    0.0001    0.0000    0.0001   -0.0000   -0.0000    0.0000    0.0003
   163 H9     1s         0.0003    0.0001    0.0001   -0.0000    0.0001   -0.0002   -0.0000   -0.0003    0.0000    0.0146
   164 H9     2s         0.0002    0.0001    0.0000    0.0000    0.0001   -0.0002   -0.0000    0.0003    0.0000    0.0040
   165 H9     2px       -0.0000    0.0000    0.0000    0.0000    0.0000   -0.0000    0.0000    0.0000    0.0000    0.0010
   166 H9     2py       -0.0000    0.0000   -0.0000    0.0000    0.0000   -0.0000    0.0000   -0.0000    0.0000    0.0011
   167 H9     2pz       -0.0000    0.0000   -0.0000    0.0000   -0.0000    0.0000    0.0000   -0.0001    0.0000   -0.0008
   168 H10    1s         0.0001   -0.0001    0.0001   -0.0002    0.0000   -0.0002   -0.0000   -0.0003   -0.0001    0.0141
   169 H10    2s         0.0001   -0.0001    0.0001   -0.0001    0.0000   -0.0002   -0.0000    0.0003   -0.0001    0.0027
   170 H10    2px       -0.0000   -0.0000    0.0000   -0.0000    0.0000   -0.0000   -0.0000    0.0000   -0.0000    0.0009
   171 H10    2py       -0.0001   -0.0000   -0.0000   -0.0000    0.0001   -0.0000    0.0000   -0.0000   -0.0000    0.0010
   172 H10    2pz        0.0000   -0.0000   -0.0000   -0.0000    0.0000   -0.0000   -0.0000    0.0001   -0.0000    0.0005
   173 H11    1s        -0.0004    0.0001    0.0004   -0.0001    0.0003   -0.0000   -0.0000   -0.0003   -0.0000    0.0205
   174 H11    2s        -0.0002    0.0000    0.0003   -0.0001    0.0001   -0.0000   -0.0000    0.0002   -0.0000    0.0060
   175 H11    2px       -0.0000   -0.0000   -0.0001    0.0000   -0.0000    0.0000    0.0000   -0.0001    0.0000   -0.0000
   176 H11    2py       -0.0000    0.0000    0.0000   -0.0000    0.0001    0.0000   -0.0000    0.0000   -0.0000    0.0020
   177 H11    2pz       -0.0000    0.0000    0.0000   -0.0000    0.0000   -0.0000    0.0000    0.0000    0.0000    0.0003
   178 H12    1s        -0.0010   -0.0003   -0.0009    0.0005    0.0002   -0.0004    0.0000    0.0005   -0.0001    0.0394
   179 H12    2s        -0.0006   -0.0002   -0.0006    0.0003    0.0000   -0.0002    0.0000    0.0002   -0.0000   -0.0010
   180 H12    2px        0.0000    0.0000    0.0002    0.0000   -0.0001   -0.0000    0.0000   -0.0000    0.0000   -0.0042
   181 H12    2py       -0.0000   -0.0000   -0.0004    0.0001    0.0000   -0.0000    0.0001    0.0000   -0.0000    0.0048
   182 H12    2pz        0.0000    0.0000    0.0002   -0.0000   -0.0000    0.0000   -0.0000   -0.0000   -0.0000   -0.0014
   183 H13    1s         0.0002    0.0000   -0.0003    0.0004   -0.0001    0.0004    0.0005    0.0000   -0.0002    0.0156
   184 H13    2s         0.0002    0.0001   -0.0001    0.0003   -0.0000   -0.0001    0.0000    0.0000   -0.0001   -0.0008
   185 H13    2px        0.0000    0.0000    0.0000    0.0000   -0.0000    0.0000    0.0000    0.0000    0.0000   -0.0004
   186 H13    2py       -0.0000   -0.0000   -0.0000   -0.0000    0.0000   -0.0001   -0.0000   -0.0000   -0.0000   -0.0014
   187 H13    2pz        0.0000    0.0001    0.0000    0.0001   -0.0000   -0.0000    0.0000    0.0000   -0.0000    0.0004
   188 H14    1s         0.0003    0.0000   -0.0004   -0.0001   -0.0004    0.0010    0.0007   -0.0000    0.0001    0.0022
   189 H14    2s         0.0002    0.0000   -0.0001   -0.0001   -0.0003    0.0003    0.0002   -0.0000    0.0001   -0.0034
   190 H14    2px       -0.0000   -0.0001    0.0000    0.0000    0.0000    0.0000   -0.0000    0.0000   -0.0000   -0.0003
   191 H14    2py       -0.0000    0.0000    0.0001    0.0001    0.0000   -0.0001   -0.0000    0.0000   -0.0000   -0.0003
   192 H14    2pz       -0.0000    0.0000   -0.0000   -0.0000    0.0000   -0.0001    0.0000    0.0000    0.0000   -0.0005
   193 H15    1s        -0.0002   -0.0013    0.0001   -0.0010   -0.0003    0.0002   -0.0003    0.0001   -0.0002    0.0022
   194 H15    2s        -0.0001   -0.0008    0.0001   -0.0007   -0.0002    0.0001   -0.0000    0.0001   -0.0000    0.0003
   195 H15    2px       -0.0000   -0.0001    0.0000   -0.0004   -0.0001    0.0000   -0.0000    0.0000    0.0000    0.0008
   196 H15    2py        0.0000    0.0000    0.0000    0.0002    0.0000   -0.0000    0.0000    0.0000    0.0000   -0.0003
   197 H15    2pz       -0.0000   -0.0000   -0.0000   -0.0002   -0.0000    0.0001   -0.0001    0.0000   -0.0000    0.0002
   198 H16    1s         0.0001    0.0005   -0.0001   -0.0004   -0.0001   -0.0003    0.0002   -0.0001    0.0005    0.0005
   199 H16    2s         0.0000    0.0003   -0.0001   -0.0002   -0.0000   -0.0002    0.0001   -0.0001   -0.0001    0.0007
   200 H16    2px        0.0000   -0.0000   -0.0000    0.0000   -0.0000   -0.0000    0.0000    0.0000   -0.0000    0.0002
   201 H16    2py        0.0000    0.0000    0.0000   -0.0000   -0.0000   -0.0000    0.0000   -0.0000   -0.0000    0.0000
   202 H16    2pz        0.0000    0.0000   -0.0000   -0.0000   -0.0000   -0.0000    0.0000   -0.0000    0.0000    0.0000
   203 H17    1s        -0.0000    0.0003    0.0001   -0.0006   -0.0001   -0.0000    0.0004    0.0001    0.0005    0.0040
   204 H17    2s        -0.0000    0.0002    0.0001   -0.0003   -0.0001   -0.0000    0.0003    0.0001   -0.0001    0.0028
   205 H17    2px       -0.0000   -0.0000    0.0000    0.0000    0.0000    0.0000   -0.0000   -0.0000   -0.0000   -0.0001
   206 H17    2py        0.0000   -0.0000   -0.0000    0.0000   -0.0000    0.0000   -0.0001   -0.0000    0.0000   -0.0002
   207 H17    2pz       -0.0000    0.0000    0.0000   -0.0000   -0.0000   -0.0000    0.0000    0.0000    0.0000    0.0002
   208 H18    1s        -0.0000    0.0001   -0.0001   -0.0001   -0.0001    0.0001    0.0001    0.0001    0.0010    0.0043
   209 H18    2s        -0.0000    0.0001   -0.0001    0.0000   -0.0001    0.0001   -0.0000    0.0000    0.0001    0.0027
   210 H18    2px        0.0000   -0.0000    0.0000   -0.0000    0.0000   -0.0000   -0.0000   -0.0000   -0.0001   -0.0004
   211 H18    2py       -0.0000    0.0000    0.0000   -0.0000    0.0000    0.0000    0.0000    0.0000    0.0001    0.0002
   212 H18    2pz        0.0000   -0.0000    0.0000   -0.0000    0.0000    0.0000   -0.0000   -0.0000   -0.0001   -0.0003
 
 
      Orbital                11        12        13        14        15        16        17        18        19        20
      Energy            -1.3582   -1.2574   -1.2100   -1.0315   -0.9716   -0.9145   -0.8190   -0.7754   -0.7189   -0.6943
      Occ. No.           2.0000    2.0000    2.0000    2.0000    2.0000    2.0000    2.0000    2.0000    2.0000    2.0000
 
     1 C1     1s         0.0060   -0.0066    0.0053   -0.0160   -0.0026    0.0079    0.0141    0.0002    0.0068    0.0029
     2 C1     2s         0.0316    0.1433    0.0001    0.2755   -0.0282   -0.0663   -0.3852   -0.1131   -0.2449   -0.0639
     3 C1     3s         0.0295    0.0099    0.0214   -0.0155   -0.0090    0.0198    0.0054   -0.0128    0.0085    0.0171
     4 C1     4s         0.0079    0.0031    0.0059   -0.0042   -0.0032    0.0062    0.0032   -0.0022    0.0042    0.0028
     5 C1     2px        0.0345    0.1497    0.0013   -0.0180    0.1095   -0.0832   -0.1310   -0.0076    0.1562    0.2624
     6 C1     3px        0.0233   -0.0368    0.0336   -0.0404   -0.0345    0.0308    0.0302   -0.0081   -0.0730   -0.0545
     7 C1     4px        0.0064    0.0268    0.0015   -0.0097    0.0121   -0.0069   -0.0082   -0.0007    0.0045    0.0178
     8 C1     2py        0.0069   -0.0432    0.0272   -0.1564    0.0502    0.0091   -0.0462    0.0313    0.0585   -0.1694
     9 C1     3py        0.0217    0.0450    0.0208    0.0211   -0.0484    0.0318    0.0099    0.0063   -0.0098    0.0680
    10 C1     4py        0.0012   -0.0076    0.0056   -0.0236    0.0049    0.0020   -0.0064    0.0031   -0.0029   -0.0097
    11 C1     2pz        0.0022    0.0109   -0.0073    0.0228   -0.0030   -0.0007    0.0092   -0.0067    0.0010    0.0206
    12 C1     3pz       -0.0002   -0.0129   -0.0075    0.0005    0.0054   -0.0025   -0.0035   -0.0095    0.0040   -0.0089
    13 C1     4pz        0.0000   -0.0004   -0.0030    0.0033    0.0001   -0.0002    0.0009   -0.0022    0.0018    0.0007
    14 C1     3d2-       0.0018    0.0116   -0.0012    0.0085   -0.0106    0.0073   -0.0119    0.0061    0.0156    0.0047
    15 C1     3d1-       0.0003    0.0023   -0.0002   -0.0022    0.0019   -0.0006    0.0017    0.0008    0.0038    0.0035
    16 C1     3d0        0.0003   -0.0069    0.0010   -0.0111   -0.0014    0.0043    0.0132    0.0026    0.0050    0.0019
    17 C1     3d1+      -0.0000   -0.0001    0.0001   -0.0009    0.0021   -0.0004    0.0031   -0.0000   -0.0023   -0.0026
    18 C1     3d2+       0.0026    0.0285   -0.0038    0.0021    0.0150   -0.0107   -0.0113    0.0005    0.0168    0.0176
    19 C3     1s        -0.0170   -0.0279   -0.0026    0.0315    0.0284   -0.0196    0.0081   -0.0048    0.0016   -0.0009
    20 C3     2s         0.0114    0.1800   -0.0044   -0.2835   -0.2680    0.3234   -0.1058    0.0563   -0.0417    0.0397
    21 C3     3s        -0.0490   -0.0449   -0.0123    0.0536    0.0476   -0.0109    0.0163   -0.0080    0.0085   -0.0045
    22 C3     4s        -0.0078   -0.0102   -0.0012    0.0156    0.0117   -0.0049    0.0049   -0.0029    0.0033   -0.0025
    23 C3     2px        0.0316   -0.0510    0.0312   -0.0184   -0.0542    0.0188    0.0562   -0.1325   -0.2733    0.1284
    24 C3     3px        0.0062    0.0075    0.0238   -0.0185    0.0350    0.0374   -0.0042    0.0250    0.0311   -0.0187
    25 C3     4px        0.0061   -0.0080    0.0080   -0.0029    0.0039    0.0013    0.0044   -0.0081   -0.0040    0.0035
    26 C3     2py       -0.0096   -0.0861    0.0197    0.0060   -0.0202   -0.0034   -0.1342   -0.0156   -0.0331    0.2067
    27 C3     3py        0.0106    0.0166    0.0065   -0.0403    0.0129    0.0011    0.0105   -0.0076    0.0106   -0.0360
    28 C3     4py        0.0015   -0.0011    0.0024   -0.0131   -0.0075    0.0105   -0.0089    0.0043   -0.0021    0.0083
    29 C3     2pz        0.0149    0.0074   -0.0195    0.0197    0.0357    0.0692    0.0151    0.0636   -0.0270   -0.0389
    30 C3     3pz        0.0216    0.0270    0.0099   -0.0060   -0.0130    0.0449   -0.0031   -0.0125   -0.0043    0.0045
    31 C3     4pz       -0.0051    0.0096    0.0015   -0.0070   -0.0055    0.0166   -0.0013    0.0010   -0.0040    0.0005
    32 C3     3d2-       0.0003    0.0183   -0.0003   -0.0023    0.0085   -0.0005    0.0044    0.0076    0.0178   -0.0215
    33 C3     3d1-       0.0031    0.0006    0.0001   -0.0011   -0.0018    0.0008    0.0023   -0.0029   -0.0053   -0.0019
    34 C3     3d0       -0.0055   -0.0099    0.0042    0.0048   -0.0024   -0.0013   -0.0044   -0.0025   -0.0109    0.0116
    35 C3     3d1+      -0.0008   -0.0028   -0.0046    0.0036    0.0087    0.0038   -0.0068    0.0126    0.0117   -0.0020
    36 C3     3d2+       0.0022   -0.0073   -0.0003   -0.0003   -0.0078   -0.0010   -0.0160   -0.0074   -0.0086    0.0186
    37 C4     1s        -0.0418    0.0019   -0.0065    0.0095    0.0132    0.0074    0.0005    0.0166    0.0023   -0.0022
    38 C4     2s         0.3506    0.0106    0.1084   -0.0855   -0.2306   -0.0736    0.0090   -0.4026   -0.0654    0.0792
    39 C4     3s        -0.0186    0.0016    0.0011    0.0249    0.0078    0.0113    0.0066    0.0126    0.0030   -0.0014
    40 C4     4s        -0.0010    0.0010    0.0003    0.0075    0.0033    0.0036    0.0022    0.0062    0.0024   -0.0022
    41 C4     2px        0.1010   -0.0349   -0.0244    0.0607    0.1329    0.0149   -0.0045    0.0064    0.1168   -0.0673
    42 C4     3px       -0.0344    0.0373    0.0695   -0.0486    0.0008    0.0795   -0.0082   -0.0174   -0.0432    0.0243
    43 C4     4px        0.0266   -0.0063    0.0006    0.0048    0.0184    0.0102   -0.0003   -0.0051    0.0021    0.0005
    44 C4     2py       -0.0338    0.0007    0.0478   -0.0050   -0.0480   -0.0211   -0.0193   -0.0260   -0.0092    0.0312
    45 C4     3py        0.0345   -0.0137   -0.0154    0.0189   -0.0041   -0.0041   -0.0089   -0.0009    0.0016   -0.0041
    46 C4     4py       -0.0074   -0.0002    0.0090    0.0009   -0.0083   -0.0027   -0.0071   -0.0022    0.0007    0.0023
    47 C4     2pz        0.0177   -0.0168   -0.1772   -0.0147   -0.0058    0.0687   -0.0023    0.1106   -0.1608    0.0687
    48 C4     3pz       -0.0412   -0.0059   -0.0070    0.0080   -0.0375   -0.1144    0.0074   -0.0165    0.0649   -0.0339
    49 C4     4pz        0.0059   -0.0034   -0.0370   -0.0031   -0.0060   -0.0030    0.0014    0.0083   -0.0079    0.0022
    50 C4     3d2-      -0.0224    0.0040    0.0081    0.0011    0.0032   -0.0005    0.0042    0.0010    0.0037   -0.0081
    51 C4     3d1-      -0.0159    0.0011   -0.0029   -0.0009    0.0017    0.0088   -0.0013    0.0017   -0.0031    0.0027
    52 C4     3d0        0.0016    0.0028    0.0262    0.0007   -0.0064   -0.0170    0.0023   -0.0150    0.0102   -0.0057
    53 C4     3d1+       0.0258   -0.0075   -0.0110    0.0078    0.0062   -0.0123   -0.0016    0.0146    0.0018    0.0024
    54 C4     3d2+       0.0203    0.0003   -0.0073   -0.0054   -0.0059    0.0054   -0.0012   -0.0058   -0.0038    0.0023
    55 C6     1s        -0.0090    0.0043   -0.0346   -0.0153   -0.0352   -0.0428    0.0011    0.0085    0.0041   -0.0048
    56 C6     2s         0.0312    0.0419    0.1615    0.0623    0.2333    0.3951   -0.0197   -0.1100   -0.0313    0.0289
    57 C6     3s        -0.0128    0.0267   -0.0600   -0.0320   -0.0672   -0.0660    0.0018    0.0187    0.0104   -0.0143
    58 C6     4s        -0.0005    0.0073   -0.0102   -0.0061   -0.0146   -0.0138    0.0010    0.0055    0.0025   -0.0036
    59 C6     2px       -0.0156   -0.0152   -0.0831   -0.0175   -0.0149    0.0226   -0.0106   -0.1467    0.0098    0.0440
    60 C6     3px        0.0030   -0.0111    0.0153    0.0042    0.0136   -0.0008   -0.0009    0.0064    0.0043   -0.0082
    61 C6     4px       -0.0028   -0.0010   -0.0022    0.0031    0.0096    0.0157   -0.0015   -0.0116    0.0010    0.0016
    62 C6     2py       -0.0024    0.0090    0.0142    0.0037    0.0053    0.0035   -0.0003    0.0588   -0.0256    0.0131
    63 C6     3py       -0.0057    0.0072   -0.0043   -0.0009    0.0006    0.0075    0.0007    0.0016    0.0017    0.0005
    64 C6     4py       -0.0004   -0.0003    0.0006   -0.0009   -0.0009   -0.0026   -0.0001    0.0044   -0.0015    0.0006
    65 C6     2pz        0.0215    0.0090    0.0651    0.0083    0.0038   -0.0309    0.0073   -0.0305    0.1159   -0.0966
    66 C6     3pz       -0.0011    0.0073   -0.0143   -0.0070   -0.0191   -0.0111    0.0011    0.0006   -0.0131    0.0122
    67 C6     4pz        0.0019    0.0010   -0.0020   -0.0013   -0.0100   -0.0141    0.0011    0.0010    0.0062   -0.0045
    68 C6     3d2-      -0.0012   -0.0002   -0.0052   -0.0014   -0.0026   -0.0007   -0.0004   -0.0045   -0.0023    0.0035
    69 C6     3d1-       0.0005    0.0001    0.0041    0.0006    0.0004   -0.0012    0.0006    0.0053   -0.0013   -0.0012
    70 C6     3d0        0.0009   -0.0006   -0.0003    0.0000   -0.0001   -0.0007    0.0002   -0.0121    0.0076   -0.0038
    71 C6     3d1+      -0.0042   -0.0013   -0.0192   -0.0037   -0.0040    0.0033   -0.0013   -0.0093   -0.0057    0.0082
    72 C6     3d2+       0.0029    0.0005    0.0126    0.0028    0.0046   -0.0004    0.0008    0.0086    0.0045   -0.0066
    73 C19    1s         0.0013   -0.0102    0.0029   -0.0580    0.0419   -0.0179   -0.0129   -0.0053   -0.0092    0.0021
    74 C19    2s         0.0103    0.0005    0.0057    0.3117   -0.2752    0.1401    0.0732    0.0452    0.0953   -0.0010
    75 C19    3s         0.0116   -0.0279    0.0152   -0.1135    0.0772   -0.0294   -0.0346   -0.0120   -0.0172    0.0122
    76 C19    4s         0.0043   -0.0032    0.0047   -0.0240    0.0174   -0.0067   -0.0094   -0.0034   -0.0053    0.0033
    77 C19    2px        0.0057    0.0247   -0.0017    0.0562    0.0045   -0.0258   -0.0455   -0.0350   -0.0716    0.1402
    78 C19    3px        0.0031   -0.0014    0.0019    0.0025    0.0062   -0.0017    0.0040    0.0038    0.0149   -0.0137
    79 C19    4px       -0.0011    0.0006   -0.0006   -0.0088    0.0132   -0.0080   -0.0022   -0.0036   -0.0062    0.0030
    80 C19    2py        0.0066    0.0080    0.0063    0.0452   -0.0088   -0.0136   -0.0621   -0.0506   -0.2116   -0.0619
    81 C19    3py        0.0083   -0.0015    0.0093   -0.0300    0.0161   -0.0008    0.0126    0.0019    0.0208    0.0133
    82 C19    4py        0.0006    0.0014    0.0003   -0.0126    0.0136   -0.0077   -0.0124   -0.0037   -0.0083   -0.0017
    83 C19    2pz        0.0020    0.0001   -0.0000   -0.0087    0.0041    0.0009    0.0123    0.0080    0.0265    0.0047
    84 C19    3pz        0.0017    0.0018    0.0002   -0.0003    0.0006   -0.0014    0.0020    0.0007   -0.0061   -0.0010
    85 C19    4pz       -0.0000    0.0006    0.0003    0.0013   -0.0020    0.0007    0.0019    0.0011    0.0006    0.0001
    86 C19    3d2-       0.0004    0.0057   -0.0008    0.0114   -0.0020   -0.0022   -0.0078   -0.0047   -0.0154   -0.0009
    87 C19    3d1-      -0.0001    0.0004   -0.0001   -0.0024    0.0012   -0.0000    0.0011    0.0012    0.0042    0.0005
    88 C19    3d0       -0.0003   -0.0010    0.0001   -0.0086    0.0033    0.0007    0.0033    0.0032    0.0084   -0.0087
    89 C19    3d1+      -0.0004   -0.0007    0.0001   -0.0016    0.0000    0.0005    0.0013    0.0007    0.0012   -0.0028
    90 C19    3d2+       0.0002    0.0027   -0.0004   -0.0063    0.0043   -0.0009    0.0026    0.0028    0.0126    0.0043
    91 N2     1s        -0.0045   -0.0405    0.0052   -0.0047   -0.0042    0.0022   -0.0044    0.0005    0.0032   -0.0016
    92 N2     2s         0.0498    0.5871   -0.0727   -0.0390    0.2101   -0.0958    0.1478    0.0252    0.1271   -0.0654
    93 N2     3s        -0.0073   -0.0749    0.0116   -0.0155    0.0020    0.0014   -0.0083    0.0004    0.0144   -0.0051
    94 N2     4s        -0.0020   -0.0242    0.0035   -0.0020   -0.0020    0.0016   -0.0030   -0.0010    0.0009   -0.0006
    95 N2     2px        0.0330   -0.0322    0.0276   -0.1510   -0.0695    0.1147    0.3518    0.0229   -0.0872   -0.2997
    96 N2     3px        0.0375   -0.0087    0.0243    0.0204    0.0393   -0.0474   -0.1091   -0.0438    0.0026    0.0637
    97 N2     4px        0.0068    0.0017    0.0028   -0.0061    0.0060   -0.0034   -0.0002   -0.0054   -0.0014    0.0075
    98 N2     2py        0.0097   -0.0002    0.0055   -0.1083   -0.0558    0.1082   -0.2330    0.1140    0.2688   -0.2005
    99 N2     3py        0.0011   -0.0441   -0.0010    0.0427    0.0536   -0.0503    0.0421   -0.0360   -0.0585    0.0243
   100 N2     4py       -0.0008   -0.0147    0.0001    0.0004    0.0048   -0.0057   -0.0089   -0.0032   -0.0014    0.0052
   101 N2     2pz       -0.0052    0.0243   -0.0056    0.0023    0.0202   -0.0084    0.0695    0.0112   -0.0339   -0.0180
   102 N2     3pz       -0.0093   -0.0011    0.0035   -0.0085   -0.0030   -0.0064   -0.0140    0.0074    0.0096    0.0038
   103 N2     4pz       -0.0010    0.0041    0.0007   -0.0007    0.0011    0.0002    0.0028    0.0020   -0.0003    0.0003
   104 N2     3d2-       0.0016    0.0069   -0.0002   -0.0026   -0.0092    0.0089   -0.0042    0.0037    0.0061   -0.0037
   105 N2     3d1-      -0.0008   -0.0019   -0.0001   -0.0008   -0.0017    0.0029   -0.0070    0.0030    0.0045   -0.0024
   106 N2     3d0       -0.0017   -0.0155    0.0020    0.0016   -0.0033    0.0012    0.0021   -0.0004   -0.0027   -0.0009
   107 N2     3d1+      -0.0002    0.0009   -0.0006   -0.0017    0.0008    0.0004    0.0047    0.0006   -0.0021   -0.0030
   108 N2     3d2+       0.0009    0.0059   -0.0006    0.0097    0.0059   -0.0092   -0.0200   -0.0064   -0.0017    0.0155
   109 N5     1s        -0.0198   -0.0041   -0.0423   -0.0025    0.0017    0.0023   -0.0003   -0.0040    0.0034   -0.0024
   110 N5     2s         0.1378    0.0222    0.5746    0.0397   -0.0102   -0.2277    0.0214    0.1696    0.0679   -0.0811
   111 N5     3s        -0.0487   -0.0084   -0.0793   -0.0083   -0.0010   -0.0163    0.0010   -0.0003    0.0147   -0.0117
   112 N5     4s        -0.0116   -0.0016   -0.0263   -0.0034   -0.0017   -0.0018    0.0001   -0.0017    0.0018   -0.0013
   113 N5     2px        0.0280   -0.0403   -0.0078    0.0524    0.0992    0.0984    0.0037   -0.1812    0.1611   -0.1167
   114 N5     3px        0.0059   -0.0486   -0.0403    0.0075   -0.0373   -0.0945    0.0024    0.0398   -0.0286    0.0260
   115 N5     4px       -0.0059   -0.0072   -0.0102    0.0014    0.0012   -0.0062    0.0011   -0.0085    0.0020   -0.0003
   116 N5     2py       -0.0193    0.0009   -0.0034   -0.0053   -0.0020   -0.0108    0.0052    0.1301   -0.0816    0.0377
   117 N5     3py        0.0005    0.0041    0.0135   -0.0029    0.0125    0.0112    0.0043   -0.0309    0.0130   -0.0114
   118 N5     4py        0.0010    0.0005    0.0042    0.0001    0.0017   -0.0005    0.0004    0.0028   -0.0012    0.0005
   119 N5     2pz        0.0251    0.0241    0.0135   -0.0456   -0.1366   -0.1329    0.0013   -0.3319    0.1561   -0.0337
   120 N5     3pz       -0.0226    0.0355   -0.0094    0.0088    0.0250    0.0583    0.0017    0.0887   -0.0240   -0.0018
   121 N5     4pz        0.0047    0.0061   -0.0059   -0.0027   -0.0055    0.0032    0.0015   -0.0017   -0.0002   -0.0010
   122 N5     3d2-      -0.0007    0.0000   -0.0052   -0.0014   -0.0021    0.0007   -0.0001   -0.0071    0.0013    0.0000
   123 N5     3d1-      -0.0032   -0.0003   -0.0042    0.0005    0.0028    0.0061   -0.0006    0.0027   -0.0017    0.0005
   124 N5     3d0        0.0053    0.0007    0.0134   -0.0014   -0.0063   -0.0075   -0.0001   -0.0164    0.0063   -0.0011
   125 N5     3d1+       0.0024   -0.0021   -0.0081   -0.0004   -0.0037   -0.0104    0.0003    0.0044   -0.0007    0.0018
   126 N5     3d2+      -0.0001    0.0007    0.0089    0.0018    0.0040    0.0022   -0.0000    0.0091   -0.0022   -0.0000
   127 O7     1s         0.0007    0.0026   -0.0007   -0.0044    0.0019    0.0003    0.0137    0.0022    0.0134    0.0223
   128 O7     2s        -0.0490   -0.3024    0.0323   -0.2076    0.0471    0.0240    0.3553    0.0408    0.2219    0.3605
   129 O7     3s        -0.0002   -0.0088   -0.0007   -0.0205    0.0089    0.0009    0.0432    0.0048    0.0376    0.0633
   130 O7     4s         0.0005    0.0002   -0.0005   -0.0036    0.0023   -0.0000    0.0083    0.0003    0.0074    0.0133
   131 O7     2px       -0.0048    0.0005   -0.0027   -0.0061    0.0301   -0.0250   -0.1691   -0.0155   -0.0762   -0.2128
   132 O7     3px       -0.0012   -0.0003   -0.0015   -0.0072    0.0022    0.0047    0.0215    0.0006    0.0048    0.0167
   133 O7     4px        0.0000    0.0002   -0.0000   -0.0009   -0.0003    0.0016    0.0017    0.0001    0.0002    0.0007
   134 O7     2py        0.0072    0.0414   -0.0045   -0.0326    0.0222    0.0062    0.1663    0.0388    0.2584    0.4260
   135 O7     3py       -0.0033   -0.0004   -0.0016    0.0138    0.0015    0.0004   -0.0244   -0.0089   -0.0309   -0.0455
   136 O7     4py       -0.0008   -0.0017   -0.0000   -0.0003    0.0010    0.0012   -0.0028   -0.0010   -0.0038   -0.0069
   137 O7     2pz       -0.0018   -0.0015    0.0004    0.0047    0.0009   -0.0036   -0.0236   -0.0035   -0.0319   -0.0588
   138 O7     3pz       -0.0009   -0.0006    0.0012   -0.0008    0.0011   -0.0020    0.0045    0.0026    0.0029    0.0061
   139 O7     4pz       -0.0004   -0.0002    0.0004    0.0007    0.0005   -0.0008    0.0008    0.0005    0.0001    0.0008
   140 O7     3d2-       0.0008    0.0031   -0.0003    0.0011   -0.0025    0.0024    0.0121    0.0017    0.0080    0.0173
   141 O7     3d1-       0.0002    0.0014   -0.0002    0.0001    0.0004   -0.0003    0.0011    0.0003    0.0028    0.0050
   142 O7     3d0        0.0006    0.0042   -0.0007    0.0014    0.0001   -0.0002    0.0050    0.0007    0.0056    0.0117
   143 O7     3d1+      -0.0002   -0.0004    0.0000   -0.0002    0.0006   -0.0004   -0.0016   -0.0002   -0.0009   -0.0025
   144 O7     3d2+       0.0006    0.0052   -0.0007   -0.0025    0.0043   -0.0020    0.0001    0.0016    0.0118    0.0137
   145 O8     1s        -0.0235    0.0024    0.0044    0.0009    0.0026    0.0005   -0.0002    0.0121    0.0022   -0.0018
   146 O8     2s         0.6685   -0.1449   -0.3171    0.1004    0.1621    0.0112   -0.0180    0.3473    0.0471   -0.0306
   147 O8     3s        -0.0277   -0.0018   -0.0074    0.0066    0.0131    0.0008   -0.0022    0.0440    0.0085   -0.0060
   148 O8     4s        -0.0120    0.0005    0.0004    0.0006    0.0015   -0.0002   -0.0011    0.0089    0.0022   -0.0013
   149 O8     2px       -0.1111    0.0105    0.0418    0.0178    0.0229   -0.0163   -0.0087    0.1277    0.0783   -0.0449
   150 O8     3px        0.0318   -0.0074   -0.0062    0.0033   -0.0121   -0.0097   -0.0002   -0.0212   -0.0106    0.0059
   151 O8     4px       -0.0001   -0.0014   -0.0024    0.0021   -0.0001   -0.0010    0.0003   -0.0026   -0.0023    0.0012
   152 O8     2py        0.0473   -0.0163   -0.0164    0.0023   -0.0038   -0.0038    0.0011   -0.0652   -0.0105    0.0094
[...]
AIVX     1  Mu1.0001  In1.027 Se1.046               0.14954170     -0.00037657      0.00042051     -0.00000016
AIVX     1  Mu1.0001  In1.028 Se1.046               0.11496136     -0.00082762      0.00178995     -0.00000148
AIVX     1  Mu1.0001  In1.029 Se1.046               0.08527546      0.00050828     -0.00123632     -0.00000063
AIVX     1  Mu1.0001  In1.021 Se1.047               0.23630113      0.00123026     -0.00213985     -0.00000263
AIVX     1  Mu1.0001  In1.022 Se1.047               0.21680993     -0.00289622      0.00546495     -0.00001583
AIVX     1  Mu1.0001  In1.023 Se1.047               0.28550948      0.00193708     -0.00336294     -0.00000651
AIVX     1  Mu1.0001  In1.024 Se1.047               0.15159976      0.00010182     -0.00013228     -0.00000001
AIVX     1  Mu1.0001  In1.025 Se1.047               0.24797286      0.00036473     -0.00090168     -0.00000033
AIVX     1  Mu1.0001  In1.026 Se1.047               0.23207991      0.00097407     -0.00183603     -0.00000179
AIVX     1  Mu1.0001  In1.027 Se1.047               0.13656242     -0.00082425      0.00187660     -0.00000155
AIVX     1  Mu1.0001  In1.028 Se1.047               0.10198207      0.00035320     -0.00084170     -0.00000030
AIVX     1  Mu1.0001  In1.029 Se1.047               0.07229617     -0.00060464      0.00168160     -0.00000102
AIVX     1  Mu1.0001  In1.021 Se1.048               0.26030538      0.00011078      0.00006263      0.00000001
AIVX     1  Mu1.0001  In1.022 Se1.048               0.24081417      0.00044314     -0.00100325     -0.00000044
AIVX     1  Mu1.0001  In1.024 Se1.048               0.17560401     -0.00044247      0.00091007     -0.00000040
AIVX     1  Mu1.0001  In1.025 Se1.048               0.27197711     -0.00138720      0.00269076     -0.00000373
AIVX     1  Mu1.0001  In1.026 Se1.048               0.25608416      0.00202988     -0.00339017     -0.00000688
AIVX     1  Mu1.0001  In1.027 Se1.048               0.16056666     -0.00062246      0.00145005     -0.00000090
AIVX     1  Mu1.0001  In1.028 Se1.048               0.12598632     -0.00024580      0.00015551     -0.00000004
AIVX     1  Mu1.0001  In1.029 Se1.048               0.09630042      0.00036061     -0.00074421     -0.00000027
AIVX     1  Mu1.0001  In1.021 Se1.049               0.26760596     -0.00087206      0.00106258     -0.00000093
AIVX     1  Mu1.0001  In1.022 Se1.049               0.24811475      0.00037125     -0.00064250     -0.00000024
AIVX     1  Mu1.0001  In1.024 Se1.049               0.18290459      0.00035952     -0.00060928     -0.00000022
AIVX     1  Mu1.0001  In1.025 Se1.049               0.27927769      0.00034591     -0.00056640     -0.00000020
AIVX     1  Mu1.0001  In1.026 Se1.049               0.26338474      0.00008212     -0.00011163     -0.00000001
AIVX     1  Mu1.0001  In1.027 Se1.049               0.16786724      0.00039808     -0.00039867     -0.00000016
AIVX     1  Mu1.0001  In1.028 Se1.049               0.13328690      0.00073160     -0.00120728     -0.00000088
AIVX     1  Mu1.0001  In1.029 Se1.049               0.10360100      0.00004675     -0.00047118     -0.00000002
AIVX     1  Mu1.0001  In1.021 Se1.050               0.29017779     -0.00119297      0.00225033     -0.00000268
AIVX     1  Mu1.0001  In1.022 Se1.050               0.27068659     -0.00030255      0.00008788     -0.00000003
AIVX     1  Mu1.0001  In1.024 Se1.050               0.20547642      0.00033311     -0.00057424     -0.00000019
AIVX     1  Mu1.0001  In1.026 Se1.050               0.28595658      0.00274944     -0.00442069     -0.00001215
AIVX     1  Mu1.0001  In1.027 Se1.050               0.19043908     -0.00032831      0.00036779     -0.00000012
AIVX     1  Mu1.0001  In1.028 Se1.050               0.15585874     -0.00005968     -0.00023110      0.00000001
AIVX     1  Mu1.0001  In1.029 Se1.050               0.12617283     -0.00004219      0.00023667     -0.00000001
AIVX     1  Mu1.0001  In1.022 Se1.051               0.28520550      0.00329893     -0.00537960     -0.00001775
AIVX     1  Mu1.0001  In1.024 Se1.051               0.21999533      0.00003983     -0.00020268     -0.00000001
AIVX     1  Mu1.0001  In1.027 Se1.051               0.20495799      0.00024183     -0.00102410     -0.00000025
AIVX     1  Mu1.0001  In1.028 Se1.051               0.17037764     -0.00148315      0.00246835     -0.00000366
AIVX     1  Mu1.0001  In1.029 Se1.051               0.14069174      0.00154209     -0.00336059     -0.00000518
AIVX     1  Mu1.0001  In1.022 Se1.052               0.29773425     -0.00045800      0.00077393     -0.00000035
AIVX     1  Mu1.0001  In1.024 Se1.052               0.23252409      0.00000042     -0.00006296     -0.00000000
AIVX     1  Mu1.0001  In1.027 Se1.052               0.21748674     -0.00040612      0.00019821     -0.00000008
AIVX     1  Mu1.0001  In1.028 Se1.052               0.18290640      0.00030727     -0.00124579     -0.00000038
AIVX     1  Mu1.0001  In1.029 Se1.052               0.15322050     -0.00027438      0.00079869     -0.00000022
AIVX     1  Mu1.0001  In1.024 Se1.053               0.26660434      0.00001337      0.00025876      0.00000000
AIVX     1  Mu1.0001  In1.027 Se1.053               0.25156700     -0.00028954      0.00041754     -0.00000012
AIVX     1  Mu1.0001  In1.028 Se1.053               0.21698665     -0.00009658      0.00053490     -0.00000005
AIVX     1  Mu1.0001  In1.029 Se1.053               0.18730075     -0.00070687      0.00151348     -0.00000107
AIVX     1  Mu1.0001  In1.024 Se1.054               0.28705736     -0.00016533      0.00013309     -0.00000002
AIVX     1  Mu1.0001  In1.027 Se1.054               0.27202001     -0.00062038      0.00106506     -0.00000066
AIVX     1  Mu1.0001  In1.028 Se1.054               0.23743967     -0.00007664      0.00013036     -0.00000001
AIVX     1  Mu1.0001  In1.029 Se1.054               0.20775377      0.00018880     -0.00056801     -0.00000011
AIVX     1  Mu1.0001  In1.024 Se1.055               0.26192758     -0.00003719     -0.00019056      0.00000001
AIVX     1  Mu1.0001  In1.027 Se1.055               0.24689024      0.00043003     -0.00127279     -0.00000055
AIVX     1  Mu1.0001  In1.028 Se1.055               0.21230989      0.00024030     -0.00079629     -0.00000019
AIVX     1  Mu1.0001  In1.029 Se1.055               0.18262399     -0.00098208      0.00224127     -0.00000220
AIVX     1  Mu1.0001  In1.024 Se1.056               0.29420146      0.00098579     -0.00192139     -0.00000189
AIVX     1  Mu1.0001  In1.027 Se1.056               0.27916411     -0.00009988      0.00038340     -0.00000004
AIVX     1  Mu1.0001  In1.028 Se1.056               0.24458377      0.00039382     -0.00032378     -0.00000013
AIVX     1  Mu1.0001  In1.029 Se1.056               0.21489786     -0.00042547      0.00067690     -0.00000029
AIVX     1  Mu1.0001  In1.028 Se1.057               0.28655404      0.00139357     -0.00203775     -0.00000284
AIVX     1  Mu1.0001  In1.029 Se1.057               0.25686814     -0.00010623     -0.00034537      0.00000004
AIVX     1  Mu1.0001  In1.027 Se1.058               0.29917747     -0.00044827      0.00084402     -0.00000038
AIVX     1  Mu1.0001  In1.028 Se1.058               0.26459712      0.00055786     -0.00095655     -0.00000053
AIVX     1  Mu1.0001  In1.029 Se1.058               0.23491122      0.00073981     -0.00167106     -0.00000124
AIVX     1  Mu1.0001  In1.028 Se1.059               0.28349093      0.00075787     -0.00096620     -0.00000073
AIVX     1  Mu1.0001  In1.029 Se1.059               0.25380503     -0.00038891      0.00062894     -0.00000024
AIVX     1  Mu1.0001  In1.029 Se1.060               0.28878790     -0.00053937      0.00093380     -0.00000050
AIVX     1  Mu1.0001  In1.029 Se1.061               0.27370831      0.00063965     -0.00133545     -0.00000085
--
 
   (Skipping property calculation,
    use PROP keyword to activate)
--
 
  Total CASPT2 energies:
::    CASPT2 Root  1     Total energy:   -455.37837063
::    CASPT2 Root  2     Total energy:   -455.16719883
::    CASPT2 Root  3     Total energy:   -455.17426781
::    CASPT2 Root  4     Total energy:   -455.13431021
::    CASPT2 Root  5     Total energy:   -455.11835216
::    CASPT2 Root  6     Total energy:   -455.11834229
::    CASPT2 Root  7     Total energy:   -455.08118414
 
++ Multi-State CASPT2 section:
********************************************************************************
  MULTI-STATE CASPT2 SECTION
--------------------------------------------------------------------------------
 
  Output diagonal energies have been shifted. Add   -455.000000000000     
 
  Effective Hamiltonian matrix (Symmetric):
 
                1               2               3               4               5
   1        -0.37837063
   2         0.00061123     -0.16719883
   3         0.00077774      0.00002800     -0.17426781
   4         0.01226482     -0.00068642     -0.00057600     -0.13431021
   5        -0.00888271      0.00123016      0.00128096     -0.00550434     -0.11835216
   6        -0.02014134      0.00449727     -0.00271532      0.00438191     -0.01339663
   7         0.01729552     -0.00069532      0.00114488     -0.00427024      0.01344958
 
                6               7
   6        -0.11834229
   7         0.01884750     -0.08118414
 
       Total MS-CASPT2 energies:
::    MS-CASPT2 Root  1     Total energy:   -455.38218075
::    MS-CASPT2 Root  2     Total energy:   -455.17445906
::    MS-CASPT2 Root  3     Total energy:   -455.16781008
::    MS-CASPT2 Root  4     Total energy:   -455.13745339
::    MS-CASPT2 Root  5     Total energy:   -455.13524335
::    MS-CASPT2 Root  6     Total energy:   -455.10326596
::    MS-CASPT2 Root  7     Total energy:   -455.07161349
 
       Eigenvectors:
            0.99229955     -0.00337849      0.02073584     -0.08379812      0.08292373
           -0.00516374     -0.03985286      0.98960707      0.11785438     -0.06415256
           -0.00265342      0.99730956      0.04653262     -0.03631619      0.01286961
           -0.05082188      0.00565662      0.02306653      0.26266133      0.93604374
            0.03991649     -0.00288846     -0.06013109      0.67224895     -0.00604494
            0.08330824      0.05673069     -0.11176917      0.59887108     -0.29914850
           -0.06474134     -0.02269960      0.03797928     -0.31338978      0.15211252
 
           -0.01952189      0.02491253
            0.03073696      0.01062844
           -0.04113441      0.00497914
            0.22105169     -0.05310708
           -0.71404975      0.18154984
            0.65869106      0.30876966
           -0.06616109      0.93173075
 
--
 
  THE ORIGINAL CI ARRAYS ARE NOW MIXED AS LINEAR
  COMBINATIONS, GIVEN BY THE EIGENVECTORS.
  A NEW JOBIPH FILE NAMED 'JOBMIX' IS PREPARED.
********************************************************************************
 
++ Mixed CI coefficients:
  The CI coefficients for the MIXED state nr.   1
--------------------------------------------------------------------------------
 CI COEFFICIENTS LARGER THAN  0.50D-01
  Occupation of active orbitals, and spin coupling
  of open shells. (u,d: Spin up or down).
  SGUGA info is (Midvert:IsyUp:UpperWalk/LowerWalk)
        Conf  SGUGA info        Occupation    Coefficient         Weight
           1  ( 1:1:   1/   1)   22222200       -0.970041       0.940980
          17  ( 1:1:  17/   1)   22220202        0.099099       0.009821
          64  ( 2:1:   4/   3)   2u22220d        0.079477       0.006317
          81  ( 2:1:   1/   4)   u22222d0        0.102199       0.010445
         141  ( 3:1:   1/   5)   22022220        0.093495       0.008741
         175  ( 3:1:   5/   8)   20222202        0.087138       0.007593
         191  ( 3:1:   1/  10)   02222220        0.078666       0.006188
 
  The CI coefficients for the MIXED state nr.   2
--------------------------------------------------------------------------------
 CI COEFFICIENTS LARGER THAN  0.50D-01
  Occupation of active orbitals, and spin coupling
  of open shells. (u,d: Spin up or down).
  SGUGA info is (Midvert:IsyUp:UpperWalk/LowerWalk)
        Conf  SGUGA info        Occupation    Coefficient         Weight
           2  ( 1:1:   2/   1)   22222ud0        0.912202       0.832112
           3  ( 1:1:   3/   1)   2222u2d0       -0.241563       0.058353
          10  ( 1:1:  10/   1)   2222udud        0.060148       0.003618
          12  ( 1:1:  12/   1)   2222uudd        0.106415       0.011324
          19  ( 1:1:  19/   1)   22220ud2       -0.078681       0.006191
          41  ( 2:1:   1/   2)   22u222d0       -0.082977       0.006885
          42  ( 2:1:   2/   2)   22u22d20       -0.174124       0.030319
          67  ( 2:1:   7/   3)   2u222udd       -0.065736       0.004321
          76  ( 2:1:  16/   3)   2u22dud2        0.063658       0.004052
          82  ( 2:1:   2/   4)   u2222d20        0.135100       0.018252
         176  ( 3:1:   6/   8)   20222ud2       -0.093946       0.008826
 
  The CI coefficients for the MIXED state nr.   3
--------------------------------------------------------------------------------
 CI COEFFICIENTS LARGER THAN  0.50D-01
  Occupation of active orbitals, and spin coupling
  of open shells. (u,d: Spin up or down).
  SGUGA info is (Midvert:IsyUp:UpperWalk/LowerWalk)
        Conf  SGUGA info        Occupation    Coefficient         Weight
           8  ( 1:1:   8/   1)   2222u20d       -0.169043       0.028576
          21  ( 2:1:   1/   1)   222u22d0        0.060627       0.003676
          24  ( 2:1:   4/   1)   222u220d        0.942705       0.888693
          34  ( 2:1:  14/   1)   222ud202       -0.091051       0.008290
         125  ( 3:1:   5/   3)   2u2d2202        0.182933       0.033465
         213  ( 4:1:   1/   3)   u22u22dd        0.072252       0.005220
         249  ( 5:1:   1/   4)   220u222d        0.083514       0.006975
         257  ( 5:1:   1/   6)   u2du222d       -0.050732       0.002574
         269  ( 5:1:   1/   9)   022u222d        0.079649       0.006344
 
  The CI coefficients for the MIXED state nr.   4
--------------------------------------------------------------------------------
 CI COEFFICIENTS LARGER THAN  0.50D-01
  Occupation of active orbitals, and spin coupling
  of open shells. (u,d: Spin up or down).
  SGUGA info is (Midvert:IsyUp:UpperWalk/LowerWalk)
        Conf  SGUGA info        Occupation    Coefficient         Weight
           2  ( 1:1:   2/   1)   22222ud0       -0.067661       0.004578
           7  ( 1:1:   7/   1)   22222u0d        0.050543       0.002555
           8  ( 1:1:   8/   1)   2222u20d        0.779328       0.607353
          17  ( 1:1:  17/   1)   22220202        0.153453       0.023548
          21  ( 2:1:   1/   1)   222u22d0        0.071565       0.005122
          24  ( 2:1:   4/   1)   222u220d        0.145296       0.021111
          41  ( 2:1:   1/   2)   22u222d0       -0.474604       0.225249
          48  ( 2:1:   8/   2)   22u2u2dd        0.059387       0.003527
          74  ( 2:1:  14/   3)   2u22d202        0.198883       0.039554
          88  ( 2:1:   8/   4)   u222u2dd        0.069781       0.004869
         144  ( 3:1:   4/   5)   2202u22d        0.075151       0.005648
         161  ( 3:1:   1/   7)   u2d22220       -0.127444       0.016242
         175  ( 3:1:   5/   8)   20222202       -0.097418       0.009490
         194  ( 3:1:   4/  10)   0222u22d        0.059365       0.003524
 
  The CI coefficients for the MIXED state nr.   5
--------------------------------------------------------------------------------
 CI COEFFICIENTS LARGER THAN  0.50D-01
  Occupation of active orbitals, and spin coupling
  of open shells. (u,d: Spin up or down).
  SGUGA info is (Midvert:IsyUp:UpperWalk/LowerWalk)
        Conf  SGUGA info        Occupation    Coefficient         Weight
           2  ( 1:1:   2/   1)   22222ud0       -0.123952       0.015364
           3  ( 1:1:   3/   1)   2222u2d0       -0.245741       0.060388
           8  ( 1:1:   8/   1)   2222u20d       -0.451455       0.203811
          17  ( 1:1:  17/   1)   22220202       -0.089875       0.008078
          24  ( 2:1:   4/   1)   222u220d       -0.083745       0.007013
          41  ( 2:1:   1/   2)   22u222d0       -0.765905       0.586611
          48  ( 2:1:   8/   2)   22u2u2dd        0.078272       0.006127
          58  ( 2:1:  18/   2)   22u202d2       -0.066474       0.004419
          74  ( 2:1:  14/   3)   2u22d202       -0.115207       0.013273
          81  ( 2:1:   1/   4)   u22222d0       -0.104475       0.010915
         141  ( 3:1:   1/   5)   22022220       -0.066372       0.004405
         161  ( 3:1:   1/   7)   u2d22220       -0.184581       0.034070
         164  ( 3:1:   4/   7)   u2d2u22d        0.051680       0.002671
         175  ( 3:1:   5/   8)   20222202        0.059381       0.003526
         191  ( 3:1:   1/  10)   02222220        0.060451       0.003654
         219  ( 4:1:   1/   4)   2uu222dd        0.056659       0.003210
         294  ( 5:1:   2/  15)   20u222d2        0.077566       0.006016
 
  The CI coefficients for the MIXED state nr.   6
--------------------------------------------------------------------------------
 CI COEFFICIENTS LARGER THAN  0.50D-01
  Occupation of active orbitals, and spin coupling
  of open shells. (u,d: Spin up or down).
  SGUGA info is (Midvert:IsyUp:UpperWalk/LowerWalk)
        Conf  SGUGA info        Occupation    Coefficient         Weight
           2  ( 1:1:   2/   1)   22222ud0       -0.196839       0.038745
           3  ( 1:1:   3/   1)   2222u2d0       -0.868848       0.754897
           8  ( 1:1:   8/   1)   2222u20d        0.070067       0.004909
          21  ( 2:1:   1/   1)   222u22d0        0.186408       0.034748
          28  ( 2:1:   8/   1)   222uu2dd        0.052998       0.002809
          41  ( 2:1:   1/   2)   22u222d0        0.255029       0.065040
          43  ( 2:1:   3/   2)   22u2d220       -0.060265       0.003632
          66  ( 2:1:   6/   3)   2u22d2ud       -0.142461       0.020295
          68  ( 2:1:   8/   3)   2u22u2dd        0.196403       0.038574
         161  ( 3:1:   1/   7)   u2d22220        0.062025       0.003847
         177  ( 3:1:   7/   8)   2022u2d2        0.126584       0.016023
 
  The CI coefficients for the MIXED state nr.   7
--------------------------------------------------------------------------------
 CI COEFFICIENTS LARGER THAN  0.50D-01
  Occupation of active orbitals, and spin coupling
  of open shells. (u,d: Spin up or down).
  SGUGA info is (Midvert:IsyUp:UpperWalk/LowerWalk)
        Conf  SGUGA info        Occupation    Coefficient         Weight
           2  ( 1:1:   2/   1)   22222ud0        0.062706       0.003932
           3  ( 1:1:   3/   1)   2222u2d0        0.170459       0.029056
           8  ( 1:1:   8/   1)   2222u20d       -0.076131       0.005796
          21  ( 2:1:   1/   1)   222u22d0        0.867919       0.753284
          24  ( 2:1:   4/   1)   222u220d       -0.071400       0.005098
          25  ( 2:1:   5/   1)   222u2dud        0.076896       0.005913
          26  ( 2:1:   6/   1)   222ud2ud       -0.226596       0.051346
          27  ( 2:1:   7/   1)   222u2udd       -0.080977       0.006557
          28  ( 2:1:   8/   1)   222uu2dd        0.315678       0.099653
         211  ( 4:1:   5/   2)   2u2ud2d2       -0.076312       0.005824
         262  ( 5:1:   2/   7)   202u22d2       -0.079395       0.006304
 
--
 
--- Stop Module: caspt2 at Tue Jun 10 17:51:38 2025 /rc=_RC_ALL_IS_WELL_ ---
*** files: xmldump
    saved to directory /home/pcaah4/diamide_project
--- Module caspt2 spent 6 minutes 53 seconds ---

.##################.
.# Happy landing! #.
.##################.

    Timing: Wall=685.09 User=597.54 System=78.14
******************************************************
*** WorkDir at /srv/COMMUNAL_SCRATCH/12389 cleaned ***
******************************************************
