   This run of MOLCAS is using the pymolcas driver

                             OPE
                             OPE          NMOL  CASOP  ENMOLC A   SO
                 OPE        NMOLC        AS  OP EN  MO LC     AS  OP
                OPENM       OL CA        SO  PE NM  OL CA     SOP EN
                OP EN      MO   LC       AS  OP ENMOL  CASO   PENMOL
                OP  EN     MO   LC       AS  OP EN     MO     LC ASO
               OP   E  NMOL  C  AS       OP  EN MO     LC     AS  OP
               OP  E   NMO   LC AS        OPEN  MO     LCASOP EN   M
               O  PEN   MO  LCA  SO
            OPE   NMO   L   CAS    OP
        OPENMOL  CASOP     ENMOL   CASOPE
     OPENMOLCA   SOPENMOLCASOPEN   MOLCASOPE
    OPENMOLCAS   OP           EN   MOL    CAS
    OPENMOLCAS       OP  ENM        O     LCA
    OPENMOLCAS    OPEN  MOLCASO     P  E  NMO
    OPENMOLCAS     OP               E  N  MOL
    OPENMOLCA   SO           PENM   O  L  CAS    OPEN    MO    LCAS
    OPENMOLCA   SOP           ENM   O  L  CAS   OP  EN  MOLC  AS   O
    OPENMOLCA   SOPE           NM      O  LCA   S      OP  EN MO
    OPENMOLC                AS         O  PEN   M      OL  CA  SOPE
    OPENMO        LCASOPE  NMOL        C  ASO   P      ENMOLC     AS
    OPE     NMO      LCA  SO     P     E   NM   OL  CA SO  PE N   MO
          OPENMOLCA            SOPE   NMO        LCAS  O    P  ENMO
     OPENMOLCASOPENMOLCASOPENMOLCASOPENMOLCA
        OPENMOLCASOPENMOLCASOPENMOLCASOPE
            OPENMOLCASOPENMOLCASOPENM
               OPENMOLCASOPENMOLCA        version: v23.06
                   OPENMOLCASO
                       OPE                tag:

 OpenMolcas is free software; you can redistribute it and/or modify it
 under the terms of the GNU Lesser General Public License version 2.1.
 OpenMolcas is distributed in the hope that it will be useful, but it
 is provided "as is" and without any express or implied warranties.
 For more details see the full text of the license in the file
 LICENSE or in <http://www.gnu.org/licenses/>.

                 Copyright (C) The OpenMolcas Authors
           For the author list and the recommended citation,
                   consult the file CONTRIBUTORS.md

           *************************************************
           * pymolcas version py2.24                       *
           *   build 4567b286dd94b1984b333a4ddf893180      *
           *   (after the EMIL interpreter by V. Veryazov) *
           *************************************************

configuration info
------------------
Host name: loginchem01.nottingham.ac.uk (Linux)
C Compiler ID: Intel
C flags: -std=gnu99 -gcc-sys -qopenmp
Fortran Compiler ID: Intel
Fortran flags: -fpp -i8 -heap-arrays -qopenmp
Definitions: _MOLCAS_;_I8_;_LINUX_
Parallel: OFF (GA=OFF)


   -------------------------------------------------------------------------------------------------
  |
  |              Project: orca_geometry_optimisation_75_0_BP86_def2-SVP_def2J_scf_cas1_ras12i11_cas8
  |       Submitted from: /home/pcaah4/diamide_project
  |         Scratch area: /srv/COMMUNAL_SCRATCH/12508
  |      Save outputs to: /home/pcaah4/diamide_project
  |               Molcas: /software/chemistry/openmolcas/openmolcas-23.06-openmp
  |
  | Scratch area is empty
  |
  |       MOLCAS_DRIVER = /software/chemistry/openmolcas/openmolcas-23.06-openmp/sbin/pymolcas
  | MOLCAS_KEEP_WORKDIR = NO
  |       MOLCAS_NPROCS = 1
  |       MOLCAS_SOURCE = /software/chemistry/openmolcas/openmolcas-23.06-openmp
  |    MOLCAS_STRUCTURE = 0
  |
   -------------------------------------------------------------------------------------------------

++ ---------   Input file   ---------

&SEWARD
TITLE
orca_geometry_optimisation_75_0_BP86_def2-SVP_def2J_scf_cas1_ras12i11
MULTIPOLES
2
SDIPOLE
ANGMOM
0 0 0
BASIS SET
C.ANO-S...4S3P1D.
C1           -0.107818   -0.095277   -0.068297 /Angstrom
C3            2.046304    1.127329    0.131010 /Angstrom
C4            2.086226    1.828146    1.508453 /Angstrom
C6            1.250441    1.820203    3.829721 /Angstrom
C19          -0.752925   -1.464365   -0.266121 /Angstrom
END OF BASIS
BASIS SET
N.ANO-S...4S3P1D.
N2            1.273402   -0.096541   -0.007354 /Angstrom
N5            1.376897    1.230773    2.511558 /Angstrom
END OF BASIS
BASIS SET
O.ANO-S...4S3P1D.
O7           -0.761422    0.942039    0.004258 /Angstrom
O8            2.746708    2.856783    1.639585 /Angstrom
END OF BASIS
BASIS SET
H.ANO-S...2S1P.
H9           -1.166589   -1.515649   -1.294065 /Angstrom
H10          -1.609619   -1.558475    0.428777 /Angstrom
H11          -0.064810   -2.320384   -0.119536 /Angstrom
H12           1.770928   -0.986821   -0.049477 /Angstrom
H13           3.096229    0.934294   -0.164109 /Angstrom
H14           1.647907    1.892772   -0.567996 /Angstrom
H15           0.812153    0.416130    2.269397 /Angstrom
H16           1.901642    2.715150    3.850430 /Angstrom
H17           0.205802    2.135156    4.040863 /Angstrom
H18           1.575344    1.117232    4.626084 /Angstrom
END OF BASIS
END OF INPUT

&RASSCF
TITLE
orca_geometry_optimisation_75_0_BP86_def2-SVP_def2J_scf_cas1_ras12i11
LUMORB
SPIN
1
SYMMETRY
1
NACTEL
12  0  0
INACTIVE
29
DELETED  ! delete Rydberg orbitals from an initial CAS(12,11) if done
3
FROZEN
0
RAS2
8
ITERATIONS
64 25
CIROOT
7 7
1 2 3 4 5 6 7
1 1 1 1 1 1 1
LEVSHFT
0.3
CIMX
20
FILEorb = /home/pcaah4/diamide_project/cas/ras12i11/ras_orb/orca_geometry_optimisation_75_0_BP86_def2-SVP_def2J_scf_cas1_ras12i11.RasOrb
ALTEr
0
END OF INPUT

&RASSI
NROF JOBIPH
    1 7
    1 2 3 5 4 6 7
TOFILE
TRDI
TDMN
1.0D-6
END OF INPUT

&CASPT2
TITLE
orca_geometry_optimisation_75_0_BP86_def2-SVP_def2J_scf_cas1_ras12i11
MULTISTATE
7 1 2 3 4 5 6 7
SHIFT
0.35
MAXITER
50
END OF INPUT

-- ----------------------------------

--- Start Module: seward at Tue Jun 10 22:38:26 2025 ---
 
()()()()()()()()()()()()()()()()()()()()()()()()()()()()()()()()()()()()()()()()()()()()()()()()()()

                                              &SEWARD

                                   only a single process is used
                       available to each process: 2.0 GB of memory, 1 thread
                                            pid: 3143946
()()()()()()()()()()()()()()()()()()()()()()()()()()()()()()()()()()()()()()()()()()()()()()()()()()
 
               SEWARD will generate:
                  Multipole Moment integrals up to order  2
                  Kinetic Energy integrals
                  Nuclear Attraction integrals (point charge)
                  One-Electron Hamiltonian integrals
                  Velocity integrals
                  Orbital angular momentum around ( 0.0000  0.0000  0.0000 )
                  Velocity quadrupole around ( 1.9085  1.7156  1.9773 )
                  Two-Electron Repulsion integrals
 
 Title:
             orca_geometry_optimisation_75_0_BP86_def2-SVP_def2J_scf_cas1_ras12i11      
 
 
                   Integrals are discarded if absolute value <: 0.10E-13
                   Integral cutoff threshold is set to       <: 0.10E-15
 
++    Symmetry information:
      ---------------------
 
                    Character Table for C1 
 
                             E  
                    a        1  x, y, xy, Rz, z, xz, Ry, yz, Rx, I
--
 
 
++    Basis set information:
      ----------------------
 
 
      Basis set label: C.ANO-S...4S3P1D......
 
      Electronic valence basis set:
      ------------------
      Associated Effective Charge   6.000000 au
      Associated Actual Charge      6.000000 au
      Nuclear Model: Point charge
 
      Shell  nPrim  nBasis  Cartesian Spherical Contaminant
         s      10       4        X                  
         p       6       3        X                  
         d       3       1                 X         
 
 
      Basis set label: N.ANO-S...4S3P1D......
 
      Electronic valence basis set:
      ------------------
      Associated Effective Charge   7.000000 au
      Associated Actual Charge      7.000000 au
      Nuclear Model: Point charge
 
      Shell  nPrim  nBasis  Cartesian Spherical Contaminant
         s      10       4        X                  
         p       6       3        X                  
         d       3       1                 X         
 
 
      Basis set label: O.ANO-S...4S3P1D......
 
      Electronic valence basis set:
      ------------------
      Associated Effective Charge   8.000000 au
      Associated Actual Charge      8.000000 au
      Nuclear Model: Point charge
 
      Shell  nPrim  nBasis  Cartesian Spherical Contaminant
         s      10       4        X                  
         p       6       3        X                  
         d       3       1                 X         
 
 
      Basis set label: H.ANO-S...2S1P......
 
      Electronic valence basis set:
      ------------------
      Associated Effective Charge   1.000000 au
      Associated Actual Charge      1.000000 au
      Nuclear Model: Point charge
 
      Shell  nPrim  nBasis  Cartesian Spherical Contaminant
         s       7       2        X                  
         p       3       1        X                  
--
 
 
++    Molecular structure info:
      -------------------------
 
                    ************************************************ 
                    **** Cartesian Coordinates / Bohr, Angstrom **** 
                    ************************************************ 
 
     Center  Label                x              y              z                     x              y              z
        1      C1              -0.203746      -0.180047      -0.129063             -0.107818      -0.095277      -0.068297
        2      C3               3.866954       2.130343       0.247573              2.046304       1.127329       0.131010
        3      C4               3.942396       3.454695       2.850563              2.086226       1.828146       1.508453
        4      C6               2.362991       3.439685       7.237124              1.250441       1.820203       3.829721
        5      C19             -1.422822      -2.767249      -0.502896             -0.752925      -1.464365      -0.266121
        6      N2               2.406381      -0.182436      -0.013897              1.273402      -0.096541      -0.007354
        7      N5               2.601958       2.325824       4.746157              1.376897       1.230773       2.511558
        8      O7              -1.438879       1.780196       0.008046             -0.761422       0.942039       0.004258
        9      O8               5.190526       5.398537       3.098367              2.746708       2.856783       1.639585
       10      H9              -2.204534      -2.864162      -2.445428             -1.166589      -1.515649      -1.294065
       11      H10             -3.041739      -2.945091       0.810271             -1.609619      -1.558475       0.428777
       12      H11             -0.122473      -4.384890      -0.225890             -0.064810      -2.320384      -0.119536
       13      H12              3.346569      -1.864821      -0.093498              1.770928      -0.986821      -0.049477
       14      H13              5.851025       1.765560      -0.310121              3.096229       0.934294      -0.164109
       15      H14              3.114093       3.576821      -1.073357              1.647907       1.892772      -0.567996
       16      H15              1.534747       0.786372       4.288539              0.812153       0.416130       2.269397
       17      H16              3.593583       5.130890       7.276258              1.901642       2.715150       3.850430
       18      H17              0.388909       4.034860       7.636124              0.205802       2.135156       4.040863
       19      H18              2.976969       2.111262       8.742032              1.575344       1.117232       4.626084
 
                    ************************************************* 
                    **** InterNuclear Distances / Bohr, Angstrom **** 
                    ************************************************* 
 
     Atom centers         Bohr        Angstrom
   16 H15       7 N5      1.928281        1.020402
   13 H12       6 N2      1.928914        1.020737
   17 H16       4 C6      2.091904        1.106988
   11 H10       5 C19     2.092111        1.107097
   14 H13       2 C3      2.092995        1.107565
   12 H11       5 C19     2.093897        1.108042
   10 H9        5 C19     2.096163        1.109242
   15 H14       2 C3      2.098560        1.110510
   19 H18       4 C6      2.099148        1.110821
   18 H17       4 C6      2.100103        1.111327
    8 O7        1 C1      2.320971        1.228205
    9 O8        3 C4      2.323308        1.229441
    7 N5        3 C4      2.581550        1.366097
    6 N2        1 C1      2.612668        1.382564
    7 N5        4 C6      2.739107        1.449473
    6 N2        2 C3      2.747833        1.454091
    5 C19       1 C1      2.884356        1.526335
    3 C4        2 C3      2.921499        1.545991
   11 H10      10 H9      3.362595        1.779408
   15 H14      14 H13     3.369568        1.783099
   12 H11      10 H9      3.402050        1.800287
   18 H17      17 H16     3.405982        1.802368
   19 H18      18 H17     3.409004        1.803967
   19 H18      17 H16     3.412749        1.805949
   12 H11      11 H10     3.415958        1.807647
   16 H15       3 C4      3.870982        2.048435
   17 H16       7 N5      3.905525        2.066715
   13 H12       1 C1      3.929945        2.079637
   14 H13       6 N2      3.968376        2.099974
   15 H14       6 N2      3.969297        2.100462
   15 H14       3 C4      4.012250        2.123191
   19 H18       7 N5      4.019165        2.126850
   18 H17       7 N5      4.021231        2.127944
   13 H12       2 C3      4.043324        2.139635
   16 H15       4 C6      4.052186        2.144325
   14 H13       3 C4      4.060292        2.148614
   10 H9        1 C1      4.071016        2.154289
   11 H10       1 C1      4.072102        2.154864
   12 H11       1 C1      4.206743        2.226112
   13 H12      12 H11     4.289817        2.270073
    8 O7        6 N2      4.317225        2.284577
    9 O8        7 N5      4.342518        2.297962
   14 H13      13 H12     4.415755        2.336717
   17 H16       9 O8      4.480696        2.371082
   16 H15       6 N2      4.495474        2.378903
    9 O8        2 C3      4.534309        2.399453
    8 O7        5 C19     4.576087        2.421561
    6 N2        5 C19     4.645769        2.458435
    4 C6        3 C4      4.662259        2.467161
    7 N5        2 C3      4.677145        2.475038
    2 C3        1 C1      4.695781        2.484900
   17 H16       3 C4      4.745322        2.511116
   18 H17      16 H15     4.803327        2.541811
   16 H15       1 C1      4.844742        2.563727
   16 H15       2 C3      4.855394        2.569364
   19 H18      16 H15     4.865073        2.574486
   13 H12       5 C19     4.871250        2.577754
    6 N2        3 C4      4.877827        2.581235
   12 H11       6 N2      4.909243        2.597859
   15 H14       9 O8      5.003349        2.647658
   15 H14       8 O7      5.012669        2.652590
   14 H13       9 O8      5.025194        2.659218
   11 H10       8 O7      5.053816        2.674364
   15 H14       1 C1      5.100373        2.699001
   16 H15       8 O7      5.305917        2.807770
   10 H9        8 O7      5.308090        2.808920
    8 O7        2 C3      5.322766        2.816687
    9 O8        4 C6      5.381577        2.847808
    7 N5        6 N2      5.384026        2.849104
   16 H15      13 H12     5.432658        2.874839
   15 H14      13 H12     5.534044        2.928490
   17 H16      16 H15     5.660398        2.995354
--
 
 
            Nuclear Potential Energy            460.25609041 au
 
 
      Basis set specifications :
      Symmetry species         a  
      Basis functions          212
 
 
      Input file to MOLDEN was generated!
 
--- Stop Module: seward at Tue Jun 10 22:40:17 2025 /rc=_RC_ALL_IS_WELL_ ---
*** files: orca_geometry_optimisation_75_0_BP86_def2-SVP_def2J_scf_cas1_ras12i11_cas8.GssOrb
           orca_geometry_optimisation_75_0_BP86_def2-SVP_def2J_scf_cas1_ras12i11_cas8.guessorb.molden xmldump
    saved to directory /home/pcaah4/diamide_project
--- Module seward spent 1 minute 50 seconds ---

*** symbolic link created: INPORB -> orca_geometry_optimisation_75_0_BP86_def2-SVP_def2J_scf_cas1_ras12i11_cas8.GssOrb
--- Start Module: rasscf at Tue Jun 10 22:40:17 2025 ---
 
()()()()()()()()()()()()()()()()()()()()()()()()()()()()()()()()()()()()()()()()()()()()()()()()()()

                                              &RASSCF

                                   only a single process is used
                       available to each process: 2.0 GB of memory, 1 thread
                                            pid: 3143986
()()()()()()()()()()()()()()()()()()()()()()()()()()()()()()()()()()()()()()()()()()()()()()()()()()
 
 
      Header of the ONEINT file:
      --------------------------
      orca_geometry_optimisation_75_0_BP86_def2-SVP_def2J_scf_cas1_ras12i11
      Integrals generated by Gateway/Seward, Tue Jun 10 22:38:27 2025
 
 
      OrdInt status: non-squared
 
 
      Cartesian coordinates in Angstrom:
      -----------------------------------------------------
      No.  Label        X            Y            Z        
      -----------------------------------------------------
       1   C1        -0.10781800  -0.09527700  -0.06829700
       2   C3         2.04630400   1.12732900   0.13101000
       3   C4         2.08622600   1.82814600   1.50845300
       4   C6         1.25044100   1.82020300   3.82972100
       5   C19       -0.75292500  -1.46436500  -0.26612100
       6   N2         1.27340200  -0.09654100  -0.00735400
       7   N5         1.37689700   1.23077300   2.51155800
       8   O7        -0.76142200   0.94203900   0.00425800
       9   O8         2.74670800   2.85678300   1.63958500
      10   H9        -1.16658900  -1.51564900  -1.29406500
      11   H10       -1.60961900  -1.55847500   0.42877700
      12   H11       -0.06481000  -2.32038400  -0.11953600
      13   H12        1.77092800  -0.98682100  -0.04947700
      14   H13        3.09622900   0.93429400  -0.16410900
      15   H14        1.64790700   1.89277200  -0.56799600
      16   H15        0.81215300   0.41613000   2.26939700
      17   H16        1.90164200   2.71515000   3.85043000
      18   H17        0.20580200   2.13515600   4.04086300
      19   H18        1.57534400   1.11723200   4.62608400
      -----------------------------------------------------
      Nuclear repulsion energy =  460.25609041
 
++    Wave function specifications:
      -----------------------------
 
      Number of closed shell electrons          58
      Number of electrons in active shells      12
      Max number of holes in RAS1 space          0
      Max nr of electrons in RAS3 space          0
      Number of inactive orbitals               29
      Number of active orbitals                  8
      Number of secondary orbitals             172
      Spin quantum number                      0.0
      State symmetry                             1
--
 
++    Orbital specifications:
      -----------------------
 
      Symmetry species                           1
                                                 a
      Frozen orbitals                            0
      Inactive orbitals                         29
      Active orbitals                            8
      RAS1 orbitals                              0
      RAS2 orbitals                              8
      RAS3 orbitals                              0
      Secondary orbitals                       172
      Deleted orbitals                           3
      Number of basis functions                212
--
 
++    CI expansion specifications:
      ----------------------------
 
      Number of CSFs                           336
      Number of determinants                   406
      Number of root(s) required                 7
      Root chosen for geometry opt.              7
      CI roots used                              1     2     3     4     5     6     7
      weights                                0.143 0.143 0.143 0.143 0.143 0.143 0.143
      highest root included in the CI            7
      max. size of the explicit Hamiltonian    200
--
 
++    Optimization specifications:
      ----------------------------
 
      RASSCF algorithm: Conventional
      Maximum number of macro iterations        64
      Maximum number of SX iterations           25
      Threshold for RASSCF energy            0.100E-07
      Threshold for max MO rotation          0.100E+00
      Threshold for max BLB element          0.100E-03
      Level shift parameter                  0.300E+00
      Make Quasi-Newton update
--
 
      The MO-coefficients are taken from the file:
      /home/pcaah4/diamide_project/cas/ras12i11/ras_orb/orca_geometry_optimisation_75_0_BP86_def2-SVP_def2J_scf_cas1_ras12i11.RasOrb                                                                                                                                  
      Title: RASSCF average (pseudo-natural) orbitals                                      
 
      Total molecular charge    0.00
 
      ************************************************************************************************************************
      *                                                                                                                      *
      *                                            Wave function control section                                             *
      *                                                                                                                      *
      ************************************************************************************************************************
 
 
                                         RASSCF iterations: Energy and convergence statistics
                                         ----------------------------------------------------
 
      Iter CI   SX   CI       RASSCF       Energy    max ROT     max BLB   max BLB  Level Ln srch  Step   QN   Walltime
          iter iter root      energy       change     param      element    value   shift minimum  type update hh:mm:ss
 Nr of preliminary CI iterations:   5
        1   1   13    0  -453.69200504    0.00E+00   0.50E-01   35 144 1 -0.12E-01*  0.16   0.00    SX    NO    0:00:13
        2   6   25    0  -453.69789404   -0.59E-02* -0.39E-01   33  39 1  0.15E-01*  0.20   0.00    SX    NO    0:00:07
        3   5   13    0  -453.70109266   -0.32E-02*  0.24E-01   33  39 1  0.76E-02*  0.20   0.00    SX    NO    0:00:07
        4   5   12    0  -453.70339959   -0.23E-02*  0.12E-01   36  40 1  0.28E-02*  0.20   0.00    SX    NO    0:00:06
        5   4   11    0  -453.70390567   -0.51E-03* -0.14E-01   33  39 1 -0.16E-02*  0.20   1.44    QN   YES    0:00:06
        6   7   10    0  -453.70409594   -0.19E-03* -0.14E-02   33  39 1 -0.88E-03*  0.20   0.97    QN   YES    0:00:06
        7   4    9    0  -453.70410896   -0.13E-04*  0.17E-02   22  98 1 -0.32E-03*  0.20   1.32    QN   YES    0:00:06
        8   5    9    0  -453.70411344   -0.45E-05* -0.73E-03   30  55 1 -0.15E-03*  0.20   0.96    QN   YES    0:00:06
        9   3    9    0  -453.70411444   -0.10E-05* -0.93E-03   37  41 1 -0.78E-04   0.20   1.36    QN   YES    0:00:06
       10   5    8    0  -453.70411481   -0.37E-06* -0.61E-03   37  41 1 -0.46E-04   0.20   1.31    QN   YES    0:00:06
       11   3    8    0  -453.70411494   -0.13E-06*  0.48E-03   37  41 1 -0.27E-04   0.20   1.49    QN   YES    0:00:06
       12   3    7    0  -453.70411499   -0.51E-07*  0.23E-03   37  41 1 -0.12E-04   0.20   1.29    QN   YES    0:00:06
       13   1    6    0  -453.70411500   -0.14E-07* -0.91E-04   37  43 1 -0.58E-05   0.20   1.33    QN   YES    0:00:06
       14   1    6    0  -453.70411501   -0.42E-08  -0.37E-04   37  43 1 -0.35E-05   0.20   1.42    QN   YES    0:00:06
      Convergence after 14 iterations
       15   1    6    0  -453.70411501   -0.12E-08  -0.37E-04   30  55 1 -0.15E-05   0.20   1.42    QN   YES    0:00:06
 
      ************************************************************************************************************************
                                                      Wave function printout:
                       occupation of active orbitals, and spin coupling of open shells (u,d: Spin up or down)
      ************************************************************************************************************************
 
      Note: transformation to natural orbitals
      has been made, which may change the order of the CSFs.
 
      printout of CI-coefficients larger than  0.05 for root  1
      energy=    -453.956274
      conf/sym  11111111     Coeff  Weight
             1  22222200   0.96164 0.92474
             2  22222ud0  -0.11984 0.01436
             4  22222020  -0.09214 0.00849
            61  2u2222d0  -0.08899 0.00792
            62  2u222d20  -0.06239 0.00389
            84  u222220d   0.10904 0.01189
           145  22022202  -0.08553 0.00731
           165  u2d22202   0.05577 0.00311
           171  20222220  -0.09130 0.00834
           195  02222202  -0.07833 0.00614
 
      printout of CI-coefficients larger than  0.05 for root  2
      energy=    -453.740899
      conf/sym  11111111     Coeff  Weight
             3  2222u2d0  -0.95999 0.92159
             5  2222ud20  -0.12381 0.01533
            63  2u22d220  -0.15934 0.02539
            86  u222d2ud  -0.05840 0.00341
            88  u222u2dd  -0.09614 0.00924
           147  2202u2d2   0.08638 0.00746
           167  u2d2u2d2  -0.05521 0.00305
           197  0222u2d2   0.07865 0.00619
 
      printout of CI-coefficients larger than  0.05 for root  3
      energy=    -453.738387
      conf/sym  11111111     Coeff  Weight
            24  222u220d   0.95110 0.90459
            25  222u2dud  -0.05712 0.00326
            27  222u2udd  -0.10133 0.01027
            29  222u202d  -0.09121 0.00832
           115  22ud2202   0.17603 0.03098
           135  u22d2202  -0.12735 0.01622
           207  2u2u22dd   0.07674 0.00589
           208  2u2u2d2d   0.05283 0.00279
           261  202u222d   0.09007 0.00811
 
      printout of CI-coefficients larger than  0.05 for root  4
      energy=    -453.648888
      conf/sym  11111111     Coeff  Weight
             2  22222ud0  -0.12839 0.01648
             7  22222u0d   0.29961 0.08977
             8  2222u20d  -0.51819 0.26852
            10  2222udud  -0.06456 0.00417
            12  2222uudd  -0.08807 0.00776
            44  22u2220d  -0.72015 0.51862
            45  22u22dud   0.05075 0.00258
            47  22u22udd   0.09006 0.00811
            49  22u2202d   0.07712 0.00595
            84  u222220d  -0.07713 0.00595
           165  u2d22202   0.17409 0.03031
           195  02222202  -0.05473 0.00299
           219  2uu222dd  -0.07085 0.00502
           293  20u2222d  -0.06740 0.00454
 
      printout of CI-coefficients larger than  0.05 for root  5
      energy=    -453.623958
      conf/sym  11111111     Coeff  Weight
             2  22222ud0   0.29299 0.08584
             4  22222020  -0.05222 0.00273
             7  22222u0d   0.86256 0.74401
             8  2222u20d   0.24536 0.06020
            12  2222uudd   0.06202 0.00385
            44  22u2220d   0.11599 0.01345
            62  2u222d20   0.08024 0.00644
            65  2u222dud   0.15146 0.02294
            67  2u222udd   0.15603 0.02435
           173  20222u2d   0.11697 0.01368
 
      printout of CI-coefficients larger than  0.05 for root  6
      energy=    -453.621764
      conf/sym  11111111     Coeff  Weight
             1  22222200  -0.10584 0.01120
             2  22222ud0  -0.85098 0.72417
             4  22222020   0.12974 0.01683
             7  22222u0d   0.26729 0.07144
            44  22u2220d   0.25659 0.06584
            62  2u222d20  -0.23672 0.05604
            65  2u222dud   0.05610 0.00315
            67  2u222udd   0.05689 0.00324
            85  u2222dud  -0.05644 0.00319
            87  u2222udd  -0.08697 0.00756
           146  22022ud2   0.07902 0.00624
           165  u2d22202  -0.06452 0.00416
           171  20222220  -0.07731 0.00598
           196  02222ud2   0.06607 0.00437
 
      printout of CI-coefficients larger than  0.05 for root  7
      energy=    -453.598635
      conf/sym  11111111     Coeff  Weight
             1  22222200  -0.05665 0.00321
             2  22222ud0  -0.15672 0.02456
             4  22222020   0.05009 0.00251
             7  22222u0d  -0.08805 0.00775
             8  2222u20d   0.74165 0.55005
            10  2222udud   0.15704 0.02466
            12  2222uudd   0.22897 0.05243
            44  22u2220d  -0.53249 0.28355
            71  2u22ud2d  -0.05927 0.00351
           165  u2d22202   0.12149 0.01476
           174  2022u22d   0.06534 0.00427
           293  20u2222d  -0.05054 0.00255
 
      Natural orbitals and occupation numbers for root  1
      sym 1:   1.966808   1.955707   1.995323   1.999865   1.999782   1.995072   0.049394   0.038049
 
      Natural orbitals and occupation numbers for root  2
      sym 1:   1.966370   1.999540   1.994815   1.999765   1.004453   1.999884   0.996605   0.038568
 
      Natural orbitals and occupation numbers for root  3
      sym 1:   1.999836   1.994969   1.999950   1.005918   1.999620   1.956129   0.049127   0.994449
 
      Natural orbitals and occupation numbers for root  4
      sym 1:   1.989277   1.975361   1.114679   1.999514   1.957685   1.934926   0.092277   0.936280
 
      Natural orbitals and occupation numbers for root  5
      sym 1:   1.998968   1.915459   1.996125   1.999563   1.987002   1.015885   0.097957   0.989041
 
      Natural orbitals and occupation numbers for root  6
      sym 1:   1.978875   1.963940   1.916524   1.999624   1.999069   1.080544   0.947482   0.113942
 
      Natural orbitals and occupation numbers for root  7
      sym 1:   1.994693   1.973530   1.939228   1.999352   1.150121   1.907803   0.119536   0.915736
 
      ************************************************************************************************************************
      *                                                                                                                      *
      *                                                    Final results                                                     *
      *                                                                                                                      *
      ************************************************************************************************************************
 
 
++    Wave function specifications:
      -----------------------------
 
      Number of closed shell electrons          58
      Number of electrons in active shells      12
      Max number of holes in RAS1 space          0
      Max nr of electrons in RAS3 space          0
      Number of inactive orbitals               29
      Number of active orbitals                  8
      Number of secondary orbitals             172
      Spin quantum number                      0.0
      State symmetry                             1
--
 
++    Orbital specifications:
      -----------------------
 
      Symmetry species                           1
                                                 a
      Frozen orbitals                            0
      Inactive orbitals                         29
      Active orbitals                            8
      RAS1 orbitals                              0
      RAS2 orbitals                              8
      RAS3 orbitals                              0
      Secondary orbitals                       172
      Deleted orbitals                           3
      Number of basis functions                212
--
 
++    CI expansion specifications:
      ----------------------------
 
      Number of CSFs                           336
      Number of determinants                   406
      Number of root(s) required                 7
      CI roots used                              1     2     3     4     5     6     7
      weights                                0.143 0.143 0.143 0.143 0.143 0.143 0.143
      highest root included in the CI            7
      Root passed to geometry opt.               7
--
 
++    Final optimization conditions:
      ------------------------------
 
      Average CI energy                            -453.70411501
      RASSCF energy for state  7                   -453.59863457
      Super-CI energy                                -0.00000000
      RASSCF energy change                            0.00000000
      Max change in MO coefficients              -0.477E-04
      Max non-diagonal density matrix element    -0.371E-04
      Maximum BLB matrix element                 -0.151E-05
      (orbital pair  30,  55 in symmetry   1)
      Norm of electronic gradient            0.288E+00
--
 
 
      Final state energy(ies):
      ------------------------
 
::    RASSCF root number  1 Total energy:   -453.95627428
::    RASSCF root number  2 Total energy:   -453.74089909
::    RASSCF root number  3 Total energy:   -453.73838701
::    RASSCF root number  4 Total energy:   -453.64888810
::    RASSCF root number  5 Total energy:   -453.62395843
::    RASSCF root number  6 Total energy:   -453.62176358
::    RASSCF root number  7 Total energy:   -453.59863457
 
++    Molecular orbitals:
      -------------------
 
      Pseudonatural active orbitals and approximate occupation numbers
 
 
 
 
      Molecular orbitals for symmetry species 1: a  
 
 
      Orbital                 1         2         3         4         5         6         7         8         9        10
      Energy           -20.6024  -20.5107  -15.6394  -15.5955  -11.3419  -11.2945  -11.2934  -11.2790  -11.2262   -1.4276
      Occ. No.           2.0000    2.0000    2.0000    2.0000    2.0000    2.0000    2.0000    2.0000    2.0000    2.0000
 
     1 C1     1s        -0.0001    0.0003   -0.0001    0.0002   -0.0000   -0.0008    0.0000    1.0000    0.0057    0.0004
     2 C1     2s        -0.0003    0.0007   -0.0006    0.0010   -0.0001   -0.0008    0.0001    0.0024    0.0000    0.0267
     3 C1     3s        -0.0002   -0.0006   -0.0005    0.0004   -0.0001   -0.0006    0.0000    0.0001    0.0003    0.0119
     4 C1     4s        -0.0000   -0.0004   -0.0001    0.0001   -0.0000   -0.0002    0.0000    0.0015    0.0001    0.0035
     5 C1     2px       -0.0002   -0.0010   -0.0001    0.0016   -0.0001   -0.0001   -0.0002    0.0018    0.0002    0.0125
     6 C1     3px       -0.0003   -0.0005   -0.0001    0.0012   -0.0002   -0.0004   -0.0002    0.0017   -0.0003    0.0126
     7 C1     4px       -0.0000    0.0002    0.0000   -0.0000   -0.0001   -0.0002   -0.0000    0.0006   -0.0003    0.0019
     8 C1     2py        0.0001    0.0032    0.0001    0.0000   -0.0003    0.0001   -0.0003    0.0008    0.0006    0.0164
     9 C1     3py        0.0001    0.0023   -0.0000   -0.0000   -0.0003   -0.0003   -0.0004    0.0010   -0.0002    0.0171
    10 C1     4py        0.0000   -0.0003   -0.0000   -0.0000   -0.0001   -0.0003   -0.0001    0.0007   -0.0003    0.0041
    11 C1     2pz       -0.0001    0.0003   -0.0001    0.0002    0.0000    0.0001   -0.0000    0.0003   -0.0001    0.0024
    12 C1     3pz       -0.0001    0.0003   -0.0001    0.0002    0.0001    0.0001   -0.0000    0.0007   -0.0003    0.0016
    13 C1     4pz       -0.0000    0.0000   -0.0000    0.0000    0.0000    0.0000   -0.0000    0.0002   -0.0001    0.0004
    14 C1     3d2-      -0.0000    0.0001   -0.0000    0.0001   -0.0000    0.0000   -0.0000   -0.0003   -0.0001   -0.0001
    15 C1     3d1-       0.0000    0.0000   -0.0000    0.0000   -0.0000    0.0000    0.0000    0.0000    0.0000    0.0002
    16 C1     3d0        0.0000   -0.0000    0.0000    0.0001   -0.0000   -0.0001    0.0000   -0.0003   -0.0001   -0.0013
    17 C1     3d1+      -0.0000    0.0000   -0.0000   -0.0000   -0.0000    0.0000   -0.0000    0.0000   -0.0000    0.0004
    18 C1     3d2+       0.0000    0.0001   -0.0000   -0.0002    0.0000    0.0000   -0.0000   -0.0000    0.0001    0.0003
    19 C3     1s         0.0002    0.0002    0.0000    0.0005    0.0058    0.9995   -0.0013    0.0007   -0.0000   -0.0131
    20 C3     2s         0.0010    0.0014    0.0000    0.0025    0.0001   -0.0014    0.0004    0.0001   -0.0003    0.0044
    21 C3     3s         0.0006    0.0009    0.0001    0.0012   -0.0001   -0.0026    0.0002   -0.0000   -0.0002   -0.0381
    22 C3     4s         0.0001    0.0002   -0.0000    0.0001    0.0000    0.0007   -0.0000   -0.0001   -0.0000   -0.0050
    23 C3     2px       -0.0002   -0.0003    0.0002   -0.0009    0.0000   -0.0000   -0.0003    0.0004   -0.0003    0.0191
    24 C3     3px       -0.0001   -0.0001    0.0002   -0.0004   -0.0001   -0.0002   -0.0004    0.0008   -0.0004    0.0174
    25 C3     4px        0.0000    0.0001    0.0000    0.0002   -0.0001   -0.0005   -0.0001    0.0003   -0.0001    0.0006
    26 C3     2py       -0.0007   -0.0002    0.0008   -0.0005    0.0004   -0.0005   -0.0003    0.0004    0.0002    0.0168
    27 C3     3py       -0.0008   -0.0002    0.0008    0.0001    0.0001   -0.0004   -0.0006    0.0005    0.0002    0.0043
    28 C3     4py       -0.0001    0.0000    0.0000    0.0002   -0.0002   -0.0006   -0.0002    0.0000   -0.0000    0.0036
    29 C3     2pz       -0.0000   -0.0002    0.0003    0.0004    0.0002   -0.0002    0.0001    0.0004   -0.0001    0.0111
    30 C3     3pz       -0.0003   -0.0002    0.0003    0.0004   -0.0004   -0.0003   -0.0001    0.0005   -0.0002   -0.0063
    31 C3     4pz       -0.0002   -0.0000   -0.0001   -0.0000   -0.0002    0.0003   -0.0001    0.0001   -0.0000    0.0092
    32 C3     3d2-       0.0000    0.0000    0.0001    0.0000   -0.0001   -0.0001   -0.0000    0.0000   -0.0000   -0.0008
    33 C3     3d1-      -0.0001   -0.0000    0.0000   -0.0000    0.0001   -0.0000    0.0000   -0.0000   -0.0000    0.0052
    34 C3     3d0        0.0000    0.0000    0.0000    0.0001    0.0000   -0.0001    0.0001   -0.0000    0.0000   -0.0004
    35 C3     3d1+      -0.0001    0.0000    0.0000    0.0000    0.0001    0.0000   -0.0000    0.0000    0.0000    0.0037
    36 C3     3d2+       0.0000   -0.0000   -0.0001    0.0000    0.0000    0.0001    0.0000    0.0000    0.0000   -0.0009
    37 C4     1s         0.0003    0.0000    0.0001   -0.0003    1.0000   -0.0057    0.0003   -0.0002   -0.0000   -0.0387
    38 C4     2s         0.0009   -0.0000    0.0001   -0.0021    0.0023    0.0008    0.0002   -0.0015   -0.0000    0.3607
    39 C4     3s        -0.0005   -0.0000   -0.0003   -0.0015   -0.0002    0.0002    0.0001   -0.0012   -0.0000   -0.0021
    40 C4     4s        -0.0004    0.0000   -0.0001   -0.0004    0.0012    0.0000   -0.0001   -0.0003    0.0000    0.0040
    41 C4     2px        0.0017   -0.0001   -0.0007    0.0004   -0.0002   -0.0001    0.0002   -0.0002    0.0002    0.0463
    42 C4     3px        0.0013   -0.0001   -0.0005    0.0003   -0.0003    0.0001    0.0004   -0.0003    0.0003   -0.0420
    43 C4     4px       -0.0001   -0.0001    0.0000   -0.0001   -0.0000    0.0002    0.0001   -0.0001    0.0000    0.0130
    44 C4     2py        0.0027    0.0000   -0.0003    0.0006    0.0002   -0.0006    0.0001    0.0001   -0.0000    0.0874
    45 C4     3py        0.0020    0.0001   -0.0003    0.0005    0.0001   -0.0000   -0.0000    0.0002   -0.0000   -0.0599
    46 C4     4py       -0.0002    0.0000   -0.0000   -0.0000    0.0003    0.0003   -0.0001    0.0001   -0.0000    0.0225
    47 C4     2pz        0.0005   -0.0000    0.0016    0.0003    0.0014   -0.0011   -0.0002    0.0001   -0.0001    0.0359
    48 C4     3pz        0.0003   -0.0001    0.0012    0.0002    0.0010   -0.0008   -0.0010    0.0001   -0.0001   -0.0051
    49 C4     4pz       -0.0001   -0.0000   -0.0001   -0.0001    0.0006   -0.0001   -0.0006    0.0000   -0.0000    0.0092
    50 C4     3d2-      -0.0001   -0.0000   -0.0002    0.0000    0.0006   -0.0001    0.0001   -0.0000    0.0000    0.0385
    51 C4     3d1-      -0.0000   -0.0000    0.0002   -0.0001   -0.0001    0.0000   -0.0000   -0.0000    0.0000    0.0046
    52 C4     3d0        0.0002   -0.0000   -0.0000   -0.0000   -0.0002    0.0000    0.0001    0.0000   -0.0000   -0.0166
    53 C4     3d1+      -0.0000   -0.0000    0.0001   -0.0000   -0.0002    0.0000   -0.0001   -0.0000   -0.0000   -0.0010
    54 C4     3d2+       0.0000   -0.0000    0.0000   -0.0000   -0.0002    0.0000   -0.0000    0.0000   -0.0000   -0.0158
    55 C6     1s         0.0001   -0.0000    0.0004    0.0000   -0.0002    0.0015    0.9996   -0.0000    0.0001   -0.0091
    56 C6     2s         0.0005   -0.0001    0.0023    0.0000    0.0002    0.0005   -0.0007   -0.0003    0.0006    0.0155
    57 C6     3s         0.0004   -0.0000    0.0010    0.0000   -0.0001    0.0004   -0.0021   -0.0003    0.0004   -0.0165
    58 C6     4s         0.0001   -0.0000    0.0000    0.0000   -0.0002    0.0001    0.0008   -0.0001    0.0001   -0.0012
    59 C6     2px        0.0003   -0.0003    0.0001   -0.0000   -0.0001    0.0001   -0.0001   -0.0002    0.0001    0.0013
    60 C6     3px        0.0002   -0.0002    0.0000   -0.0000   -0.0002    0.0001   -0.0000   -0.0001    0.0001   -0.0034
    61 C6     4px       -0.0001    0.0000   -0.0001    0.0000   -0.0001   -0.0000    0.0001    0.0000   -0.0000    0.0013
    62 C6     2py        0.0001   -0.0000   -0.0003   -0.0002   -0.0001   -0.0001   -0.0001   -0.0002    0.0000   -0.0010
    63 C6     3py        0.0000   -0.0000   -0.0001   -0.0001   -0.0002   -0.0001    0.0002   -0.0001    0.0000    0.0038
    64 C6     4py       -0.0001   -0.0000    0.0001    0.0000   -0.0001    0.0000   -0.0003    0.0000    0.0000   -0.0009
    65 C6     2pz       -0.0003   -0.0000   -0.0005   -0.0001    0.0004   -0.0003    0.0000    0.0002   -0.0001   -0.0197
    66 C6     3pz       -0.0002   -0.0000    0.0001   -0.0000    0.0006   -0.0002    0.0003    0.0002   -0.0001    0.0025
    67 C6     4pz        0.0000    0.0000    0.0003    0.0000    0.0002    0.0001   -0.0007    0.0000   -0.0000   -0.0037
    68 C6     3d2-       0.0000   -0.0000   -0.0001   -0.0000    0.0000    0.0000   -0.0000   -0.0000    0.0000   -0.0000
    69 C6     3d1-       0.0000    0.0000   -0.0001    0.0000   -0.0000    0.0000   -0.0001   -0.0000    0.0000    0.0025
    70 C6     3d0        0.0000   -0.0000   -0.0000    0.0000    0.0000    0.0000   -0.0000    0.0000   -0.0000    0.0034
    71 C6     3d1+      -0.0000    0.0000    0.0000    0.0000   -0.0001   -0.0000   -0.0000    0.0000    0.0000   -0.0010
    72 C6     3d2+      -0.0000    0.0000    0.0000   -0.0000    0.0000   -0.0000    0.0000   -0.0000   -0.0000   -0.0002
    73 C19    1s         0.0000    0.0002    0.0000   -0.0000   -0.0000    0.0001   -0.0001    0.0056   -0.9999    0.0001
    74 C19    2s         0.0002    0.0011    0.0003   -0.0001   -0.0001    0.0005   -0.0004    0.0004   -0.0018    0.0047
    75 C19    3s         0.0002    0.0007    0.0002    0.0000   -0.0001    0.0002   -0.0003    0.0001    0.0005    0.0045
    76 C19    4s         0.0000    0.0001    0.0000   -0.0000   -0.0000   -0.0000   -0.0001    0.0001   -0.0012    0.0023
    77 C19    2px        0.0001    0.0008    0.0002   -0.0002    0.0001    0.0002   -0.0000   -0.0001    0.0002   -0.0015
    78 C19    3px        0.0001    0.0005    0.0002   -0.0002    0.0001    0.0002   -0.0000   -0.0004    0.0001   -0.0021
    79 C19    4px        0.0000   -0.0002   -0.0000    0.0000   -0.0000    0.0000    0.0000   -0.0001   -0.0002    0.0000
    80 C19    2py        0.0001   -0.0000    0.0001    0.0003   -0.0000    0.0002   -0.0001    0.0004    0.0004    0.0040
    81 C19    3py        0.0000   -0.0002    0.0001    0.0003   -0.0000    0.0001   -0.0001    0.0000   -0.0000    0.0032
    82 C19    4py       -0.0000   -0.0001   -0.0000   -0.0000    0.0000   -0.0001    0.0000   -0.0001   -0.0003    0.0002
    83 C19    2pz       -0.0001    0.0001    0.0002   -0.0002   -0.0000   -0.0001   -0.0001   -0.0002    0.0002    0.0027
    84 C19    3pz       -0.0001    0.0000    0.0002   -0.0002   -0.0000   -0.0001   -0.0000   -0.0003    0.0001    0.0022
    85 C19    4pz        0.0000   -0.0000    0.0000   -0.0000    0.0000   -0.0000    0.0000   -0.0000   -0.0001   -0.0002
    86 C19    3d2-       0.0000    0.0001    0.0000   -0.0000    0.0000    0.0001   -0.0000   -0.0000    0.0001    0.0001
    87 C19    3d1-       0.0000   -0.0000    0.0000    0.0000    0.0000    0.0000   -0.0000   -0.0000    0.0000   -0.0000
    88 C19    3d0        0.0000   -0.0001   -0.0000   -0.0001   -0.0000   -0.0000    0.0000    0.0001   -0.0001    0.0001
    89 C19    3d1+       0.0000    0.0000    0.0000    0.0000    0.0000    0.0000    0.0000   -0.0000    0.0000   -0.0002
    90 C19    3d2+      -0.0000    0.0001   -0.0000   -0.0000   -0.0000   -0.0000    0.0000   -0.0001   -0.0001   -0.0001
    91 N2     1s        -0.0000   -0.0000   -0.0000    0.9998    0.0000    0.0001    0.0000   -0.0003   -0.0000   -0.0011
    92 N2     2s        -0.0001   -0.0001    0.0003   -0.0001    0.0002    0.0015    0.0002   -0.0007   -0.0003    0.0243
    93 N2     3s         0.0000   -0.0000    0.0003   -0.0015    0.0002    0.0008    0.0001   -0.0007   -0.0003   -0.0043
    94 N2     4s         0.0000   -0.0000    0.0001    0.0005    0.0001    0.0003    0.0000   -0.0001   -0.0000   -0.0021
    95 N2     2px       -0.0002    0.0000    0.0000    0.0004    0.0001    0.0005   -0.0001   -0.0001    0.0004    0.0066
    96 N2     3px       -0.0001   -0.0001    0.0001    0.0003    0.0000    0.0001   -0.0002   -0.0000    0.0004    0.0071
    97 N2     4px        0.0000   -0.0000    0.0001   -0.0000   -0.0000   -0.0001   -0.0001   -0.0003   -0.0001    0.0004
    98 N2     2py        0.0001   -0.0016    0.0004   -0.0007    0.0004    0.0008    0.0000    0.0005    0.0001   -0.0010
    99 N2     3py        0.0002   -0.0019    0.0004    0.0001    0.0005    0.0008   -0.0000    0.0006    0.0001   -0.0124
   100 N2     4py        0.0000    0.0000   -0.0000    0.0006   -0.0000    0.0002   -0.0000    0.0000   -0.0001   -0.0020
   101 N2     2pz        0.0002   -0.0001   -0.0002    0.0000   -0.0000    0.0002    0.0002   -0.0002   -0.0000    0.0013
   102 N2     3pz        0.0004   -0.0001   -0.0003    0.0001    0.0000    0.0002    0.0004    0.0000   -0.0001   -0.0041
   103 N2     4pz        0.0001    0.0000   -0.0000    0.0002    0.0000    0.0000    0.0001    0.0000   -0.0000   -0.0010
   104 N2     3d2-       0.0000    0.0001    0.0000   -0.0002    0.0000   -0.0000    0.0000   -0.0001    0.0000   -0.0000
   105 N2     3d1-      -0.0000    0.0000   -0.0000   -0.0000    0.0000    0.0000    0.0000   -0.0000   -0.0000    0.0007
   106 N2     3d0        0.0000   -0.0000   -0.0000    0.0000   -0.0000    0.0001   -0.0000    0.0001    0.0001   -0.0005
   107 N2     3d1+      -0.0000    0.0000   -0.0000   -0.0000    0.0000    0.0000    0.0000   -0.0000   -0.0000    0.0007
   108 N2     3d2+       0.0000   -0.0000    0.0000   -0.0000   -0.0000   -0.0000   -0.0000    0.0000   -0.0000   -0.0002
   109 N5     1s         0.0001   -0.0000    0.9999    0.0001   -0.0003   -0.0000    0.0002    0.0000   -0.0001   -0.0187
   110 N5     2s         0.0010   -0.0001    0.0004    0.0001   -0.0002   -0.0001    0.0019    0.0001   -0.0004    0.1107
   111 N5     3s         0.0007   -0.0001   -0.0011    0.0002   -0.0003   -0.0000    0.0012    0.0001   -0.0002   -0.0496
   112 N5     4s         0.0002   -0.0000    0.0005    0.0001    0.0000   -0.0000    0.0004    0.0000   -0.0000   -0.0115
   113 N5     2px       -0.0006    0.0002   -0.0006    0.0002   -0.0000   -0.0000   -0.0003    0.0003    0.0000    0.0280
   114 N5     3px       -0.0007    0.0004   -0.0004    0.0002   -0.0002    0.0000   -0.0001    0.0005   -0.0000    0.0002
   115 N5     4px        0.0000    0.0001    0.0001   -0.0000    0.0001    0.0000    0.0001    0.0001   -0.0001    0.0019
   116 N5     2py       -0.0012    0.0000   -0.0011    0.0002    0.0000   -0.0001    0.0003    0.0003    0.0000    0.0408
   117 N5     3py       -0.0014   -0.0000   -0.0009    0.0003   -0.0002   -0.0000    0.0007    0.0005   -0.0001    0.0031
   118 N5     4py       -0.0000   -0.0000    0.0004    0.0000    0.0000    0.0001    0.0003    0.0001   -0.0001   -0.0019
   119 N5     2pz       -0.0008    0.0001   -0.0009   -0.0001   -0.0001   -0.0002    0.0012    0.0002   -0.0003    0.0070
   120 N5     3pz       -0.0009    0.0001   -0.0010   -0.0001   -0.0003   -0.0002    0.0013    0.0004   -0.0005    0.0305
   121 N5     4pz        0.0001    0.0000   -0.0001    0.0001   -0.0004    0.0001    0.0002    0.0001   -0.0001   -0.0071
   122 N5     3d2-       0.0000   -0.0000    0.0001    0.0000   -0.0001    0.0000   -0.0000    0.0000   -0.0000    0.0035
   123 N5     3d1-       0.0001    0.0000   -0.0000   -0.0000   -0.0001    0.0000   -0.0000   -0.0000   -0.0000   -0.0038
   124 N5     3d0        0.0001    0.0000   -0.0001   -0.0000   -0.0001   -0.0000   -0.0001   -0.0000    0.0000   -0.0011
   125 N5     3d1+       0.0000    0.0000    0.0001   -0.0000    0.0000    0.0000    0.0001   -0.0000   -0.0000   -0.0035
   126 N5     3d2+      -0.0000    0.0000   -0.0000    0.0000    0.0000   -0.0000    0.0000   -0.0000    0.0000   -0.0002
   127 O7     1s         0.0000    0.9997   -0.0000    0.0000    0.0000   -0.0000   -0.0000   -0.0002   -0.0000   -0.0009
   128 O7     2s         0.0000   -0.0014   -0.0000    0.0001    0.0000   -0.0002    0.0000    0.0005   -0.0003    0.0143
   129 O7     3s         0.0000   -0.0014   -0.0000    0.0000    0.0000   -0.0001    0.0000   -0.0000   -0.0002   -0.0014
   130 O7     4s         0.0000    0.0001   -0.0000   -0.0000    0.0000   -0.0000    0.0000   -0.0000   -0.0001   -0.0003
   131 O7     2px        0.0001    0.0001   -0.0001   -0.0004   -0.0000   -0.0001   -0.0000    0.0004   -0.0001    0.0043
   132 O7     3px        0.0001   -0.0003   -0.0001   -0.0005   -0.0001   -0.0000   -0.0000   -0.0002   -0.0001    0.0020
   133 O7     4px        0.0000    0.0008   -0.0000   -0.0001   -0.0000   -0.0000   -0.0000   -0.0000    0.0000    0.0009
   134 O7     2py        0.0001   -0.0003   -0.0000   -0.0002   -0.0000    0.0000    0.0001   -0.0008    0.0002   -0.0033
   135 O7     3py        0.0002    0.0004   -0.0000   -0.0002   -0.0000   -0.0000    0.0001   -0.0005    0.0001    0.0006
   136 O7     4py        0.0001   -0.0011   -0.0000    0.0000   -0.0000   -0.0000    0.0000   -0.0003   -0.0000    0.0001
   137 O7     2pz        0.0001    0.0000   -0.0001   -0.0000   -0.0001   -0.0000    0.0000   -0.0003    0.0000    0.0023
   138 O7     3pz        0.0001    0.0001   -0.0001   -0.0001   -0.0001   -0.0000   -0.0000   -0.0001    0.0000    0.0019
   139 O7     4pz        0.0000   -0.0000   -0.0000   -0.0000   -0.0001   -0.0000   -0.0000   -0.0000    0.0000    0.0006
   140 O7     3d2-       0.0000    0.0001    0.0000    0.0000   -0.0000    0.0000    0.0000   -0.0002    0.0000   -0.0005
   141 O7     3d1-       0.0000    0.0000   -0.0000    0.0000   -0.0000    0.0000    0.0000    0.0000   -0.0000    0.0000
   142 O7     3d0       -0.0000   -0.0000    0.0000   -0.0000    0.0000   -0.0000    0.0000   -0.0001    0.0000   -0.0005
   143 O7     3d1+       0.0000    0.0000   -0.0000    0.0000   -0.0000    0.0000   -0.0000   -0.0000   -0.0000    0.0001
   144 O7     3d2+       0.0000    0.0000   -0.0000   -0.0001    0.0000    0.0000    0.0000   -0.0001    0.0000   -0.0001
   145 O8     1s         0.9997    0.0000    0.0000   -0.0000   -0.0003    0.0001   -0.0000    0.0000   -0.0000   -0.0241
   146 O8     2s        -0.0013    0.0000    0.0002   -0.0001    0.0004    0.0005   -0.0003    0.0002   -0.0000    0.6889
   147 O8     3s        -0.0012    0.0000    0.0002   -0.0000   -0.0000    0.0003   -0.0002    0.0001   -0.0000   -0.0348
   148 O8     4s         0.0001    0.0000    0.0000    0.0000    0.0001    0.0001   -0.0000    0.0000   -0.0000   -0.0141
   149 O8     2px       -0.0002    0.0000    0.0001    0.0000   -0.0003   -0.0001    0.0001   -0.0000   -0.0000   -0.0807
   150 O8     3px        0.0002    0.0000    0.0001   -0.0000   -0.0001   -0.0001    0.0000    0.0000   -0.0000    0.0248
   151 O8     4px       -0.0008    0.0000    0.0001   -0.0000   -0.0001    0.0001   -0.0000    0.0000   -0.0000    0.0006
   152 O8     2py       -0.0003   -0.0000    0.0000   -0.0000   -0.0006   -0.0002    0.0001   -0.0000    0.0000   -0.1245
   153 O8     3py        0.0004   -0.0000    0.0001   -0.0001   -0.0002   -0.0002    0.0000   -0.0000    0.0000    0.0377
   154 O8     4py       -0.0012   -0.0000    0.0001   -0.0000   -0.0003    0.0000   -0.0000    0.0000   -0.0000    0.0007
   155 O8     2pz       -0.0000   -0.0000   -0.0003   -0.0000   -0.0000   -0.0000   -0.0001   -0.0000    0.0000   -0.0086
   156 O8     3pz        0.0001   -0.0000   -0.0003   -0.0001   -0.0002    0.0000   -0.0000    0.0000    0.0000    0.0023
   157 O8     4pz       -0.0001    0.0000    0.0000   -0.0000   -0.0001    0.0000   -0.0000    0.0000    0.0000   -0.0015
   158 O8     3d2-      -0.0000   -0.0000    0.0000   -0.0000    0.0001    0.0000   -0.0000   -0.0000   -0.0000    0.0172
   159 O8     3d1-       0.0000   -0.0000    0.0001    0.0000   -0.0000    0.0000    0.0000   -0.0000    0.0000    0.0023
   160 O8     3d0        0.0001   -0.0000    0.0000    0.0000   -0.0001    0.0000    0.0000   -0.0000    0.0000   -0.0111
   161 O8     3d1+      -0.0000   -0.0000    0.0000   -0.0000    0.0000   -0.0000    0.0000    0.0000   -0.0000    0.0017
   162 O8     3d2+       0.0000   -0.0000   -0.0000    0.0000   -0.0001   -0.0000   -0.0000    0.0000    0.0000   -0.0077
   163 H9     1s        -0.0002    0.0003    0.0002   -0.0000   -0.0000   -0.0002   -0.0001   -0.0000   -0.0003    0.0058
   164 H9     2s        -0.0001    0.0002    0.0001   -0.0001   -0.0000   -0.0001   -0.0001    0.0001    0.0002    0.0039
   165 H9     2px       -0.0000   -0.0000   -0.0000    0.0000   -0.0000   -0.0000   -0.0000    0.0000    0.0000    0.0005
   166 H9     2py       -0.0000   -0.0000   -0.0000   -0.0000   -0.0000    0.0000   -0.0000    0.0001   -0.0000    0.0001
   167 H9     2pz       -0.0000    0.0000    0.0000    0.0000   -0.0000   -0.0000   -0.0000    0.0000    0.0001    0.0006
   168 H10    1s         0.0001    0.0002    0.0001    0.0003    0.0000   -0.0000    0.0000    0.0003   -0.0004    0.0009
   169 H10    2s         0.0001    0.0001    0.0000    0.0002    0.0000   -0.0000    0.0000    0.0002    0.0002    0.0007
   170 H10    2px        0.0000   -0.0000    0.0000    0.0001    0.0000   -0.0000    0.0000    0.0001    0.0000    0.0002
   171 H10    2py       -0.0000   -0.0001    0.0000   -0.0000    0.0000   -0.0000    0.0000    0.0000   -0.0000    0.0001
   172 H10    2pz       -0.0000   -0.0000   -0.0000    0.0000   -0.0000    0.0000    0.0000   -0.0000   -0.0001   -0.0001
   173 H11    1s         0.0000   -0.0003   -0.0001    0.0004   -0.0001   -0.0000   -0.0001    0.0004   -0.0002    0.0049
   174 H11    2s         0.0000   -0.0001   -0.0000    0.0003   -0.0001   -0.0000   -0.0001    0.0002    0.0003    0.0031
   175 H11    2px       -0.0000   -0.0000    0.0000   -0.0001    0.0000    0.0000   -0.0000   -0.0000   -0.0001   -0.0005
   176 H11    2py        0.0000   -0.0000   -0.0000    0.0000   -0.0000    0.0000   -0.0000    0.0001    0.0001    0.0004
   177 H11    2pz        0.0000    0.0000    0.0000    0.0000    0.0000    0.0000   -0.0000    0.0000   -0.0000   -0.0003
   178 H12    1s         0.0002   -0.0010    0.0005   -0.0006    0.0003   -0.0002   -0.0002    0.0004    0.0003   -0.0017
   179 H12    2s         0.0001   -0.0005    0.0003   -0.0004    0.0002   -0.0001   -0.0001    0.0002    0.0001   -0.0044
   180 H12    2px       -0.0000    0.0000   -0.0000    0.0003   -0.0000    0.0000    0.0000   -0.0001   -0.0000   -0.0000
   181 H12    2py        0.0000   -0.0000    0.0000   -0.0004   -0.0000   -0.0000   -0.0000    0.0000    0.0000    0.0009
   182 H12    2pz       -0.0000   -0.0000    0.0000   -0.0000   -0.0000   -0.0000   -0.0000   -0.0000    0.0000    0.0006
   183 H13    1s        -0.0005    0.0002    0.0004    0.0000    0.0001    0.0008   -0.0001   -0.0002    0.0002    0.0101
   184 H13    2s        -0.0003    0.0001    0.0002    0.0001    0.0001    0.0001   -0.0001   -0.0001    0.0001   -0.0011
   185 H13    2px        0.0000   -0.0000   -0.0000   -0.0001   -0.0000   -0.0000    0.0000   -0.0000    0.0000   -0.0006
   186 H13    2py       -0.0000    0.0000   -0.0000    0.0000    0.0000   -0.0000   -0.0000   -0.0000   -0.0000    0.0010
   187 H13    2pz       -0.0001    0.0000    0.0000    0.0000    0.0000    0.0000   -0.0000   -0.0000    0.0000    0.0014
   188 H14    1s        -0.0001   -0.0005   -0.0000   -0.0007   -0.0001    0.0011   -0.0001   -0.0007   -0.0002    0.0246
   189 H14    2s        -0.0001   -0.0003   -0.0000   -0.0004   -0.0000    0.0002   -0.0001   -0.0004   -0.0001    0.0081
   190 H14    2px       -0.0000    0.0001   -0.0000    0.0001    0.0000    0.0000   -0.0000    0.0000   -0.0000    0.0003
   191 H14    2py       -0.0000    0.0001   -0.0000    0.0000    0.0000   -0.0001    0.0000    0.0001    0.0000   -0.0003
   192 H14    2pz       -0.0001   -0.0000   -0.0000    0.0000    0.0001    0.0001   -0.0000   -0.0000   -0.0000    0.0024
   193 H15    1s        -0.0014   -0.0000   -0.0013    0.0001   -0.0003   -0.0004   -0.0004    0.0000    0.0006    0.0440
   194 H15    2s        -0.0008   -0.0000   -0.0009    0.0001   -0.0003   -0.0002   -0.0002    0.0000    0.0004    0.0015
   195 H15    2px       -0.0001    0.0001   -0.0003    0.0001    0.0001   -0.0000   -0.0001   -0.0000    0.0000    0.0040
   196 H15    2py       -0.0001   -0.0000   -0.0004    0.0000    0.0001   -0.0000   -0.0000   -0.0000    0.0001    0.0051
   197 H15    2pz       -0.0000    0.0001   -0.0001   -0.0000   -0.0001   -0.0000    0.0000   -0.0001   -0.0000    0.0007
   198 H16    1s        -0.0002    0.0002   -0.0003    0.0001   -0.0002    0.0001    0.0011    0.0001   -0.0001    0.0124
   199 H16    2s        -0.0001    0.0001   -0.0001    0.0000   -0.0001    0.0001    0.0002    0.0000   -0.0001   -0.0027
   200 H16    2px       -0.0000    0.0000   -0.0000   -0.0000    0.0000   -0.0000   -0.0001   -0.0000    0.0000    0.0000
   201 H16    2py        0.0000   -0.0000    0.0000   -0.0000    0.0000   -0.0000   -0.0001   -0.0000    0.0000   -0.0009
   202 H16    2pz        0.0000    0.0000   -0.0000    0.0000   -0.0000   -0.0000   -0.0000    0.0000   -0.0000   -0.0009
   203 H17    1s         0.0004   -0.0002   -0.0004    0.0000   -0.0004    0.0001    0.0007   -0.0001    0.0000    0.0054
   204 H17    2s         0.0003   -0.0001   -0.0002    0.0000   -0.0003    0.0001   -0.0001   -0.0001    0.0000   -0.0010
   205 H17    2px        0.0000   -0.0000   -0.0000    0.0000   -0.0001    0.0000    0.0000   -0.0000    0.0000    0.0005
   206 H17    2py       -0.0000    0.0000    0.0000    0.0000    0.0000   -0.0000   -0.0000    0.0000   -0.0000   -0.0005
   207 H17    2pz       -0.0000   -0.0000    0.0000   -0.0000    0.0000    0.0000   -0.0001   -0.0000    0.0000   -0.0005
   208 H18    1s         0.0003    0.0001   -0.0005   -0.0000   -0.0004   -0.0000    0.0006   -0.0002    0.0000    0.0107
   209 H18    2s         0.0002    0.0001   -0.0002   -0.0000   -0.0003   -0.0000   -0.0001   -0.0002    0.0000    0.0022
   210 H18    2px       -0.0000    0.0000   -0.0000    0.0000    0.0000   -0.0000    0.0000    0.0000   -0.0000   -0.0002
   211 H18    2py        0.0000    0.0000   -0.0000    0.0000   -0.0001    0.0000   -0.0000   -0.0000   -0.0000    0.0006
   212 H18    2pz       -0.0000   -0.0000    0.0001   -0.0000    0.0000   -0.0000   -0.0000    0.0000    0.0000   -0.0011
 
 
      Orbital                11        12        13        14        15        16        17        18        19        20
      Energy            -1.3556   -1.2636   -1.2185   -1.0156   -0.9710   -0.9296   -0.8190   -0.7823   -0.7227   -0.6951
      Occ. No.           2.0000    2.0000    2.0000    2.0000    2.0000    2.0000    2.0000    2.0000    2.0000    2.0000
 
     1 C1     1s         0.0401    0.0041    0.0047   -0.0142    0.0082    0.0023    0.0054    0.0140   -0.0011    0.0037
     2 C1     2s        -0.3615    0.0097   -0.0781    0.1901   -0.1697    0.0105   -0.0856   -0.3733    0.0075   -0.0919
     3 C1     3s         0.0086    0.0167    0.0015   -0.0206    0.0061    0.0041    0.0072   -0.0021   -0.0075    0.0039
     4 C1     4s        -0.0009    0.0046    0.0011   -0.0068    0.0022    0.0016    0.0030    0.0023   -0.0017    0.0022
     5 C1     2px        0.0420    0.0383   -0.1265    0.0332    0.0488   -0.1092   -0.0601   -0.1646    0.0062    0.0121
     6 C1     3px       -0.0078   -0.0023    0.0548   -0.0471    0.0249    0.0197    0.0060    0.0346   -0.0150   -0.0117
     7 C1     4px        0.0148    0.0073   -0.0234   -0.0035    0.0124   -0.0148   -0.0052   -0.0115   -0.0019   -0.0004
     8 C1     2py       -0.0922   -0.0051    0.0483   -0.1142    0.1220   -0.0324    0.0040   -0.0120    0.0642    0.0344
     9 C1     3py        0.0706    0.0283   -0.0444   -0.0088   -0.0142    0.0635    0.0014    0.0093   -0.0190   -0.0136
    10 C1     4py       -0.0209    0.0009    0.0079   -0.0195    0.0209   -0.0002   -0.0000   -0.0020    0.0024   -0.0004
    11 C1     2pz        0.0020    0.0048    0.0065   -0.0196    0.0235   -0.0196    0.0024   -0.0070   -0.0127    0.0136
    12 C1     3pz        0.0130    0.0068    0.0074   -0.0039    0.0079   -0.0079    0.0061    0.0028   -0.0062   -0.0038
    13 C1     4pz        0.0010    0.0022    0.0021   -0.0037    0.0051   -0.0045    0.0024    0.0002   -0.0047    0.0024
    14 C1     3d2-       0.0303    0.0058   -0.0144    0.0038   -0.0086    0.0099    0.0016   -0.0118    0.0139    0.0050
    15 C1     3d1-      -0.0042   -0.0005    0.0014    0.0008   -0.0023    0.0017   -0.0001   -0.0017    0.0007   -0.0007
    16 C1     3d0        0.0270    0.0011    0.0028   -0.0086    0.0050    0.0024    0.0044    0.0126   -0.0009    0.0029
    17 C1     3d1+       0.0010    0.0015   -0.0027    0.0012   -0.0017    0.0002   -0.0004   -0.0038   -0.0017    0.0033
    18 C1     3d2+       0.0095    0.0064   -0.0268    0.0080    0.0052   -0.0153   -0.0058   -0.0139    0.0021    0.0022
    19 C3     1s         0.0109   -0.0096    0.0330    0.0378   -0.0082   -0.0265   -0.0063    0.0013   -0.0049    0.0058
    20 C3     2s        -0.0350    0.0612   -0.1760   -0.3123    0.0757    0.3658    0.1076   -0.0580    0.0926   -0.0423
    21 C3     3s         0.0203   -0.0155    0.0630    0.0684   -0.0140   -0.0274   -0.0062    0.0045   -0.0043    0.0195
    22 C3     4s         0.0032   -0.0015    0.0146    0.0172   -0.0043   -0.0081   -0.0026    0.0025   -0.0016    0.0053
    23 C3     2px        0.0286   -0.0072    0.0426   -0.0288    0.0165    0.0627    0.0225    0.0487   -0.1267   -0.1371
    24 C3     3px        0.0063    0.0242   -0.0222   -0.0297    0.0422    0.0216    0.0055   -0.0116    0.0174    0.0179
    25 C3     4px        0.0033    0.0071   -0.0016   -0.0123    0.0088    0.0138    0.0015    0.0029   -0.0029   -0.0044
    26 C3     2py        0.0195   -0.0251    0.0990   -0.0137   -0.0157    0.0530   -0.0528   -0.1881   -0.1208   -0.0844
    27 C3     3py       -0.0062    0.0104    0.0033    0.0175    0.0468   -0.0116   -0.0068    0.0011    0.0315    0.0237
    28 C3     4py        0.0031    0.0082    0.0070   -0.0084    0.0048    0.0118   -0.0050   -0.0125    0.0022   -0.0003
    29 C3     2pz        0.0033    0.0275    0.0192   -0.0477   -0.0334    0.0087   -0.0778   -0.0385   -0.2224    0.1647
    30 C3     3pz        0.0065    0.0048    0.0199    0.0214    0.0248   -0.0108    0.0036    0.0073    0.0299   -0.0126
    31 C3     4pz        0.0035    0.0006    0.0093    0.0074   -0.0030   -0.0132   -0.0098    0.0013   -0.0059    0.0057
    32 C3     3d2-      -0.0054    0.0032   -0.0188    0.0015    0.0062   -0.0056    0.0022    0.0022    0.0121    0.0146
    33 C3     3d1-      -0.0010   -0.0000   -0.0048   -0.0068   -0.0017    0.0039   -0.0037    0.0004   -0.0151    0.0041
    34 C3     3d0        0.0022    0.0022    0.0088   -0.0073   -0.0104    0.0035   -0.0105   -0.0121   -0.0200    0.0075
    35 C3     3d1+      -0.0006   -0.0027   -0.0020    0.0015    0.0018    0.0003    0.0001   -0.0040    0.0024   -0.0041
    36 C3     3d2+       0.0013   -0.0008    0.0096    0.0011   -0.0037    0.0014   -0.0017   -0.0120    0.0021   -0.0065
    37 C4     1s        -0.0016   -0.0068   -0.0053    0.0131    0.0091   -0.0004    0.0172    0.0006    0.0057    0.0004
    38 C4     2s        -0.0092    0.1479   -0.0328   -0.2515   -0.1713    0.0708   -0.3590   -0.0213   -0.2344    0.0216
    39 C4     3s        -0.0070    0.0097   -0.0213    0.0133    0.0023    0.0036    0.0213    0.0060    0.0077    0.0103
    40 C4     4s        -0.0024    0.0031   -0.0052    0.0054    0.0012    0.0007    0.0068    0.0029    0.0040    0.0004
    41 C4     2px        0.0021   -0.1031   -0.0127    0.0436    0.0336    0.0274    0.0430   -0.0253   -0.0869   -0.1408
    42 C4     3px       -0.0121    0.0200    0.0036   -0.0133   -0.0379   -0.0148   -0.0162    0.0040    0.0364    0.0346
    43 C4     4px       -0.0003   -0.0191   -0.0045    0.0023    0.0008    0.0022    0.0035   -0.0019   -0.0057   -0.0110
    44 C4     2py        0.0162   -0.0925    0.0110    0.0999    0.0680    0.0012    0.0213    0.0068   -0.0306   -0.2048
    45 C4     3py       -0.0017    0.0547    0.0077   -0.0281    0.0014    0.0296   -0.0010   -0.0049    0.0083    0.0630
    46 C4     4py        0.0043   -0.0172    0.0006    0.0085    0.0090    0.0031    0.0005   -0.0011   -0.0061   -0.0124
    47 C4     2pz        0.0033    0.1065    0.0709    0.0922    0.0093   -0.0965   -0.1268    0.1068    0.1947    0.0145
    48 C4     3pz       -0.0033    0.0377    0.0094    0.0090    0.0899    0.0971    0.0225   -0.0626   -0.0716    0.0334
    49 C4     4pz        0.0008    0.0262    0.0104    0.0113    0.0104    0.0018   -0.0103    0.0007    0.0049    0.0090
    50 C4     3d2-       0.0014   -0.0023    0.0008   -0.0030   -0.0082   -0.0071   -0.0048   -0.0006   -0.0091    0.0004
    51 C4     3d1-       0.0000   -0.0150   -0.0081   -0.0029    0.0100    0.0147    0.0023   -0.0047   -0.0113   -0.0055
    52 C4     3d0       -0.0018    0.0181    0.0011   -0.0129   -0.0015    0.0115   -0.0166   -0.0012    0.0122   -0.0003
    53 C4     3d1+       0.0003   -0.0190   -0.0065    0.0061    0.0099    0.0054    0.0112   -0.0071   -0.0060   -0.0027
    54 C4     3d2+      -0.0011    0.0074    0.0026    0.0012   -0.0001   -0.0012    0.0002    0.0007    0.0078    0.0011
    55 C6     1s        -0.0034   -0.0302   -0.0147   -0.0303   -0.0395   -0.0231    0.0072    0.0022    0.0076   -0.0068
    56 C6     2s        -0.0307    0.1628    0.0355    0.2385    0.3197    0.2685   -0.1020   -0.0273   -0.0496    0.0843
    57 C6     3s        -0.0196   -0.0438   -0.0366   -0.0465   -0.0687   -0.0273    0.0160    0.0055    0.0222   -0.0208
    58 C6     4s        -0.0051   -0.0060   -0.0079   -0.0094   -0.0152   -0.0056    0.0052    0.0018    0.0052   -0.0070
    59 C6     2px       -0.0064    0.0088    0.0044    0.0076   -0.0048   -0.0028   -0.0730    0.0361    0.1008   -0.0300
    60 C6     3px       -0.0061   -0.0044   -0.0020    0.0023   -0.0056   -0.0012   -0.0014   -0.0026   -0.0070    0.0030
    61 C6     4px        0.0003   -0.0011   -0.0016   -0.0023   -0.0025   -0.0018   -0.0041    0.0035    0.0040   -0.0030
    62 C6     2py        0.0024   -0.0400   -0.0084   -0.0170   -0.0095    0.0074   -0.1249    0.0218    0.0418    0.1386
    63 C6     3py        0.0005    0.0052    0.0057    0.0019   -0.0041   -0.0069    0.0049   -0.0034   -0.0006   -0.0208
    64 C6     4py       -0.0003   -0.0023   -0.0008    0.0042    0.0055    0.0045   -0.0103    0.0018    0.0023    0.0046
    65 C6     2pz        0.0083   -0.0996   -0.0243   -0.0247    0.0121    0.0313   -0.0499   -0.0397   -0.1632    0.2769
    66 C6     3pz        0.0058    0.0138    0.0155    0.0147    0.0198   -0.0022   -0.0021    0.0040    0.0256   -0.0432
    67 C6     4pz        0.0006   -0.0003    0.0020    0.0114    0.0177    0.0122   -0.0061   -0.0032   -0.0077    0.0141
    68 C6     3d2-       0.0000   -0.0017   -0.0000    0.0012    0.0012    0.0009   -0.0037    0.0014    0.0049    0.0019
    69 C6     3d1-      -0.0004    0.0154    0.0047    0.0054    0.0021   -0.0027    0.0146    0.0002    0.0085   -0.0249
    70 C6     3d0       -0.0003    0.0173    0.0058    0.0046    0.0007   -0.0039    0.0037    0.0047    0.0147   -0.0264
    71 C6     3d1+       0.0000   -0.0025   -0.0012   -0.0007   -0.0002    0.0006    0.0082   -0.0035   -0.0090    0.0042
    72 C6     3d2+       0.0003   -0.0028   -0.0011   -0.0025   -0.0014    0.0001   -0.0050    0.0003   -0.0020    0.0066
    73 C19    1s         0.0147   -0.0012    0.0062   -0.0332    0.0511   -0.0379   -0.0094   -0.0122   -0.0030   -0.0044
    74 C19    2s         0.0047   -0.0066   -0.0065    0.1639   -0.2956    0.2927    0.0368    0.0912    0.0514    0.0365
    75 C19    3s         0.0396   -0.0008    0.0184   -0.0695    0.1002   -0.0594   -0.0235   -0.0283   -0.0040   -0.0078
    76 C19    4s         0.0047    0.0017    0.0029   -0.0153    0.0223   -0.0137   -0.0050   -0.0082   -0.0022   -0.0019
    77 C19    2px        0.0077    0.0059   -0.0204    0.0426   -0.0293   -0.0067   -0.0206   -0.0583   -0.0452   -0.0404
    78 C19    3px        0.0074    0.0022    0.0028    0.0044    0.0028   -0.0035    0.0049    0.0048    0.0043    0.0073
    79 C19    4px       -0.0078    0.0000    0.0002   -0.0027    0.0101   -0.0128   -0.0026   -0.0035   -0.0052   -0.0029
    80 C19    2py       -0.0199    0.0038   -0.0010    0.0279   -0.0218    0.0004   -0.0234   -0.0700   -0.0388   -0.0687
    81 C19    3py        0.0102    0.0061    0.0062   -0.0189    0.0288   -0.0163    0.0013    0.0103   -0.0034    0.0087
    82 C19    4py       -0.0042    0.0005    0.0004   -0.0065    0.0137   -0.0149   -0.0032   -0.0124   -0.0012   -0.0028
    83 C19    2pz       -0.0080    0.0053   -0.0095    0.0092   -0.0126    0.0131    0.0022   -0.0136   -0.0175   -0.0031
    84 C19    3pz       -0.0055    0.0066   -0.0071    0.0019   -0.0046    0.0103    0.0067   -0.0033    0.0005    0.0054
    85 C19    4pz       -0.0015    0.0013    0.0002   -0.0016    0.0025   -0.0032    0.0011   -0.0028   -0.0014    0.0002
    86 C19    3d2-      -0.0014    0.0010   -0.0052    0.0081   -0.0072    0.0011   -0.0026   -0.0088   -0.0025   -0.0053
    87 C19    3d1-      -0.0008    0.0000   -0.0001    0.0015   -0.0019    0.0009   -0.0002   -0.0012   -0.0015   -0.0012
    88 C19    3d0       -0.0011   -0.0002    0.0005   -0.0053    0.0064   -0.0029    0.0010    0.0039    0.0040    0.0035
    89 C19    3d1+       0.0012    0.0002   -0.0007    0.0014   -0.0010   -0.0004   -0.0008   -0.0019   -0.0008   -0.0011
    90 C19    3d2+       0.0064    0.0011   -0.0034   -0.0034    0.0053   -0.0033    0.0005    0.0027    0.0021    0.0039
    91 N2     1s         0.0194   -0.0092    0.0364   -0.0067   -0.0011    0.0046   -0.0005   -0.0051    0.0025    0.0016
    92 N2     2s        -0.1705    0.1072   -0.5762    0.1193    0.1169   -0.2064   -0.0264    0.1040    0.0179    0.0510
    93 N2     3s         0.0461   -0.0192    0.0588   -0.0083    0.0048   -0.0024   -0.0023   -0.0097    0.0068    0.0098
    94 N2     4s         0.0121   -0.0061    0.0217   -0.0023   -0.0012    0.0016   -0.0005   -0.0032    0.0004    0.0015
    95 N2     2px        0.0265    0.0059    0.0134   -0.1085    0.0785    0.0666    0.0939    0.3990   -0.0191    0.0233
    96 N2     3px       -0.0263    0.0027    0.0081    0.0362    0.0038   -0.0377   -0.0428   -0.1041   -0.0001   -0.0019
    97 N2     4px        0.0036    0.0031   -0.0043   -0.0013    0.0074   -0.0035   -0.0032   -0.0003   -0.0035    0.0003
    98 N2     2py       -0.0330    0.0026    0.0105   -0.1026    0.0569    0.0695    0.0481   -0.1606    0.3181    0.1255
    99 N2     3py       -0.0037   -0.0161    0.0544    0.0491    0.0048   -0.0632   -0.0188    0.0226   -0.0683   -0.0147
   100 N2     4py        0.0076   -0.0029    0.0151   -0.0009    0.0010   -0.0043   -0.0044   -0.0093   -0.0002   -0.0001
   101 N2     2pz        0.0063   -0.0003    0.0025   -0.0429   -0.0061    0.0022    0.0066   -0.0070   -0.0552    0.0822
   102 N2     3pz        0.0079   -0.0140    0.0100   -0.0088   -0.0090   -0.0178    0.0002   -0.0034    0.0044   -0.0175
   103 N2     4pz        0.0031   -0.0021    0.0037   -0.0037   -0.0021   -0.0029    0.0001   -0.0007    0.0019   -0.0033
   104 N2     3d2-       0.0024    0.0020   -0.0073   -0.0043   -0.0008    0.0095    0.0046   -0.0029    0.0137    0.0037
   105 N2     3d1-      -0.0002    0.0008   -0.0027   -0.0019   -0.0001    0.0002   -0.0001    0.0002   -0.0021    0.0047
   106 N2     3d0        0.0036   -0.0021    0.0147   -0.0015   -0.0028    0.0031    0.0012   -0.0003   -0.0021    0.0015
   107 N2     3d1+      -0.0004    0.0004   -0.0021   -0.0003   -0.0006    0.0004   -0.0008   -0.0004   -0.0008    0.0017
   108 N2     3d2+      -0.0047    0.0005   -0.0037    0.0089   -0.0031   -0.0066   -0.0060   -0.0203   -0.0003   -0.0034
   109 N5     1s         0.0034   -0.0419   -0.0081   -0.0022    0.0028   -0.0002   -0.0023    0.0001    0.0031   -0.0020
   110 N5     2s        -0.0088    0.5635    0.1764   -0.0135   -0.1232   -0.1880    0.1733    0.0271    0.1264   -0.1294
   111 N5     3s         0.0088   -0.0833   -0.0120   -0.0156   -0.0062   -0.0164    0.0010    0.0014    0.0152   -0.0105
   112 N5     4s         0.0014   -0.0265   -0.0057   -0.0048   -0.0015   -0.0016   -0.0014   -0.0003    0.0009   -0.0007
   113 N5     2px        0.0052    0.0074   -0.0066   -0.0443   -0.0463   -0.0031   -0.2661    0.0937    0.1452    0.0379
   114 N5     3px        0.0084   -0.0087   -0.0112   -0.0023    0.0073    0.0006    0.0678   -0.0051   -0.0293   -0.0163
   115 N5     4px        0.0028   -0.0048   -0.0020   -0.0067    0.0009    0.0003   -0.0023    0.0016   -0.0019   -0.0021
   116 N5     2py        0.0088    0.0001    0.0105    0.0206    0.0172    0.0254   -0.3218    0.1245    0.2264   -0.1217
   117 N5     3py        0.0125   -0.0477   -0.0060   -0.0213   -0.0339   -0.0435    0.0621   -0.0099   -0.0413    0.0013
   118 N5     4py        0.0037   -0.0110    0.0007   -0.0065   -0.0012   -0.0056   -0.0064    0.0008   -0.0004   -0.0006
   119 N5     2pz        0.0239   -0.0328    0.0295    0.1465    0.1756    0.0727    0.1266   -0.0153    0.0475   -0.3601
   120 N5     3pz        0.0331   -0.0274    0.0225   -0.0692   -0.0748   -0.0788   -0.0329    0.0048   -0.0274    0.0575
   121 N5     4pz        0.0063   -0.0048    0.0061   -0.0013   -0.0004   -0.0085   -0.0023   -0.0001   -0.0020    0.0066
   122 N5     3d2-       0.0002    0.0094    0.0034   -0.0023   -0.0052   -0.0077    0.0038   -0.0001   -0.0014    0.0040
   123 N5     3d1-       0.0002    0.0012    0.0009    0.0077    0.0103    0.0045    0.0157   -0.0038   -0.0012   -0.0118
   124 N5     3d0       -0.0009    0.0127    0.0023    0.0013    0.0036    0.0055   -0.0060    0.0008    0.0049   -0.0029
   125 N5     3d1+       0.0004   -0.0111   -0.0024    0.0031    0.0044    0.0012    0.0119   -0.0036   -0.0038   -0.0042
   126 N5     3d2+      -0.0002   -0.0020   -0.0012   -0.0020   -0.0015    0.0011   -0.0038    0.0005   -0.0008    0.0028
   127 O7     1s         0.0236    0.0023   -0.0055   -0.0015    0.0026   -0.0012    0.0013    0.0101   -0.0030    0.0028
   128 O7     2s        -0.6631   -0.1133    0.3265   -0.1518    0.1415   -0.0353    0.0451    0.3047   -0.0869    0.0468
   129 O7     3s         0.0274   -0.0004    0.0033   -0.0116    0.0137   -0.0057    0.0041    0.0372   -0.0105    0.0086
   130 O7     4s         0.0117    0.0006   -0.0019   -0.0018    0.0022   -0.0014    0.0004    0.0073   -0.0022    0.0016
   131 O7     2px       -0.0861   -0.0040    0.0020   -0.0006    0.0151   -0.0286   -0.0258   -0.1401    0.0558   -0.0072
   132 O7     3px        0.0212    0.0050   -0.0074   -0.0076    0.0039    0.0054    0.0026    0.0189   -0.0071   -0.0006
   133 O7     4px        0.0009    0.0010   -0.0012   -0.0018    0.0002    0.0024    0.0003    0.0021   -0.0003   -0.0004
   134 O7     2py        0.1133    0.0202   -0.0526   -0.0093    0.0205   -0.0209    0.0126    0.0907   -0.0383    0.0447
   135 O7     3py       -0.0388   -0.0007    0.0009    0.0060   -0.0092    0.0023   -0.0008   -0.0184    0.0025   -0.0046
   136 O7     4py       -0.0005    0.0010    0.0005   -0.0013    0.0002    0.0015    0.0007   -0.0016    0.0004   -0.0002
   137 O7     2pz        0.0130    0.0029   -0.0047   -0.0114    0.0043   -0.0004   -0.0017    0.0094   -0.0088    0.0047
   138 O7     3pz       -0.0022    0.0001   -0.0010   -0.0024   -0.0026    0.0034   -0.0017    0.0005    0.0011   -0.0013
   139 O7     4pz        0.0005    0.0002   -0.0002   -0.0007   -0.0004    0.0011   -0.0005    0.0001    0.0005   -0.0002
   140 O7     3d2-       0.0168    0.0020   -0.0045    0.0007   -0.0019    0.0023    0.0017    0.0089   -0.0033    0.0013
   141 O7     3d1-      -0.0019   -0.0003    0.0011    0.0002   -0.0004    0.0005    0.0001   -0.0001    0.0008   -0.0006
   142 O7     3d0        0.0101    0.0015   -0.0046    0.0017   -0.0012   -0.0005    0.0004    0.0028   -0.0018    0.0008
   143 O7     3d1+       0.0013    0.0004   -0.0001   -0.0005    0.0001   -0.0000    0.0002    0.0007   -0.0007    0.0005
   144 O7     3d2+       0.0064    0.0016   -0.0054   -0.0001    0.0027   -0.0041   -0.0010   -0.0024    0.0006    0.0021
   145 O8     1s        -0.0008    0.0028    0.0003    0.0032    0.0025   -0.0027    0.0135    0.0010    0.0142    0.0154
   146 O8     2s         0.0507   -0.3096   -0.0117    0.1840    0.0892   -0.1000    0.3464    0.0164    0.2397    0.2599
   147 O8     3s         0.0004   -0.0093   -0.0001    0.0151    0.0084   -0.0116    0.0429    0.0037    0.0407    0.0438
   148 O8     4s        -0.0003   -0.0001   -0.0001    0.0024    0.0009   -0.0026    0.0082    0.0009    0.0082    0.0094
   149 O8     2px       -0.0051    0.0145   -0.0033    0.0119    0.0175   -0.0029    0.1338   -0.0123    0.1181    0.1892
   150 O8     3px        0.0017   -0.0004    0.0004   -0.0029   -0.0030    0.0003   -0.0195    0.0025   -0.0127   -0.0177
   151 O8     4px        0.0005   -0.0010    0.0006    0.0006   -0.0004   -0.0010   -0.0021    0.0009   -0.0014   -0.0024
   152 O8     2py       -0.0089    0.0315   -0.0001    0.0281    0.0194   -0.0247    0.1833    0.0130    0.2246    0.2918
   153 O8     3py       -0.0007   -0.0021   -0.0021   -0.0090   -0.0087    0.0026   -0.0286   -0.0004   -0.0263   -0.0293
   154 O8     4py       -0.0003   -0.0017   -0.0006   -0.0002   -0.0005   -0.0001   -0.0028    0.0002   -0.0032   -0.0042
   155 O8     2pz        0.0002    0.0184    0.0108    0.0203   -0.0113   -0.0438   -0.0291    0.0479    0.1178    0.0394
   156 O8     3pz        0.0001   -0.0066   -0.0007   -0.0059   -0.0055   -0.0012    0.0031   -0.0073   -0.0131   -0.0067
   157 O8     4pz        0.0001   -0.0024   -0.0001    0.0000    0.0007    0.0002    0.0003   -0.0014   -0.0019   -0.0019
   158 O8     3d2-       0.0012   -0.0052    0.0002    0.0007   -0.0007   -0.0003   -0.0094    0.0006   -0.0087   -0.0144
   159 O8     3d1-       0.0001   -0.0039   -0.0015   -0.0013    0.0017    0.0043    0.0029   -0.0041   -0.0090   -0.0034
[...]
AIVX     1  Mu1.0001  In1.022 Se1.047               0.21359114      0.00201464     -0.00389599     -0.00000785
AIVX     1  Mu1.0001  In1.023 Se1.047               0.27543849     -0.00004431      0.00012511     -0.00000001
AIVX     1  Mu1.0001  In1.024 Se1.047               0.25208198      0.00000135      0.00011413      0.00000000
AIVX     1  Mu1.0001  In1.025 Se1.047               0.23934000      0.00113644     -0.00188745     -0.00000214
AIVX     1  Mu1.0001  In1.026 Se1.047               0.15421717      0.00077921     -0.00171841     -0.00000134
AIVX     1  Mu1.0001  In1.027 Se1.047               0.06932279      0.00208540     -0.00440501     -0.00000919
AIVX     1  Mu1.0001  In1.028 Se1.047               0.10874712      0.00109669     -0.00278844     -0.00000306
AIVX     1  Mu1.0001  In1.029 Se1.047               0.09556578     -0.00072903      0.00141784     -0.00000103
AIVX     1  Mu1.0001  In1.022 Se1.048               0.22560044     -0.00142482      0.00327367     -0.00000466
AIVX     1  Mu1.0001  In1.023 Se1.048               0.28744779     -0.00012579      0.00013408     -0.00000002
AIVX     1  Mu1.0001  In1.024 Se1.048               0.26409127     -0.00019261     -0.00050049      0.00000010
AIVX     1  Mu1.0001  In1.025 Se1.048               0.25134929     -0.00162679      0.00266163     -0.00000433
AIVX     1  Mu1.0001  In1.026 Se1.048               0.16622647      0.00069616     -0.00106491     -0.00000074
AIVX     1  Mu1.0001  In1.027 Se1.048               0.08133208      0.00045990     -0.00211394     -0.00000097
AIVX     1  Mu1.0001  In1.028 Se1.048               0.12075641      0.00010856      0.00000313      0.00000000
AIVX     1  Mu1.0001  In1.029 Se1.048               0.10757507      0.00057132     -0.00021448     -0.00000012
AIVX     1  Mu1.0001  In1.022 Se1.049               0.23848151      0.00045787     -0.00085921     -0.00000039
AIVX     1  Mu1.0001  In1.024 Se1.049               0.27697234      0.00042386     -0.00078848     -0.00000033
AIVX     1  Mu1.0001  In1.025 Se1.049               0.26423036      0.00011236     -0.00029795     -0.00000003
AIVX     1  Mu1.0001  In1.026 Se1.049               0.17910754     -0.00349427      0.00654932     -0.00002289
AIVX     1  Mu1.0001  In1.027 Se1.049               0.09421315     -0.00177771      0.00383970     -0.00000683
AIVX     1  Mu1.0001  In1.028 Se1.049               0.13363748      0.00027530     -0.00107616     -0.00000030
AIVX     1  Mu1.0001  In1.029 Se1.049               0.12045614      0.00052729     -0.00123763     -0.00000065
AIVX     1  Mu1.0001  In1.022 Se1.050               0.24649185     -0.00095754      0.00200112     -0.00000192
AIVX     1  Mu1.0001  In1.024 Se1.050               0.28498268     -0.00157900      0.00211414     -0.00000334
AIVX     1  Mu1.0001  In1.025 Se1.050               0.27224070     -0.00273105      0.00446439     -0.00001219
AIVX     1  Mu1.0001  In1.026 Se1.050               0.18711788      0.00270246     -0.00474839     -0.00001283
AIVX     1  Mu1.0001  In1.027 Se1.050               0.10222349      0.00113837     -0.00280733     -0.00000320
AIVX     1  Mu1.0001  In1.028 Se1.050               0.14164782      0.00021051     -0.00019944     -0.00000004
AIVX     1  Mu1.0001  In1.029 Se1.050               0.12846648      0.00117465     -0.00195402     -0.00000230
AIVX     1  Mu1.0001  In1.022 Se1.051               0.25844152      0.00121063     -0.00181956     -0.00000220
AIVX     1  Mu1.0001  In1.024 Se1.051               0.29693236      0.00064858     -0.00120754     -0.00000078
AIVX     1  Mu1.0001  In1.025 Se1.051               0.28419038      0.00012308     -0.00045873     -0.00000006
AIVX     1  Mu1.0001  In1.026 Se1.051               0.19906755      0.00226919     -0.00396286     -0.00000899
AIVX     1  Mu1.0001  In1.027 Se1.051               0.11417317      0.00116809     -0.00265684     -0.00000310
AIVX     1  Mu1.0001  In1.028 Se1.051               0.15359750      0.00179483     -0.00472185     -0.00000847
AIVX     1  Mu1.0001  In1.029 Se1.051               0.14041616      0.00102271     -0.00185586     -0.00000190
AIVX     1  Mu1.0001  In1.022 Se1.052               0.27799794     -0.00283779      0.00468717     -0.00001330
AIVX     1  Mu1.0001  In1.026 Se1.052               0.21862397      0.00089125     -0.00128757     -0.00000115
AIVX     1  Mu1.0001  In1.027 Se1.052               0.13372959     -0.00069794      0.00101826     -0.00000071
AIVX     1  Mu1.0001  In1.028 Se1.052               0.17315392      0.00035403     -0.00045064     -0.00000016
AIVX     1  Mu1.0001  In1.029 Se1.052               0.15997258      0.00147678     -0.00268744     -0.00000397
AIVX     1  Mu1.0001  In1.022 Se1.053               0.29400103      0.00024861     -0.00041346     -0.00000010
AIVX     1  Mu1.0001  In1.026 Se1.053               0.23462706     -0.00198009      0.00300093     -0.00000594
AIVX     1  Mu1.0001  In1.027 Se1.053               0.14973267     -0.00183931      0.00358382     -0.00000659
AIVX     1  Mu1.0001  In1.028 Se1.053               0.18915700      0.00033417     -0.00089209     -0.00000030
AIVX     1  Mu1.0001  In1.029 Se1.053               0.17597566     -0.00186124      0.00350607     -0.00000653
AIVX     1  Mu1.0001  In1.026 Se1.054               0.25269998     -0.00028797      0.00021677     -0.00000006
AIVX     1  Mu1.0001  In1.027 Se1.054               0.16780560     -0.00146715      0.00253852     -0.00000372
AIVX     1  Mu1.0001  In1.028 Se1.054               0.20722992     -0.00001988     -0.00005564      0.00000000
AIVX     1  Mu1.0001  In1.029 Se1.054               0.19404858     -0.00175772      0.00324427     -0.00000570
AIVX     1  Mu1.0001  In1.026 Se1.055               0.26232865     -0.00081771      0.00053057     -0.00000043
AIVX     1  Mu1.0001  In1.027 Se1.055               0.17743426      0.00120866     -0.00182470     -0.00000221
AIVX     1  Mu1.0001  In1.028 Se1.055               0.21685859     -0.00144025      0.00294767     -0.00000425
AIVX     1  Mu1.0001  In1.029 Se1.055               0.20367725     -0.00116741      0.00168134     -0.00000196
AIVX     1  Mu1.0001  In1.026 Se1.056               0.28269190      0.00025176     -0.00057354     -0.00000014
AIVX     1  Mu1.0001  In1.027 Se1.056               0.19779752      0.00017926     -0.00065912     -0.00000012
AIVX     1  Mu1.0001  In1.028 Se1.056               0.23722185      0.00193920     -0.00393497     -0.00000763
AIVX     1  Mu1.0001  In1.029 Se1.056               0.22404051     -0.00180820      0.00351764     -0.00000636
AIVX     1  Mu1.0001  In1.026 Se1.057               0.29917916     -0.00092240      0.00170475     -0.00000157
AIVX     1  Mu1.0001  In1.027 Se1.057               0.21428478     -0.00283261      0.00499423     -0.00001415
AIVX     1  Mu1.0001  In1.028 Se1.057               0.25370910     -0.00209203      0.00373521     -0.00000781
AIVX     1  Mu1.0001  In1.029 Se1.057               0.24052776     -0.00135959      0.00212487     -0.00000289
AIVX     1  Mu1.0001  In1.027 Se1.058               0.24032558      0.00111109     -0.00123394     -0.00000137
AIVX     1  Mu1.0001  In1.028 Se1.058               0.27974991      0.00026831     -0.00072023     -0.00000019
AIVX     1  Mu1.0001  In1.029 Se1.058               0.26656857     -0.00013711     -0.00034288      0.00000005
AIVX     1  Mu1.0001  In1.027 Se1.059               0.23874535      0.00093298     -0.00124136     -0.00000116
AIVX     1  Mu1.0001  In1.028 Se1.059               0.27816968      0.00130176     -0.00254697     -0.00000332
AIVX     1  Mu1.0001  In1.029 Se1.059               0.26498834     -0.00120860      0.00181773     -0.00000220
AIVX     1  Mu1.0001  In1.027 Se1.060               0.21524690     -0.00030150      0.00025313     -0.00000008
AIVX     1  Mu1.0001  In1.028 Se1.060               0.25467123     -0.00006156      0.00031047     -0.00000002
AIVX     1  Mu1.0001  In1.029 Se1.060               0.24148989      0.00203522     -0.00317554     -0.00000646
AIVX     1  Mu1.0001  In1.027 Se1.061               0.26305513      0.00030783     -0.00036822     -0.00000011
AIVX     1  Mu1.0001  In1.029 Se1.061               0.28929812      0.00080949     -0.00141389     -0.00000114
AIVX     1  Mu1.0001  In1.027 Se1.062               0.29739733     -0.00384813      0.00600898     -0.00002312
AIVX     1  Mu1.0001  In1.027 Se1.063               0.27264719      0.00304370     -0.00462617     -0.00001408
AIVX     1  Mu1.0001  In1.029 Se1.063               0.29889018      0.00293907     -0.00470835     -0.00001384
AIVX     1  Mu1.0001  In1.027 Se1.064               0.28298535      0.00062434     -0.00085398     -0.00000053
--
 
   (Skipping property calculation,
    use PROP keyword to activate)
--
 
  Total CASPT2 energies:
::    CASPT2 Root  1     Total energy:   -455.38121866
::    CASPT2 Root  2     Total energy:   -455.16494881
::    CASPT2 Root  3     Total energy:   -455.17621120
::    CASPT2 Root  4     Total energy:   -455.13577202
::    CASPT2 Root  5     Total energy:   -455.08902658
::    CASPT2 Root  6     Total energy:   -455.12524248
::    CASPT2 Root  7     Total energy:   -455.07861072
 
++ Multi-State CASPT2 section:
********************************************************************************
  MULTI-STATE CASPT2 SECTION
--------------------------------------------------------------------------------
 
  Output diagonal energies have been shifted. Add   -455.000000000000     
 
  Effective Hamiltonian matrix (Symmetric):
 
                1               2               3               4               5
   1        -0.38121866
   2        -0.00057397     -0.16494881
   3        -0.00044971     -0.00020211     -0.17621120
   4         0.00942954      0.00061514      0.00043226     -0.13577202
   5        -0.00899955      0.00108783      0.00055549      0.00380844     -0.08902658
   6         0.01712116      0.00153729      0.00055339     -0.00096133      0.01365954
   7         0.01102838     -0.00005898      0.00074428     -0.01213083      0.00564637
 
                6               7
   6        -0.12524248
   7        -0.00735989     -0.07861072
 
       Total MS-CASPT2 energies:
::    MS-CASPT2 Root  1     Total energy:   -455.38355374
::    MS-CASPT2 Root  2     Total energy:   -455.17623405
::    MS-CASPT2 Root  3     Total energy:   -455.16501433
::    MS-CASPT2 Root  4     Total energy:   -455.13878357
::    MS-CASPT2 Root  5     Total energy:   -455.12852581
::    MS-CASPT2 Root  6     Total energy:   -455.08464219
::    MS-CASPT2 Root  7     Total energy:   -455.07427678
 
       Eigenvectors:
            0.99535950     -0.00402783     -0.00609651      0.06906984      0.06285039
            0.00303183      0.02018454      0.99893095      0.02789847      0.02339991
            0.00248094      0.99960003     -0.02088239      0.01549223      0.00490717
           -0.04065078     -0.01268209     -0.02042488      0.92851611     -0.30945553
            0.03489563     -0.00422739     -0.00740318     -0.15203004     -0.27971301
           -0.06913132     -0.01055047     -0.03432622      0.24709990      0.90318839
           -0.03993476     -0.00928053     -0.00366781      0.21885464      0.07567577
 
           -0.01242802      0.01818796
            0.01986092      0.00014997
            0.00644292      0.00720806
            0.10797641     -0.16794552
            0.91251138      0.25432283
            0.33698313     -0.05971595
           -0.20375483      0.95035016
 
--
 
  THE ORIGINAL CI ARRAYS ARE NOW MIXED AS LINEAR
  COMBINATIONS, GIVEN BY THE EIGENVECTORS.
  A NEW JOBIPH FILE NAMED 'JOBMIX' IS PREPARED.
********************************************************************************
 
++ Mixed CI coefficients:
  The CI coefficients for the MIXED state nr.   1
--------------------------------------------------------------------------------
 CI COEFFICIENTS LARGER THAN  0.50D-01
  Occupation of active orbitals, and spin coupling
  of open shells. (u,d: Spin up or down).
  SGUGA info is (Midvert:IsyUp:UpperWalk/LowerWalk)
        Conf  SGUGA info        Occupation    Coefficient         Weight
           1  ( 1:1:   1/   1)   22222200        0.968308       0.937621
           4  ( 1:1:   4/   1)   22222020       -0.105819       0.011198
          61  ( 2:1:   1/   3)   2u2222d0       -0.095214       0.009066
          84  ( 2:1:   4/   4)   u222220d        0.113639       0.012914
         145  ( 3:1:   5/   5)   22022202       -0.087596       0.007673
         171  ( 3:1:   1/   8)   20222220       -0.083381       0.006952
         195  ( 3:1:   5/  10)   02222202       -0.076371       0.005833
 
  The CI coefficients for the MIXED state nr.   2
--------------------------------------------------------------------------------
 CI COEFFICIENTS LARGER THAN  0.50D-01
  Occupation of active orbitals, and spin coupling
  of open shells. (u,d: Spin up or down).
  SGUGA info is (Midvert:IsyUp:UpperWalk/LowerWalk)
        Conf  SGUGA info        Occupation    Coefficient         Weight
          24  ( 2:1:   4/   1)   222u220d        0.950361       0.903187
          25  ( 2:1:   5/   1)   222u2dud       -0.057294       0.003283
          27  ( 2:1:   7/   1)   222u2udd       -0.101249       0.010251
          29  ( 2:1:   9/   1)   222u202d       -0.091146       0.008308
         115  ( 3:1:   5/   2)   22ud2202        0.175824       0.030914
         135  ( 3:1:   5/   4)   u22d2202       -0.127280       0.016200
         207  ( 4:1:   1/   2)   2u2u22dd        0.076664       0.005877
         208  ( 4:1:   2/   2)   2u2u2d2d        0.052783       0.002786
         261  ( 5:1:   1/   7)   202u222d        0.089997       0.008100
 
  The CI coefficients for the MIXED state nr.   3
--------------------------------------------------------------------------------
 CI COEFFICIENTS LARGER THAN  0.50D-01
  Occupation of active orbitals, and spin coupling
  of open shells. (u,d: Spin up or down).
  SGUGA info is (Midvert:IsyUp:UpperWalk/LowerWalk)
        Conf  SGUGA info        Occupation    Coefficient         Weight
           2  ( 1:1:   2/   1)   22222ud0        0.074836       0.005600
           3  ( 1:1:   3/   1)   2222u2d0       -0.957610       0.917017
           5  ( 1:1:   5/   1)   2222ud20       -0.123743       0.015312
          63  ( 2:1:   3/   3)   2u22d220       -0.158769       0.025207
          86  ( 2:1:   6/   4)   u222d2ud       -0.058219       0.003389
          88  ( 2:1:   8/   4)   u222u2dd       -0.095919       0.009200
         147  ( 3:1:   7/   5)   2202u2d2        0.086172       0.007426
         167  ( 3:1:   7/   7)   u2d2u2d2       -0.055075       0.003033
         197  ( 3:1:   7/  10)   0222u2d2        0.078462       0.006156
 
  The CI coefficients for the MIXED state nr.   4
--------------------------------------------------------------------------------
 CI COEFFICIENTS LARGER THAN  0.50D-01
  Occupation of active orbitals, and spin coupling
  of open shells. (u,d: Spin up or down).
  SGUGA info is (Midvert:IsyUp:UpperWalk/LowerWalk)
        Conf  SGUGA info        Occupation    Coefficient         Weight
           2  ( 1:1:   2/   1)   22222ud0       -0.415408       0.172564
           3  ( 1:1:   3/   1)   2222u2d0       -0.054486       0.002969
           4  ( 1:1:   4/   1)   22222020        0.074909       0.005611
           7  ( 1:1:   7/   1)   22222u0d        0.193377       0.037394
           8  ( 1:1:   8/   1)   2222u20d       -0.347988       0.121096
          44  ( 2:1:   4/   2)   22u2220d       -0.740398       0.548189
          47  ( 2:1:   7/   2)   22u22udd        0.089024       0.007925
          49  ( 2:1:   9/   2)   22u2202d        0.078223       0.006119
          61  ( 2:1:   1/   3)   2u2222d0        0.053631       0.002876
          62  ( 2:1:   2/   3)   2u222d20       -0.115077       0.013243
          84  ( 2:1:   4/   4)   u222220d       -0.072890       0.005313
         165  ( 3:1:   5/   7)   u2d22202        0.178233       0.031767
         195  ( 3:1:   5/  10)   02222202       -0.055625       0.003094
         219  ( 4:1:   1/   4)   2uu222dd       -0.071975       0.005180
         293  ( 5:1:   1/  15)   20u2222d       -0.069383       0.004814
 
  The CI coefficients for the MIXED state nr.   5
--------------------------------------------------------------------------------
 CI COEFFICIENTS LARGER THAN  0.50D-01
  Occupation of active orbitals, and spin coupling
  of open shells. (u,d: Spin up or down).
  SGUGA info is (Midvert:IsyUp:UpperWalk/LowerWalk)
        Conf  SGUGA info        Occupation    Coefficient         Weight
           2  ( 1:1:   2/   1)   22222ud0       -0.829192       0.687559
           3  ( 1:1:   3/   1)   2222u2d0       -0.056554       0.003198
           4  ( 1:1:   4/   1)   22222020        0.119797       0.014351
           7  ( 1:1:   7/   1)   22222u0d       -0.099305       0.009861
           8  ( 1:1:   8/   1)   2222u20d        0.174004       0.030277
          44  ( 2:1:   4/   2)   22u2220d        0.380859       0.145053
          62  ( 2:1:   2/   3)   2u222d20       -0.232447       0.054032
          85  ( 2:1:   5/   4)   u2222dud       -0.056049       0.003141
          87  ( 2:1:   7/   4)   u2222udd       -0.093880       0.008813
         146  ( 3:1:   6/   5)   22022ud2        0.077984       0.006081
         165  ( 3:1:   5/   7)   u2d22202       -0.095452       0.009111
         171  ( 3:1:   1/   8)   20222220       -0.081134       0.006583
         196  ( 3:1:   6/  10)   02222ud2        0.063526       0.004036
 
  The CI coefficients for the MIXED state nr.   6
--------------------------------------------------------------------------------
 CI COEFFICIENTS LARGER THAN  0.50D-01
  Occupation of active orbitals, and spin coupling
  of open shells. (u,d: Spin up or down).
  SGUGA info is (Midvert:IsyUp:UpperWalk/LowerWalk)
        Conf  SGUGA info        Occupation    Coefficient         Weight
           7  ( 1:1:   7/   1)   22222u0d        0.927143       0.859595
          44  ( 2:1:   4/   2)   22u2220d        0.223546       0.049973
          53  ( 2:1:  13/   2)   22u22d02       -0.054266       0.002945
          65  ( 2:1:   5/   3)   2u222dud        0.164625       0.027101
          67  ( 2:1:   7/   3)   2u222udd        0.169110       0.028598
         173  ( 3:1:   3/   8)   20222u2d        0.126243       0.015937
 
  The CI coefficients for the MIXED state nr.   7
--------------------------------------------------------------------------------
 CI COEFFICIENTS LARGER THAN  0.50D-01
  Occupation of active orbitals, and spin coupling
  of open shells. (u,d: Spin up or down).
  SGUGA info is (Midvert:IsyUp:UpperWalk/LowerWalk)
        Conf  SGUGA info        Occupation    Coefficient         Weight
           7  ( 1:1:   7/   1)   22222u0d        0.069187       0.004787
           8  ( 1:1:   8/   1)   2222u20d        0.852875       0.727396
          10  ( 1:1:  10/   1)   2222udud        0.170681       0.029132
          12  ( 1:1:  12/   1)   2222uudd        0.250162       0.062581
          44  ( 2:1:   4/   2)   22u2220d       -0.371209       0.137796
          54  ( 2:1:  14/   2)   22u2d202       -0.055102       0.003036
          71  ( 2:1:  11/   3)   2u22ud2d       -0.063353       0.004014
         165  ( 3:1:   5/   7)   u2d22202        0.087362       0.007632
         174  ( 3:1:   4/   8)   2022u22d        0.075446       0.005692
 
--
 
--- Stop Module: caspt2 at Tue Jun 10 22:50:00 2025 /rc=_RC_ALL_IS_WELL_ ---
*** files: xmldump
    saved to directory /home/pcaah4/diamide_project
--- Module caspt2 spent 7 minutes 3 seconds ---

.##################.
.# Happy landing! #.
.##################.

    Timing: Wall=690.55 User=599.51 System=81.17
******************************************************
*** WorkDir at /srv/COMMUNAL_SCRATCH/12508 cleaned ***
******************************************************
