   This run of MOLCAS is using the pymolcas driver

                             OPE
                             OPE          NMOL  CASOP  ENMOLC A   SO
                 OPE        NMOLC        AS  OP EN  MO LC     AS  OP
                OPENM       OL CA        SO  PE NM  OL CA     SOP EN
                OP EN      MO   LC       AS  OP ENMOL  CASO   PENMOL
                OP  EN     MO   LC       AS  OP EN     MO     LC ASO
               OP   E  NMOL  C  AS       OP  EN MO     LC     AS  OP
               OP  E   NMO   LC AS        OPEN  MO     LCASOP EN   M
               O  PEN   MO  LCA  SO
            OPE   NMO   L   CAS    OP
        OPENMOL  CASOP     ENMOL   CASOPE
     OPENMOLCA   SOPENMOLCASOPEN   MOLCASOPE
    OPENMOLCAS   OP           EN   MOL    CAS
    OPENMOLCAS       OP  ENM        O     LCA
    OPENMOLCAS    OPEN  MOLCASO     P  E  NMO
    OPENMOLCAS     OP               E  N  MOL
    OPENMOLCA   SO           PENM   O  L  CAS    OPEN    MO    LCAS
    OPENMOLCA   SOP           ENM   O  L  CAS   OP  EN  MOLC  AS   O
    OPENMOLCA   SOPE           NM      O  LCA   S      OP  EN MO
    OPENMOLC                AS         O  PEN   M      OL  CA  SOPE
    OPENMO        LCASOPE  NMOL        C  ASO   P      ENMOLC     AS
    OPE     NMO      LCA  SO     P     E   NM   OL  CA SO  PE N   MO
          OPENMOLCA            SOPE   NMO        LCAS  O    P  ENMO
     OPENMOLCASOPENMOLCASOPENMOLCASOPENMOLCA
        OPENMOLCASOPENMOLCASOPENMOLCASOPE
            OPENMOLCASOPENMOLCASOPENM
               OPENMOLCASOPENMOLCA        version: v23.06
                   OPENMOLCASO
                       OPE                tag:

 OpenMolcas is free software; you can redistribute it and/or modify it
 under the terms of the GNU Lesser General Public License version 2.1.
 OpenMolcas is distributed in the hope that it will be useful, but it
 is provided "as is" and without any express or implied warranties.
 For more details see the full text of the license in the file
 LICENSE or in <http://www.gnu.org/licenses/>.

                 Copyright (C) The OpenMolcas Authors
           For the author list and the recommended citation,
                   consult the file CONTRIBUTORS.md

           *************************************************
           * pymolcas version py2.24                       *
           *   build 4567b286dd94b1984b333a4ddf893180      *
           *   (after the EMIL interpreter by V. Veryazov) *
           *************************************************

configuration info
------------------
Host name: loginchem01.nottingham.ac.uk (Linux)
C Compiler ID: Intel
C flags: -std=gnu99 -gcc-sys -qopenmp
Fortran Compiler ID: Intel
Fortran flags: -fpp -i8 -heap-arrays -qopenmp
Definitions: _MOLCAS_;_I8_;_LINUX_
Parallel: OFF (GA=OFF)


   ---------------------------------------------------------------------------------------------------
  |
  |              Project: orca_geometry_optimisation_255_30_BP86_def2-SVP_def2J_scf_cas1_ras12i11_cas8
  |       Submitted from: /home/pcaah4/diamide_project
  |         Scratch area: /srv/COMMUNAL_SCRATCH/12417
  |      Save outputs to: /home/pcaah4/diamide_project
  |               Molcas: /software/chemistry/openmolcas/openmolcas-23.06-openmp
  |
  | Scratch area is empty
  |
  |       MOLCAS_DRIVER = /software/chemistry/openmolcas/openmolcas-23.06-openmp/sbin/pymolcas
  | MOLCAS_KEEP_WORKDIR = NO
  |       MOLCAS_NPROCS = 1
  |       MOLCAS_SOURCE = /software/chemistry/openmolcas/openmolcas-23.06-openmp
  |    MOLCAS_STRUCTURE = 0
  |
   ---------------------------------------------------------------------------------------------------

++ ---------   Input file   ---------

&SEWARD
TITLE
orca_geometry_optimisation_255_30_BP86_def2-SVP_def2J_scf_cas1_ras12i11
MULTIPOLES
2
SDIPOLE
ANGMOM
0 0 0
BASIS SET
C.ANO-S...4S3P1D.
C1            0.422678    0.003918   -0.142641 /Angstrom
C3            2.827420    0.714115    0.051355 /Angstrom
C4            3.578661    1.350883   -1.157397 /Angstrom
C6            3.125392    1.424816   -3.697199 /Angstrom
C19          -0.489489   -1.211215   -0.305636 /Angstrom
END OF BASIS
BASIS SET
N.ANO-S...4S3P1D.
N2            1.775242   -0.265705   -0.243204 /Angstrom
N5            2.636477    1.399001   -2.316624 /Angstrom
END OF BASIS
BASIS SET
O.ANO-S...4S3P1D.
O7           -0.016198    1.130180    0.080721 /Angstrom
O8            2.778239    2.598176   -1.586239 /Angstrom
END OF BASIS
BASIS SET
H.ANO-S...2S1P.
H9           -0.851175   -1.521829    0.696470 /Angstrom
H10          -1.379345   -0.915741   -0.893326 /Angstrom
H11          -0.002296   -2.082888   -0.786920 /Angstrom
H12           2.058547   -1.236895   -0.384738 /Angstrom
H13           2.353754    1.529084    0.640037 /Angstrom
H14           3.584616    0.215793    0.690778 /Angstrom
H15           1.672549    1.024051   -2.198165 /Angstrom
H16           3.093982    0.392436   -4.099647 /Angstrom
H17           2.484721    2.092640   -4.306322 /Angstrom
H18           4.167670    1.786634   -3.665150 /Angstrom
END OF BASIS
END OF INPUT

&RASSCF
TITLE
orca_geometry_optimisation_255_30_BP86_def2-SVP_def2J_scf_cas1_ras12i11
LUMORB
SPIN
1
SYMMETRY
1
NACTEL
12  0  0
INACTIVE
29
DELETED  ! delete Rydberg orbitals from an initial CAS(12,11) if done
3
FROZEN
0
RAS2
8
ITERATIONS
64 25
CIROOT
7 7
1 2 3 4 5 6 7
1 1 1 1 1 1 1
LEVSHFT
0.3
CIMX
20
FILEorb = /home/pcaah4/diamide_project/cas/ras12i11/ras_orb/orca_geometry_optimisation_255_30_BP86_def2-SVP_def2J_scf_cas1_ras12i11.RasOrb
ALTEr
0
END OF INPUT

&RASSI
NROF JOBIPH
    1 7
    1 2 3 5 4 6 7
TOFILE
TRDI
TDMN
1.0D-6
END OF INPUT

&CASPT2
TITLE
orca_geometry_optimisation_255_30_BP86_def2-SVP_def2J_scf_cas1_ras12i11
MULTISTATE
7 1 2 3 4 5 6 7
SHIFT
0.35
MAXITER
50
END OF INPUT

-- ----------------------------------

--- Start Module: seward at Tue Jun 10 18:52:40 2025 ---
 
()()()()()()()()()()()()()()()()()()()()()()()()()()()()()()()()()()()()()()()()()()()()()()()()()()

                                              &SEWARD

                                   only a single process is used
                       available to each process: 2.0 GB of memory, 1 thread
                                            pid: 3123953
()()()()()()()()()()()()()()()()()()()()()()()()()()()()()()()()()()()()()()()()()()()()()()()()()()
 
               SEWARD will generate:
                  Multipole Moment integrals up to order  2
                  Kinetic Energy integrals
                  Nuclear Attraction integrals (point charge)
                  One-Electron Hamiltonian integrals
                  Velocity integrals
                  Orbital angular momentum around ( 0.0000  0.0000  0.0000 )
                  Velocity quadrupole around ( 3.4410  1.5136 -1.9956 )
                  Two-Electron Repulsion integrals
 
 Title:
            orca_geometry_optimisation_255_30_BP86_def2-SVP_def2J_scf_cas1_ras12i11     
 
 
                   Integrals are discarded if absolute value <: 0.10E-13
                   Integral cutoff threshold is set to       <: 0.10E-15
 
++    Symmetry information:
      ---------------------
 
                    Character Table for C1 
 
                             E  
                    a        1  x, y, xy, Rz, z, xz, Ry, yz, Rx, I
--
 
 
++    Basis set information:
      ----------------------
 
 
      Basis set label: C.ANO-S...4S3P1D......
 
      Electronic valence basis set:
      ------------------
      Associated Effective Charge   6.000000 au
      Associated Actual Charge      6.000000 au
      Nuclear Model: Point charge
 
      Shell  nPrim  nBasis  Cartesian Spherical Contaminant
         s      10       4        X                  
         p       6       3        X                  
         d       3       1                 X         
 
 
      Basis set label: N.ANO-S...4S3P1D......
 
      Electronic valence basis set:
      ------------------
      Associated Effective Charge   7.000000 au
      Associated Actual Charge      7.000000 au
      Nuclear Model: Point charge
 
      Shell  nPrim  nBasis  Cartesian Spherical Contaminant
         s      10       4        X                  
         p       6       3        X                  
         d       3       1                 X         
 
 
      Basis set label: O.ANO-S...4S3P1D......
 
      Electronic valence basis set:
      ------------------
      Associated Effective Charge   8.000000 au
      Associated Actual Charge      8.000000 au
      Nuclear Model: Point charge
 
      Shell  nPrim  nBasis  Cartesian Spherical Contaminant
         s      10       4        X                  
         p       6       3        X                  
         d       3       1                 X         
 
 
      Basis set label: H.ANO-S...2S1P......
 
      Electronic valence basis set:
      ------------------
      Associated Effective Charge   1.000000 au
      Associated Actual Charge      1.000000 au
      Nuclear Model: Point charge
 
      Shell  nPrim  nBasis  Cartesian Spherical Contaminant
         s       7       2        X                  
         p       3       1        X                  
--
 
 
++    Molecular structure info:
      -------------------------
 
                    ************************************************ 
                    **** Cartesian Coordinates / Bohr, Angstrom **** 
                    ************************************************ 
 
     Center  Label                x              y              z                     x              y              z
        1      C1               0.798746       0.007404      -0.269552              0.422678       0.003918      -0.142641
        2      C3               5.343049       1.349482       0.097047              2.827420       0.714115       0.051355
        3      C4               6.762689       2.552799      -2.187163              3.578661       1.350883      -1.157397
        4      C6               5.906135       2.692512      -6.986694              3.125392       1.424816      -3.697199
        5      C19             -0.925000      -2.288865      -0.577568             -0.489489      -1.211215      -0.305636
        6      N2               3.354721      -0.502110      -0.459589              1.775242      -0.265705      -0.243204
        7      N5               4.982219       2.643729      -4.377785              2.636477       1.399001      -2.316624
        8      O7              -0.030610       2.135731       0.152541             -0.016198       1.130180       0.080721
        9      O8               5.250111       4.909841      -2.997557              2.778239       2.598176      -1.586239
       10      H9              -1.608488      -2.875840       1.316138             -0.851175      -1.521829       0.696470
       11      H10             -2.606584      -1.730500      -1.688141             -1.379345      -0.915741      -0.893326
       12      H11             -0.004339      -3.936088      -1.487063             -0.002296      -2.082888      -0.786920
       13      H12              3.890090      -2.337393      -0.727049              2.058547      -1.236895      -0.384738
       14      H13              4.447950       2.889550       1.209495              2.353754       1.529084       0.640037
       15      H14              6.773943       0.407790       1.305381              3.584616       0.215793       0.690778
       16      H15              3.160660       1.935176      -4.153930              1.672549       1.024051      -2.198165
       17      H16              5.846779       0.741597      -7.747210              3.093982       0.392436      -4.099647
       18      H17              4.695442       3.954516      -8.137769              2.484721       2.092640      -4.306322
       19      H18              7.875755       3.376249      -6.926130              4.167670       1.786634      -3.665150
 
                    ************************************************* 
                    **** InterNuclear Distances / Bohr, Angstrom **** 
                    ************************************************* 
 
     Atom centers         Bohr        Angstrom
   13 H12       6 N2      1.930393        1.021520
   16 H15       7 N5      1.967292        1.041046
   19 H18       4 C6      2.085801        1.103759
   11 H10       5 C19     2.091141        1.106584
   18 H17       4 C6      2.093659        1.107917
   17 H16       4 C6      2.094750        1.108494
   12 H11       5 C19     2.094789        1.108515
   15 H14       2 C3      2.096261        1.109294
   10 H9        5 C19     2.097097        1.109736
   14 H13       2 C3      2.100132        1.111342
    8 O7        1 C1      2.322879        1.229215
    6 N2        1 C1      2.613184        1.382837
    9 O8        7 N5      2.666844        1.411233
    7 N5        4 C6      2.768105        1.464818
    6 N2        2 C3      2.773388        1.467614
    7 N5        3 C4      2.824387        1.494601
    5 C19       1 C1      2.887737        1.528124
    9 O8        3 C4      2.915524        1.542829
    3 C4        2 C3      2.946348        1.559140
   11 H10      10 H9      3.366555        1.781504
   12 H11      10 H9      3.399317        1.798841
   15 H14      14 H13     3.402729        1.800647
   12 H11      11 H10     3.417124        1.808264
   19 H18      17 H16     3.425246        1.812562
   18 H17      17 H16     3.435253        1.817858
   19 H18      18 H17     3.452079        1.826762
   16 H15       9 O8      3.814661        2.018632
   13 H12       1 C1      3.906889        2.067437
   19 H18       7 N5      3.924690        2.076857
   14 H13       6 N2      3.935015        2.082320
   15 H14       6 N2      3.953999        2.092366
   17 H16       7 N5      3.964668        2.098012
   18 H17       7 N5      3.992228        2.112596
   16 H15       4 C6      4.016932        2.125669
   13 H12       2 C3      4.047625        2.141911
   10 H9        1 C1      4.077043        2.157478
   11 H10       1 C1      4.077864        2.157913
   15 H14       3 C4      4.098665        2.168920
   14 H13       3 C4      4.124161        2.182412
   16 H15       3 C4      4.150210        2.196197
   12 H11       1 C1      4.204570        2.224962
   13 H12      12 H11     4.277853        2.263742
    8 O7        6 N2      4.335132        2.294053
   16 H15       6 N2      4.430144        2.344331
   15 H14      13 H12     4.470280        2.365570
    8 O7        5 C19     4.572749        2.419795
    9 O8        4 C6      4.610870        2.439967
    6 N2        5 C19     4.639227        2.454973
   17 H16      16 H15     4.642363        2.456632
   14 H13       8 O7      4.662928        2.467515
    7 N5        2 C3      4.672194        2.472418
    9 O8        2 C3      4.718196        2.496762
   18 H17      16 H15     4.722740        2.499166
   14 H13       9 O8      4.735433        2.505883
    2 C3        1 C1      4.752501        2.514915
   16 H15       2 C3      4.814215        2.547573
   13 H12       5 C19     4.817654        2.549393
    4 C6        3 C4      4.877366        2.580991
   14 H13       1 C1      4.879656        2.582203
    6 N2        3 C4      4.891955        2.588711
   12 H11       6 N2      4.912351        2.599504
   19 H18       3 C4      4.937083        2.612592
   16 H15       1 C1      4.937948        2.613050
   19 H18       9 O8      4.967856        2.628876
   11 H10       8 O7      4.997148        2.644377
   18 H17       9 O8      5.257574        2.782188
    7 N5        6 N2      5.281790        2.795003
   16 H15       8 O7      5.363778        2.838389
   10 H9        8 O7      5.381403        2.847716
    8 O7        2 C3      5.431158        2.874045
   16 H15      13 H12     5.525434        2.923934
   16 H15      14 H13     5.597702        2.962176
   14 H13      13 H12     5.601994        2.964448
   14 H13       7 N5      5.618146        2.972995
   19 H18      16 H15     5.656316        2.993193
--
 
 
            Nuclear Potential Energy            465.03465894 au
 
 
      Basis set specifications :
      Symmetry species         a  
      Basis functions          212
 
 
      Input file to MOLDEN was generated!
 
--- Stop Module: seward at Tue Jun 10 18:54:32 2025 /rc=_RC_ALL_IS_WELL_ ---
*** files: orca_geometry_optimisation_255_30_BP86_def2-SVP_def2J_scf_cas1_ras12i11_cas8.GssOrb
           orca_geometry_optimisation_255_30_BP86_def2-SVP_def2J_scf_cas1_ras12i11_cas8.guessorb.molden xmldump
    saved to directory /home/pcaah4/diamide_project
--- Module seward spent 1 minute 51 seconds ---

*** symbolic link created: INPORB -> orca_geometry_optimisation_255_30_BP86_def2-SVP_def2J_scf_cas1_ras12i11_cas8.GssOrb
--- Start Module: rasscf at Tue Jun 10 18:54:32 2025 ---
 
()()()()()()()()()()()()()()()()()()()()()()()()()()()()()()()()()()()()()()()()()()()()()()()()()()

                                              &RASSCF

                                   only a single process is used
                       available to each process: 2.0 GB of memory, 1 thread
                                            pid: 3123998
()()()()()()()()()()()()()()()()()()()()()()()()()()()()()()()()()()()()()()()()()()()()()()()()()()
 
 
      Header of the ONEINT file:
      --------------------------
      orca_geometry_optimisation_255_30_BP86_def2-SVP_def2J_scf_cas1_ras12i11
      Integrals generated by Gateway/Seward, Tue Jun 10 18:52:41 2025
 
 
      OrdInt status: non-squared
 
 
      Cartesian coordinates in Angstrom:
      -----------------------------------------------------
      No.  Label        X            Y            Z        
      -----------------------------------------------------
       1   C1         0.42267800   0.00391800  -0.14264100
       2   C3         2.82742000   0.71411500   0.05135500
       3   C4         3.57866100   1.35088300  -1.15739700
       4   C6         3.12539200   1.42481600  -3.69719900
       5   C19       -0.48948900  -1.21121500  -0.30563600
       6   N2         1.77524200  -0.26570500  -0.24320400
       7   N5         2.63647700   1.39900100  -2.31662400
       8   O7        -0.01619800   1.13018000   0.08072100
       9   O8         2.77823900   2.59817600  -1.58623900
      10   H9        -0.85117500  -1.52182900   0.69647000
      11   H10       -1.37934500  -0.91574100  -0.89332600
      12   H11       -0.00229600  -2.08288800  -0.78692000
      13   H12        2.05854700  -1.23689500  -0.38473800
      14   H13        2.35375400   1.52908400   0.64003700
      15   H14        3.58461600   0.21579300   0.69077800
      16   H15        1.67254900   1.02405100  -2.19816500
      17   H16        3.09398200   0.39243600  -4.09964700
      18   H17        2.48472100   2.09264000  -4.30632200
      19   H18        4.16767000   1.78663400  -3.66515000
      -----------------------------------------------------
      Nuclear repulsion energy =  465.03465894
 
++    Wave function specifications:
      -----------------------------
 
      Number of closed shell electrons          58
      Number of electrons in active shells      12
      Max number of holes in RAS1 space          0
      Max nr of electrons in RAS3 space          0
      Number of inactive orbitals               29
      Number of active orbitals                  8
      Number of secondary orbitals             172
      Spin quantum number                      0.0
      State symmetry                             1
--
 
++    Orbital specifications:
      -----------------------
 
      Symmetry species                           1
                                                 a
      Frozen orbitals                            0
      Inactive orbitals                         29
      Active orbitals                            8
      RAS1 orbitals                              0
      RAS2 orbitals                              8
      RAS3 orbitals                              0
      Secondary orbitals                       172
      Deleted orbitals                           3
      Number of basis functions                212
--
 
++    CI expansion specifications:
      ----------------------------
 
      Number of CSFs                           336
      Number of determinants                   406
      Number of root(s) required                 7
      Root chosen for geometry opt.              7
      CI roots used                              1     2     3     4     5     6     7
      weights                                0.143 0.143 0.143 0.143 0.143 0.143 0.143
      highest root included in the CI            7
      max. size of the explicit Hamiltonian    200
--
 
++    Optimization specifications:
      ----------------------------
 
      RASSCF algorithm: Conventional
      Maximum number of macro iterations        64
      Maximum number of SX iterations           25
      Threshold for RASSCF energy            0.100E-07
      Threshold for max MO rotation          0.100E+00
      Threshold for max BLB element          0.100E-03
      Level shift parameter                  0.300E+00
      Make Quasi-Newton update
--
 
      The MO-coefficients are taken from the file:
      /home/pcaah4/diamide_project/cas/ras12i11/ras_orb/orca_geometry_optimisation_255_30_BP86_def2-SVP_def2J_scf_cas1_ras12i11.RasOrb                                                                                                                                
      Title: RASSCF average (pseudo-natural) orbitals                                      
 
      Total molecular charge    0.00
 
      ************************************************************************************************************************
      *                                                                                                                      *
      *                                            Wave function control section                                             *
      *                                                                                                                      *
      ************************************************************************************************************************
 
 
                                         RASSCF iterations: Energy and convergence statistics
                                         ----------------------------------------------------
 
      Iter CI   SX   CI       RASSCF       Energy    max ROT     max BLB   max BLB  Level Ln srch  Step   QN   Walltime
          iter iter root      energy       change     param      element    value   shift minimum  type update hh:mm:ss
 Nr of preliminary CI iterations:   4
        1   1   21    0  -453.43242925    0.00E+00   0.70E-01   33  38 1 -0.44E-01*  0.26   0.00    SX    NO    0:00:14
        2   5   25    0  -453.46587953   -0.33E-01*  0.53E-01   33  38 1  0.18E-01*  0.20   0.00    SX    NO    0:00:07
        3   5   11    0  -453.47541071   -0.95E-02*  0.37E-01   37  60 1  0.97E-02*  0.22   0.00    SX    NO    0:00:07
        4   7   27    0  -453.48003721   -0.46E-02* -0.51E-01   33  38 1  0.23E-01*  0.18   0.00    SX    NO    0:00:07
        5   5   27    0  -453.48578265   -0.57E-02*  0.44E-01   37  60 1  0.72E-02*  0.17   1.70    QN   YES    0:00:07
        6   5   11    0  -453.48878963   -0.30E-02* -0.25E-01   33  38 1 -0.81E-02*  0.17   1.11    QN   YES    0:00:07
        7   4   11    0  -453.48958720   -0.80E-03* -0.27E-01   33  38 1 -0.43E-02*  0.17   2.00    QN   YES    0:00:07
        8   5   11    0  -453.49002175   -0.43E-03*  0.13E-01   37  51 1 -0.15E-02*  0.17   1.26    QN   YES    0:00:07
        9   3   10    0  -453.49014293   -0.12E-03* -0.12E-01   37  51 1 -0.89E-03*  0.17   1.50    QN   YES    0:00:07
       10   4    9    0  -453.49019536   -0.52E-04*  0.32E-02   33  38 1  0.72E-03*  0.17   1.12    QN   YES    0:00:07
       11   6    9    0  -453.49021026   -0.15E-04* -0.51E-02   33  38 1  0.34E-03*  0.17   1.84    QN   YES    0:00:07
       12   4    9    0  -453.49022004   -0.98E-05*  0.11E-02   31  39 1 -0.25E-03*  0.17   1.00    QN   YES    0:00:07
       13   3    9    0  -453.49022274   -0.27E-05* -0.15E-02   33  38 1 -0.19E-03*  0.17   1.88    QN   YES    0:00:07
       14   7    8    0  -453.49022468   -0.19E-05*  0.57E-03   32  60 1  0.70E-04   0.17   1.18    QN   YES    0:00:07
       15   3    8    0  -453.49022506   -0.38E-06* -0.51E-03   31  39 1  0.54E-04   0.17   1.53    QN   YES    0:00:07
       16   3    7    0  -453.49022524   -0.18E-06* -0.23E-03   33  38 1  0.30E-04   0.17   1.28    QN   YES    0:00:07
       17   1    7    0  -453.49022528   -0.40E-07*  0.11E-03   25  84 1 -0.13E-04   0.17   1.27    QN   YES    0:00:07
       18   3    6    0  -453.49022529   -0.11E-07* -0.64E-04   33  38 1  0.69E-05   0.17   1.22    QN   YES    0:00:07
       19   3    5    0  -453.49022529   -0.32E-08  -0.21E-04   31  39 1 -0.35E-05   0.17   1.12    QN   YES    0:00:07
      Convergence after 19 iterations
       20   3    5    0  -453.49022529   -0.85E-09  -0.21E-04   30  39 1 -0.12E-05   0.17   1.12    QN   YES    0:00:07
 
      ************************************************************************************************************************
                                                      Wave function printout:
                       occupation of active orbitals, and spin coupling of open shells (u,d: Spin up or down)
      ************************************************************************************************************************
 
      Note: transformation to natural orbitals
      has been made, which may change the order of the CSFs.
 
      printout of CI-coefficients larger than  0.05 for root  1
      energy=    -453.747366
      conf/sym  11111111     Coeff  Weight
             1  22222200   0.97053 0.94194
             6  22220220  -0.07660 0.00587
             8  2222u20d  -0.05483 0.00301
            15  22222002  -0.05659 0.00320
            41  22u222d0  -0.08286 0.00687
            61  2u2222d0   0.07800 0.00608
           155  2ud22202  -0.05741 0.00330
           175  20222202  -0.05645 0.00319
 
      printout of CI-coefficients larger than  0.05 for root  2
      energy=    -453.540747
      conf/sym  11111111     Coeff  Weight
             2  22222ud0  -0.05551 0.00308
             3  2222u2d0   0.19846 0.03939
            21  222u22d0   0.92008 0.84655
            23  222ud220  -0.14351 0.02059
            24  222u220d  -0.20424 0.04171
            35  222u20d2   0.05670 0.00321
           101  22202220   0.05563 0.00310
           111  22ud2220   0.07849 0.00616
           121  2u2d2220  -0.08355 0.00698
           131  u22d2220   0.06524 0.00426
           254  2udu22d2  -0.05812 0.00338
           262  202u22d2  -0.05384 0.00290
 
      printout of CI-coefficients larger than  0.05 for root  3
      energy=    -453.520655
      conf/sym  11111111     Coeff  Weight
             2  22222ud0  -0.29200 0.08527
             7  22222u0d  -0.91247 0.83260
            12  2222uudd   0.05478 0.00300
            14  22220u2d  -0.07656 0.00586
            16  2222ud02   0.06140 0.00377
            44  22u2220d   0.05797 0.00336
            47  22u22udd  -0.07450 0.00555
            53  22u22d02  -0.05298 0.00281
            64  2u22220d   0.05344 0.00286
            65  2u222dud  -0.05644 0.00319
            67  2u222udd   0.06884 0.00474
            84  u222220d  -0.07631 0.00582
           153  2ud22u2d   0.05379 0.00289
           165  u2d22202   0.05489 0.00301
           185  ud222202   0.07626 0.00582
 
      printout of CI-coefficients larger than  0.05 for root  4
      energy=    -453.442676
      conf/sym  11111111     Coeff  Weight
             1  22222200   0.05389 0.00290
             2  22222ud0  -0.73784 0.54441
             3  2222u2d0  -0.48529 0.23550
             4  22222020  -0.05976 0.00357
             5  2222ud20  -0.10972 0.01204
             7  22222u0d   0.24851 0.06176
             8  2222u20d   0.11041 0.01219
            12  2222uudd  -0.05334 0.00285
            21  222u22d0   0.07497 0.00562
            25  222u2dud  -0.09468 0.00896
            27  222u2udd  -0.10049 0.01010
            41  22u222d0  -0.05670 0.00322
            43  22u2d220  -0.08793 0.00773
            61  2u2222d0   0.07651 0.00585
            63  2u22d220   0.08519 0.00726
            65  2u222dud  -0.05892 0.00347
            81  u22222d0   0.15509 0.02405
           156  2ud22ud2   0.05201 0.00270
 
      printout of CI-coefficients larger than  0.05 for root  5
      energy=    -453.403162
      conf/sym  11111111     Coeff  Weight
             2  22222ud0  -0.43610 0.19018
             3  2222u2d0   0.67787 0.45951
             5  2222ud20  -0.05554 0.00309
             7  22222u0d   0.09418 0.00887
            10  2222udud  -0.11194 0.01253
            12  2222uudd  -0.08850 0.00783
            21  222u22d0  -0.17246 0.02974
            22  222u2d20  -0.08185 0.00670
            25  222u2dud  -0.18130 0.03287
            27  222u2udd  -0.15698 0.02464
            33  222u2d02   0.06084 0.00370
            41  22u222d0   0.05794 0.00336
            43  22u2d220   0.10565 0.01116
            61  2u2222d0  -0.06060 0.00367
            63  2u22d220  -0.08981 0.00807
            65  2u222dud  -0.07206 0.00519
            81  u22222d0  -0.13835 0.01914
            84  u222220d   0.32531 0.10583
            93  u2222d02  -0.05047 0.00255
           161  u2d22220  -0.05060 0.00256
           185  ud222202  -0.06001 0.00360
 
      printout of CI-coefficients larger than  0.05 for root  6
      energy=    -453.398269
      conf/sym  11111111     Coeff  Weight
             2  22222ud0   0.12568 0.01579
             3  2222u2d0  -0.15421 0.02378
             7  22222u0d  -0.11628 0.01352
             8  2222u20d   0.38696 0.14973
             9  222220ud  -0.06591 0.00434
            12  2222uudd   0.05201 0.00271
            15  22222002  -0.11717 0.01373
            24  222u220d  -0.09204 0.00847
            25  222u2dud   0.10457 0.01093
            27  222u2udd   0.07973 0.00636
            43  22u2d220  -0.05370 0.00288
            53  22u22d02  -0.09856 0.00971
            73  2u222d02  -0.13945 0.01945
            81  u22222d0   0.32380 0.10484
            84  u222220d   0.72036 0.51892
            92  u222022d  -0.07588 0.00576
            93  u2222d02  -0.08525 0.00727
           162  u2d222ud  -0.08010 0.00642
           165  u2d22202  -0.07527 0.00567
           185  ud222202  -0.13015 0.01694
           225  u2u222dd  -0.05333 0.00284
           231  uu2222dd   0.07366 0.00543
 
      printout of CI-coefficients larger than  0.05 for root  7
      energy=    -453.378702
      conf/sym  11111111     Coeff  Weight
             2  22222ud0   0.25694 0.06602
             3  2222u2d0  -0.13790 0.01902
             4  22222020   0.06506 0.00423
             7  22222u0d  -0.08726 0.00761
             9  222220ud   0.08390 0.00704
            21  222u22d0   0.08499 0.00722
            22  222u2d20  -0.30460 0.09278
            24  222u220d   0.15644 0.02447
            25  222u2dud  -0.67519 0.45588
            27  222u2udd  -0.43850 0.19228
            31  222uud2d   0.11199 0.01254
            33  222u2d02   0.24218 0.05865
            81  u22222d0   0.07562 0.00572
           102  222022ud  -0.05719 0.00327
           202  22uu2d2d   0.05635 0.00318
           208  2u2u2d2d  -0.07126 0.00508
 
      Natural orbitals and occupation numbers for root  1
      sym 1:   1.999920   1.956498   1.976097   1.999742   1.995720   1.993991   0.047984   0.030048
 
      Natural orbitals and occupation numbers for root  2
      sym 1:   1.999910   1.977087   1.999825   0.998128   1.999982   1.993889   1.002065   0.029114
 
      Natural orbitals and occupation numbers for root  3
      sym 1:   1.981093   1.956175   1.985370   1.999706   1.995478   1.046732   0.048480   0.986967
 
      Natural orbitals and occupation numbers for root  4
      sym 1:   1.988115   1.992915   1.965094   1.987569   1.958680   1.124048   0.921813   0.061766
 
      Natural orbitals and occupation numbers for root  5
      sym 1:   1.865770   1.976243   1.968053   1.939826   1.206810   1.882998   0.903168   0.257133
 
      Natural orbitals and occupation numbers for root  6
      sym 1:   1.213448   1.963800   1.977067   1.974387   1.917112   1.816849   0.191704   0.945633
 
      Natural orbitals and occupation numbers for root  7
      sym 1:   1.997374   1.989881   1.993064   1.352600   1.972692   1.163559   0.873524   0.657307
 
      ************************************************************************************************************************
      *                                                                                                                      *
      *                                                    Final results                                                     *
      *                                                                                                                      *
      ************************************************************************************************************************
 
 
++    Wave function specifications:
      -----------------------------
 
      Number of closed shell electrons          58
      Number of electrons in active shells      12
      Max number of holes in RAS1 space          0
      Max nr of electrons in RAS3 space          0
      Number of inactive orbitals               29
      Number of active orbitals                  8
      Number of secondary orbitals             172
      Spin quantum number                      0.0
      State symmetry                             1
--
 
++    Orbital specifications:
      -----------------------
 
      Symmetry species                           1
                                                 a
      Frozen orbitals                            0
      Inactive orbitals                         29
      Active orbitals                            8
      RAS1 orbitals                              0
      RAS2 orbitals                              8
      RAS3 orbitals                              0
      Secondary orbitals                       172
      Deleted orbitals                           3
      Number of basis functions                212
--
 
++    CI expansion specifications:
      ----------------------------
 
      Number of CSFs                           336
      Number of determinants                   406
      Number of root(s) required                 7
      CI roots used                              1     2     3     4     5     6     7
      weights                                0.143 0.143 0.143 0.143 0.143 0.143 0.143
      highest root included in the CI            7
      Root passed to geometry opt.               7
--
 
++    Final optimization conditions:
      ------------------------------
 
      Average CI energy                            -453.49022529
      RASSCF energy for state  7                   -453.37870161
      Super-CI energy                                -0.00000000
      RASSCF energy change                            0.00000000
      Max change in MO coefficients              -0.328E-04
      Max non-diagonal density matrix element    -0.213E-04
      Maximum BLB matrix element                 -0.120E-05
      (orbital pair  30,  39 in symmetry   1)
      Norm of electronic gradient            0.240E+00
--
 
 
      Final state energy(ies):
      ------------------------
 
::    RASSCF root number  1 Total energy:   -453.74736594
::    RASSCF root number  2 Total energy:   -453.54074676
::    RASSCF root number  3 Total energy:   -453.52065534
::    RASSCF root number  4 Total energy:   -453.44267639
::    RASSCF root number  5 Total energy:   -453.40316151
::    RASSCF root number  6 Total energy:   -453.39826949
::    RASSCF root number  7 Total energy:   -453.37870161
 
++    Molecular orbitals:
      -------------------
 
      Pseudonatural active orbitals and approximate occupation numbers
 
 
 
 
      Molecular orbitals for symmetry species 1: a  
 
 
      Orbital                 1         2         3         4         5         6         7         8         9        10
      Energy           -20.6384  -20.5468  -15.7186  -15.5923  -11.3084  -11.2874  -11.2867  -11.2777  -11.2359   -1.4899
      Occ. No.           2.0000    2.0000    2.0000    2.0000    2.0000    2.0000    2.0000    2.0000    2.0000    2.0000
 
     1 C1     1s         0.0000    0.0003   -0.0001    0.0003   -0.0001    0.9999   -0.0005    0.0009    0.0058    0.0023
     2 C1     2s         0.0002    0.0008   -0.0007    0.0012   -0.0004    0.0023    0.0003   -0.0006    0.0001    0.0327
     3 C1     3s         0.0000   -0.0006   -0.0006    0.0005   -0.0003   -0.0000    0.0003   -0.0005    0.0004    0.0198
     4 C1     4s        -0.0000   -0.0004   -0.0002    0.0001   -0.0001    0.0015    0.0001   -0.0002    0.0001    0.0056
     5 C1     2px       -0.0000   -0.0003   -0.0004    0.0016   -0.0002    0.0019    0.0004    0.0002    0.0003    0.0124
     6 C1     3px        0.0000   -0.0000   -0.0003    0.0012   -0.0003    0.0021    0.0006   -0.0000   -0.0004    0.0100
     7 C1     4px        0.0000    0.0001    0.0001   -0.0001   -0.0001    0.0008    0.0001   -0.0002   -0.0003    0.0004
     8 C1     2py       -0.0001    0.0032   -0.0002   -0.0003    0.0001    0.0006    0.0002    0.0002    0.0005    0.0072
     9 C1     3py       -0.0001    0.0024   -0.0004   -0.0002    0.0001    0.0008    0.0003   -0.0001   -0.0003    0.0081
    10 C1     4py       -0.0000   -0.0003   -0.0001    0.0000    0.0000    0.0006    0.0000   -0.0002   -0.0003    0.0025
    11 C1     2pz       -0.0001    0.0005    0.0002   -0.0002   -0.0000   -0.0001    0.0001   -0.0001    0.0002   -0.0011
    12 C1     3pz       -0.0002    0.0003    0.0002   -0.0002   -0.0000   -0.0004    0.0002   -0.0002    0.0002    0.0015
    13 C1     4pz       -0.0000   -0.0001    0.0000   -0.0000    0.0000   -0.0000    0.0001   -0.0001    0.0000    0.0000
    14 C1     3d2-       0.0000    0.0001   -0.0000    0.0002   -0.0000   -0.0003   -0.0000   -0.0000   -0.0001   -0.0006
    15 C1     3d1-       0.0000   -0.0000    0.0000   -0.0000   -0.0000    0.0002    0.0000    0.0000    0.0000   -0.0000
    16 C1     3d0       -0.0000   -0.0000    0.0000    0.0001    0.0000   -0.0003   -0.0000   -0.0001   -0.0001   -0.0009
    17 C1     3d1+       0.0000   -0.0000    0.0000    0.0001   -0.0000   -0.0001    0.0000   -0.0000   -0.0000   -0.0008
    18 C1     3d2+       0.0000    0.0002   -0.0000   -0.0001    0.0000   -0.0002    0.0000    0.0000    0.0000    0.0003
    19 C3     1s        -0.0002    0.0002   -0.0002    0.0003    0.0001   -0.0010    0.0293    0.9990   -0.0000   -0.0027
    20 C3     2s        -0.0015    0.0011   -0.0009    0.0017    0.0001   -0.0004    0.0012   -0.0019   -0.0002    0.0413
    21 C3     3s        -0.0008    0.0007   -0.0004    0.0008   -0.0000   -0.0003    0.0007   -0.0029   -0.0001   -0.0037
    22 C3     4s        -0.0001    0.0001   -0.0001    0.0001   -0.0001   -0.0001    0.0002    0.0005    0.0000   -0.0004
    23 C3     2px       -0.0003   -0.0004   -0.0003   -0.0008   -0.0001    0.0006    0.0007   -0.0002   -0.0004    0.0096
    24 C3     3px       -0.0001   -0.0002   -0.0004   -0.0003   -0.0003    0.0010    0.0016   -0.0003   -0.0005    0.0035
    25 C3     4px        0.0001    0.0001   -0.0001    0.0002   -0.0001    0.0003    0.0008   -0.0006   -0.0001    0.0005
    26 C3     2py       -0.0005    0.0002   -0.0000    0.0000   -0.0002    0.0004    0.0007   -0.0004    0.0002    0.0237
    27 C3     3py       -0.0001    0.0002    0.0000    0.0004   -0.0003    0.0004    0.0007   -0.0001    0.0001    0.0107
    28 C3     4py        0.0002   -0.0000    0.0000    0.0002   -0.0001   -0.0000    0.0001   -0.0004   -0.0000   -0.0010
    29 C3     2pz        0.0000   -0.0002    0.0001   -0.0007   -0.0001   -0.0004   -0.0010    0.0002    0.0001   -0.0230
    30 C3     3pz       -0.0002   -0.0002    0.0000   -0.0005   -0.0001   -0.0006   -0.0007    0.0001    0.0001    0.0089
    31 C3     4pz       -0.0002    0.0000   -0.0000    0.0000   -0.0000   -0.0001    0.0000   -0.0005   -0.0000    0.0012
    32 C3     3d2-       0.0000    0.0000    0.0000    0.0000   -0.0000    0.0000    0.0001   -0.0002   -0.0000    0.0011
    33 C3     3d1-       0.0000    0.0000   -0.0000   -0.0000   -0.0000    0.0000    0.0001   -0.0000    0.0000   -0.0014
    34 C3     3d0       -0.0001    0.0000    0.0000    0.0001    0.0000   -0.0000   -0.0000   -0.0000    0.0000    0.0034
    35 C3     3d1+       0.0000   -0.0000    0.0001   -0.0001   -0.0000   -0.0000    0.0000    0.0000   -0.0000   -0.0027
    36 C3     3d2+       0.0000   -0.0000    0.0000    0.0000   -0.0000    0.0000   -0.0001   -0.0000    0.0000   -0.0008
    37 C4     1s         0.0002    0.0000    0.0004   -0.0002   -0.0004    0.0004    0.9992   -0.0291    0.0000   -0.0207
    38 C4     2s         0.0014    0.0001    0.0018   -0.0012   -0.0003   -0.0010   -0.0016    0.0010    0.0003    0.1649
    39 C4     3s         0.0007    0.0001    0.0008   -0.0008   -0.0002   -0.0009   -0.0030    0.0003    0.0002   -0.0022
    40 C4     4s         0.0000    0.0000    0.0001   -0.0002   -0.0001   -0.0003   -0.0001    0.0000    0.0000    0.0007
    41 C4     2px       -0.0012    0.0000   -0.0007    0.0004   -0.0001   -0.0001   -0.0004   -0.0002    0.0000   -0.0522
    42 C4     3px       -0.0008   -0.0000   -0.0003    0.0002   -0.0002   -0.0001    0.0009   -0.0000    0.0001    0.0333
    43 C4     4px        0.0002   -0.0000    0.0001   -0.0001   -0.0000   -0.0001   -0.0017    0.0001    0.0000   -0.0040
    44 C4     2py        0.0009    0.0000   -0.0003    0.0002   -0.0000    0.0001    0.0009   -0.0003   -0.0001    0.0070
    45 C4     3py        0.0003    0.0000   -0.0002    0.0000   -0.0000    0.0002    0.0003   -0.0000   -0.0001   -0.0046
    46 C4     4py       -0.0002    0.0000    0.0000   -0.0001   -0.0000    0.0001    0.0005    0.0001   -0.0000    0.0053
    47 C4     2pz        0.0003   -0.0000   -0.0005   -0.0000    0.0005   -0.0001   -0.0015    0.0009    0.0002   -0.0773
    48 C4     3pz        0.0003   -0.0001    0.0003    0.0001    0.0009   -0.0002   -0.0013    0.0007    0.0003   -0.0136
    49 C4     4pz       -0.0001   -0.0001    0.0003    0.0001    0.0004   -0.0001   -0.0010    0.0001    0.0001   -0.0075
    50 C4     3d2-      -0.0003    0.0000    0.0001   -0.0000   -0.0000    0.0000   -0.0000    0.0000   -0.0000   -0.0069
    51 C4     3d1-      -0.0002   -0.0000   -0.0000    0.0000    0.0000    0.0000   -0.0001    0.0000   -0.0000   -0.0037
    52 C4     3d0       -0.0002   -0.0000    0.0001    0.0000    0.0001   -0.0000    0.0001   -0.0000   -0.0000    0.0024
    53 C4     3d1+      -0.0000   -0.0000   -0.0000    0.0000    0.0000   -0.0000   -0.0000   -0.0000    0.0000    0.0190
    54 C4     3d2+      -0.0001   -0.0000    0.0000   -0.0000    0.0000   -0.0000   -0.0000   -0.0000   -0.0000    0.0038
    55 C6     1s         0.0000   -0.0001    0.0005   -0.0000    0.9996   -0.0001    0.0003   -0.0000    0.0000   -0.0118
    56 C6     2s         0.0002   -0.0010    0.0029   -0.0000   -0.0004   -0.0006    0.0002    0.0003    0.0003    0.0627
    57 C6     3s         0.0003   -0.0007    0.0017   -0.0000   -0.0020   -0.0005    0.0000    0.0002    0.0002   -0.0181
    58 C6     4s         0.0001   -0.0002    0.0003   -0.0000    0.0008   -0.0002   -0.0001    0.0001    0.0001   -0.0034
    59 C6     2px       -0.0004   -0.0000   -0.0002   -0.0000   -0.0003   -0.0001    0.0002   -0.0002    0.0001   -0.0033
    60 C6     3px       -0.0004   -0.0001    0.0000   -0.0000    0.0001   -0.0001    0.0001   -0.0002    0.0001    0.0107
    61 C6     4px        0.0000   -0.0000    0.0001    0.0000   -0.0002    0.0000   -0.0001    0.0000    0.0000   -0.0019
    62 C6     2py       -0.0003    0.0001    0.0000   -0.0001   -0.0003   -0.0002    0.0001   -0.0002    0.0001    0.0125
    63 C6     3py       -0.0001    0.0000   -0.0002   -0.0001   -0.0001   -0.0002   -0.0000   -0.0002    0.0001    0.0065
    64 C6     4py        0.0001   -0.0000   -0.0001   -0.0000   -0.0000    0.0000   -0.0001    0.0000   -0.0000   -0.0003
    65 C6     2pz       -0.0002   -0.0002    0.0010    0.0000   -0.0002   -0.0003    0.0000    0.0001    0.0001    0.0545
    66 C6     3pz       -0.0000   -0.0002    0.0004   -0.0000   -0.0004   -0.0003   -0.0001    0.0001    0.0001   -0.0035
    67 C6     4pz        0.0001    0.0000   -0.0003   -0.0000    0.0007   -0.0000   -0.0001   -0.0000    0.0000   -0.0003
    68 C6     3d2-       0.0001   -0.0000   -0.0001    0.0000   -0.0000   -0.0000    0.0000   -0.0000   -0.0000   -0.0011
    69 C6     3d1-      -0.0000   -0.0000    0.0001   -0.0000    0.0000   -0.0000    0.0000   -0.0000   -0.0000    0.0009
    70 C6     3d0       -0.0001   -0.0000    0.0000    0.0000   -0.0001   -0.0000    0.0000    0.0000   -0.0000    0.0123
    71 C6     3d1+      -0.0000    0.0000    0.0001    0.0000    0.0001   -0.0000    0.0001   -0.0000    0.0000   -0.0061
    72 C6     3d2+      -0.0001    0.0000   -0.0001    0.0000   -0.0001   -0.0000    0.0000   -0.0000    0.0000    0.0018
    73 C19    1s        -0.0000    0.0002    0.0000   -0.0000    0.0000    0.0057    0.0000    0.0001   -0.9999   -0.0003
    74 C19    2s        -0.0003    0.0011    0.0000   -0.0002    0.0001    0.0005    0.0002    0.0007   -0.0019    0.0016
    75 C19    3s        -0.0003    0.0007   -0.0000   -0.0000    0.0001    0.0002    0.0003    0.0004    0.0004    0.0033
    76 C19    4s        -0.0001    0.0001   -0.0000   -0.0000   -0.0000    0.0001    0.0001    0.0000   -0.0012    0.0020
    77 C19    2px       -0.0001    0.0007    0.0001   -0.0002   -0.0000   -0.0001    0.0002    0.0003    0.0002    0.0036
    78 C19    3px       -0.0001    0.0004    0.0001   -0.0001   -0.0000   -0.0003    0.0002    0.0002    0.0000    0.0037
    79 C19    4px        0.0000   -0.0002   -0.0000   -0.0000   -0.0000   -0.0001    0.0000   -0.0000   -0.0003    0.0004
    80 C19    2py       -0.0000   -0.0001   -0.0001    0.0003   -0.0000    0.0004    0.0002    0.0002    0.0003    0.0034
    81 C19    3py        0.0000   -0.0002   -0.0000    0.0002   -0.0001    0.0001    0.0002    0.0001   -0.0000    0.0029
    82 C19    4py        0.0000   -0.0001    0.0000   -0.0001   -0.0000   -0.0001    0.0000   -0.0001   -0.0003    0.0003
    83 C19    2pz       -0.0001   -0.0001   -0.0002    0.0002   -0.0000    0.0003   -0.0001    0.0002   -0.0000    0.0029
    84 C19    3pz       -0.0001   -0.0001   -0.0002    0.0003   -0.0000    0.0003   -0.0002    0.0002   -0.0001    0.0029
    85 C19    4pz        0.0000    0.0000   -0.0000    0.0000    0.0000   -0.0000   -0.0000   -0.0000   -0.0000   -0.0003
    86 C19    3d2-      -0.0000    0.0000    0.0000   -0.0000   -0.0000    0.0000    0.0000    0.0001    0.0002    0.0005
    87 C19    3d1-       0.0000    0.0000    0.0000    0.0000    0.0000   -0.0000    0.0000    0.0000    0.0000   -0.0001
    88 C19    3d0       -0.0000   -0.0001   -0.0000   -0.0001   -0.0000    0.0001   -0.0000   -0.0000   -0.0001    0.0000
    89 C19    3d1+       0.0000   -0.0000   -0.0000   -0.0000    0.0000    0.0000    0.0000    0.0000    0.0000   -0.0002
    90 C19    3d2+       0.0000    0.0001    0.0000   -0.0000    0.0000   -0.0001   -0.0000   -0.0000   -0.0000   -0.0002
    91 N2     1s        -0.0001    0.0000    0.0000    0.9998    0.0000   -0.0003   -0.0001    0.0001   -0.0001   -0.0010
    92 N2     2s        -0.0006    0.0002    0.0003    0.0000    0.0000   -0.0004   -0.0003    0.0016   -0.0004    0.0200
    93 N2     3s        -0.0005    0.0002    0.0003   -0.0015    0.0000   -0.0005   -0.0000    0.0008   -0.0003    0.0018
    94 N2     4s        -0.0002    0.0000    0.0001    0.0004   -0.0000    0.0000    0.0001    0.0003   -0.0001    0.0005
    95 N2     2px       -0.0003   -0.0002   -0.0002    0.0003   -0.0002   -0.0001    0.0001    0.0009    0.0004    0.0191
    96 N2     3px       -0.0004   -0.0004   -0.0001    0.0004   -0.0004    0.0001    0.0002    0.0006    0.0003    0.0247
    97 N2     4px       -0.0000   -0.0000    0.0001   -0.0000   -0.0001   -0.0002    0.0000   -0.0000   -0.0001    0.0022
    98 N2     2py       -0.0003   -0.0015    0.0002   -0.0008    0.0000    0.0006    0.0002    0.0008    0.0000    0.0052
    99 N2     3py       -0.0003   -0.0018    0.0002   -0.0000    0.0000    0.0007    0.0004    0.0009   -0.0000   -0.0018
   100 N2     4py        0.0000    0.0000   -0.0000    0.0005   -0.0000    0.0000    0.0001    0.0002   -0.0001   -0.0008
   101 N2     2pz        0.0002   -0.0003    0.0000   -0.0001    0.0000    0.0003    0.0003    0.0001    0.0000   -0.0120
   102 N2     3pz        0.0004   -0.0003   -0.0000   -0.0001    0.0001    0.0001    0.0006    0.0000    0.0000   -0.0050
   103 N2     4pz        0.0001    0.0000   -0.0000    0.0001    0.0000   -0.0000    0.0002    0.0000    0.0000   -0.0003
   104 N2     3d2-      -0.0000    0.0001   -0.0000   -0.0002    0.0000   -0.0001   -0.0000   -0.0000    0.0000    0.0008
   105 N2     3d1-       0.0000   -0.0000    0.0000   -0.0000   -0.0000   -0.0000   -0.0000   -0.0000   -0.0000   -0.0004
   106 N2     3d0        0.0000   -0.0000   -0.0000    0.0000   -0.0000    0.0001    0.0001    0.0000    0.0001   -0.0006
   107 N2     3d1+      -0.0000    0.0000    0.0000   -0.0000    0.0000   -0.0000   -0.0000   -0.0000    0.0000   -0.0002
   108 N2     3d2+      -0.0000   -0.0000    0.0000   -0.0001   -0.0000    0.0000    0.0000   -0.0000   -0.0000   -0.0001
   109 N5     1s         0.0003    0.0001    0.9995    0.0001    0.0002    0.0001   -0.0000   -0.0000   -0.0001   -0.0373
   110 N5     2s         0.0020    0.0007   -0.0025    0.0003    0.0019    0.0003    0.0002   -0.0000   -0.0004    0.3865
   111 N5     3s         0.0010    0.0004   -0.0032    0.0002    0.0011    0.0002   -0.0002    0.0001   -0.0002   -0.0797
   112 N5     4s         0.0001    0.0001   -0.0002    0.0001    0.0004    0.0000   -0.0000    0.0000   -0.0000   -0.0224
   113 N5     2px        0.0005    0.0001   -0.0013    0.0001    0.0005    0.0004   -0.0007    0.0000    0.0001    0.0246
   114 N5     3px        0.0005    0.0002   -0.0010    0.0002    0.0008    0.0008   -0.0006    0.0001   -0.0001   -0.0376
   115 N5     4px       -0.0000    0.0001    0.0003    0.0000    0.0002    0.0002    0.0001    0.0001   -0.0001   -0.0073
   116 N5     2py        0.0015   -0.0001   -0.0005    0.0002   -0.0000    0.0002   -0.0007    0.0002   -0.0001    0.0728
   117 N5     3py        0.0004   -0.0001   -0.0006    0.0002    0.0001    0.0004   -0.0007    0.0003   -0.0002   -0.0351
   118 N5     4py       -0.0006   -0.0000    0.0009    0.0000    0.0001    0.0001    0.0001    0.0000   -0.0001    0.0005
   119 N5     2pz        0.0015   -0.0004    0.0003    0.0001   -0.0011   -0.0004    0.0002    0.0003    0.0001    0.0708
   120 N5     3pz        0.0016   -0.0007    0.0005    0.0001   -0.0009   -0.0006    0.0005    0.0004    0.0002   -0.0411
   121 N5     4pz        0.0000   -0.0001    0.0004   -0.0000   -0.0001   -0.0001    0.0003   -0.0001    0.0001   -0.0044
   122 N5     3d2-       0.0000    0.0000    0.0000   -0.0000    0.0000    0.0000    0.0000    0.0000   -0.0000    0.0027
   123 N5     3d1-       0.0002   -0.0000   -0.0002    0.0000   -0.0000    0.0000   -0.0001   -0.0000    0.0000    0.0151
   124 N5     3d0       -0.0001    0.0000   -0.0001   -0.0000   -0.0001   -0.0000   -0.0001    0.0000    0.0000    0.0043
   125 N5     3d1+      -0.0001   -0.0000   -0.0000    0.0000   -0.0000    0.0000   -0.0002   -0.0000    0.0000    0.0078
   126 N5     3d2+      -0.0002    0.0000    0.0002    0.0000   -0.0000    0.0000   -0.0000    0.0000   -0.0000   -0.0102
   127 O7     1s        -0.0000    0.9997    0.0000    0.0000   -0.0000   -0.0002   -0.0000   -0.0000   -0.0000   -0.0007
   128 O7     2s        -0.0001   -0.0014    0.0000    0.0001   -0.0000    0.0004   -0.0002   -0.0002   -0.0002    0.0083
   129 O7     3s        -0.0001   -0.0014    0.0000    0.0000    0.0000   -0.0001   -0.0002   -0.0001   -0.0002   -0.0006
   130 O7     4s        -0.0001    0.0001   -0.0000   -0.0001    0.0000   -0.0000   -0.0001   -0.0000   -0.0000    0.0002
   131 O7     2px       -0.0001    0.0001   -0.0001   -0.0004    0.0001    0.0001   -0.0002   -0.0002   -0.0000    0.0036
   132 O7     3px       -0.0001   -0.0002   -0.0001   -0.0005    0.0001   -0.0003   -0.0003   -0.0002   -0.0001    0.0029
   133 O7     4px       -0.0000    0.0006   -0.0001   -0.0001    0.0000   -0.0001   -0.0000   -0.0000    0.0000    0.0010
   134 O7     2py       -0.0000   -0.0003    0.0000   -0.0001   -0.0000   -0.0008    0.0000    0.0000    0.0002   -0.0012
   135 O7     3py       -0.0000    0.0005    0.0000   -0.0001   -0.0000   -0.0005   -0.0000   -0.0001    0.0002    0.0017
   136 O7     4py       -0.0000   -0.0012   -0.0000    0.0001    0.0000   -0.0003   -0.0000   -0.0000   -0.0000    0.0005
   137 O7     2pz        0.0001   -0.0001    0.0000    0.0000   -0.0000    0.0001    0.0000    0.0000    0.0000   -0.0047
   138 O7     3pz        0.0001    0.0001    0.0001    0.0001   -0.0001    0.0000    0.0001    0.0000   -0.0000   -0.0038
   139 O7     4pz        0.0000   -0.0003    0.0000    0.0000   -0.0000   -0.0000    0.0000    0.0000   -0.0000   -0.0013
   140 O7     3d2-       0.0000    0.0001    0.0000    0.0000   -0.0000   -0.0002    0.0000    0.0000   -0.0000   -0.0003
   141 O7     3d1-       0.0000   -0.0000    0.0000    0.0000   -0.0000    0.0000   -0.0000    0.0000   -0.0000    0.0002
   142 O7     3d0        0.0000    0.0000    0.0000   -0.0000   -0.0000   -0.0001    0.0000   -0.0000    0.0000   -0.0003
   143 O7     3d1+       0.0000    0.0000    0.0000    0.0000   -0.0000   -0.0000    0.0000    0.0000    0.0000   -0.0005
   144 O7     3d2+      -0.0000    0.0001    0.0000   -0.0000   -0.0000   -0.0002   -0.0000    0.0000    0.0000   -0.0002
   145 O8     1s         0.9996    0.0000    0.0002   -0.0000    0.0000   -0.0000    0.0002   -0.0000    0.0000   -0.0143
   146 O8     2s        -0.0030    0.0001    0.0014   -0.0003    0.0001   -0.0001    0.0013   -0.0002    0.0001    0.6018
   147 O8     3s        -0.0024    0.0000    0.0007   -0.0004    0.0002   -0.0001    0.0006   -0.0001    0.0001   -0.0072
   148 O8     4s        -0.0004    0.0000    0.0002   -0.0002    0.0001   -0.0001    0.0002   -0.0000    0.0000   -0.0072
   149 O8     2px       -0.0002   -0.0000   -0.0002    0.0000   -0.0000    0.0000    0.0010    0.0001    0.0000   -0.0344
   150 O8     3px       -0.0002   -0.0001    0.0000    0.0001   -0.0001   -0.0000    0.0002    0.0001    0.0000   -0.0031
   151 O8     4px        0.0001   -0.0000    0.0001   -0.0000   -0.0000   -0.0000    0.0000   -0.0000    0.0000    0.0008
   152 O8     2py        0.0006    0.0000   -0.0007    0.0002   -0.0001   -0.0000   -0.0009   -0.0001    0.0000   -0.0953
   153 O8     3py        0.0013    0.0000   -0.0005    0.0002   -0.0002   -0.0000   -0.0006   -0.0001    0.0000    0.0369
   154 O8     4py       -0.0016    0.0000   -0.0000   -0.0000   -0.0000   -0.0000   -0.0001   -0.0000    0.0000    0.0121
   155 O8     2pz       -0.0002    0.0000   -0.0008   -0.0000   -0.0000    0.0001    0.0004   -0.0000   -0.0001   -0.0758
   156 O8     3pz       -0.0000    0.0000   -0.0004   -0.0001    0.0000    0.0000    0.0000   -0.0001   -0.0001    0.0135
   157 O8     4pz       -0.0006    0.0000    0.0001   -0.0000    0.0001    0.0000   -0.0000   -0.0001   -0.0000    0.0052
   158 O8     3d2-       0.0001   -0.0000    0.0000   -0.0000   -0.0000   -0.0000    0.0001   -0.0000    0.0000   -0.0015
   159 O8     3d1-      -0.0003   -0.0000    0.0000    0.0000    0.0000   -0.0000    0.0000   -0.0000    0.0000    0.0121
   160 O8     3d0        0.0001   -0.0000    0.0001    0.0000    0.0000   -0.0000    0.0001    0.0000    0.0000   -0.0042
   161 O8     3d1+      -0.0002    0.0000    0.0000    0.0000   -0.0000    0.0000   -0.0000   -0.0000    0.0000    0.0029
   162 O8     3d2+       0.0004    0.0000    0.0001    0.0000   -0.0000   -0.0000    0.0000   -0.0000    0.0000   -0.0151
   163 H9     1s         0.0002    0.0003    0.0001   -0.0000   -0.0000    0.0000    0.0003   -0.0002   -0.0003    0.0010
   164 H9     2s         0.0001    0.0002    0.0001   -0.0000   -0.0000    0.0001    0.0002   -0.0001    0.0002    0.0011
   165 H9     2px        0.0000   -0.0000   -0.0000   -0.0000   -0.0000    0.0001    0.0000   -0.0000   -0.0000   -0.0000
   166 H9     2py        0.0000   -0.0000   -0.0000   -0.0000    0.0000    0.0001    0.0000    0.0000   -0.0000    0.0001
   167 H9     2pz       -0.0000   -0.0000   -0.0000   -0.0000    0.0000   -0.0000   -0.0000    0.0000   -0.0001   -0.0002
   168 H10    1s        -0.0001    0.0002    0.0000    0.0002   -0.0001    0.0003    0.0001    0.0000   -0.0004    0.0070
   169 H10    2s        -0.0001    0.0001    0.0000    0.0002   -0.0001    0.0002    0.0001    0.0000    0.0002    0.0045
   170 H10    2px       -0.0000   -0.0000    0.0000    0.0000   -0.0000    0.0001    0.0000   -0.0000    0.0000    0.0007
   171 H10    2py        0.0000   -0.0001    0.0000   -0.0000   -0.0000    0.0000    0.0000   -0.0000   -0.0000   -0.0004
   172 H10    2pz       -0.0000    0.0000    0.0000   -0.0000   -0.0000    0.0001    0.0000    0.0000    0.0000    0.0003
   173 H11    1s        -0.0000   -0.0002   -0.0002    0.0004   -0.0001    0.0004    0.0001    0.0000   -0.0003    0.0062
   174 H11    2s        -0.0000   -0.0001   -0.0001    0.0003   -0.0001    0.0002    0.0001    0.0000    0.0003    0.0043
   175 H11    2px        0.0000   -0.0000    0.0000   -0.0001    0.0000   -0.0000    0.0000    0.0000   -0.0001   -0.0004
   176 H11    2py       -0.0000    0.0000   -0.0000    0.0000   -0.0000    0.0001    0.0000    0.0000    0.0001    0.0006
   177 H11    2pz        0.0000   -0.0000   -0.0000    0.0000   -0.0000    0.0000    0.0000   -0.0000    0.0001    0.0001
   178 H12    1s        -0.0001   -0.0010    0.0002   -0.0007    0.0002    0.0005    0.0004   -0.0002    0.0002   -0.0019
   179 H12    2s        -0.0000   -0.0006    0.0001   -0.0005    0.0001    0.0002    0.0003   -0.0001    0.0001   -0.0030
   180 H12    2px        0.0000    0.0000   -0.0000    0.0001    0.0000   -0.0001   -0.0000    0.0000   -0.0000   -0.0009
   181 H12    2py       -0.0000   -0.0000    0.0000   -0.0005    0.0000    0.0001    0.0000   -0.0000    0.0000    0.0004
   182 H12    2pz       -0.0000    0.0000    0.0000   -0.0000   -0.0000    0.0000    0.0000    0.0000   -0.0000    0.0001
   183 H13    1s         0.0005   -0.0004   -0.0001   -0.0007   -0.0001   -0.0005    0.0001    0.0012   -0.0002    0.0077
   184 H13    2s         0.0003   -0.0002   -0.0001   -0.0004   -0.0001   -0.0003    0.0002    0.0003   -0.0001   -0.0000
   185 H13    2px        0.0000    0.0000   -0.0000    0.0000   -0.0000   -0.0000    0.0001    0.0000   -0.0000    0.0002
   186 H13    2py       -0.0001    0.0000   -0.0000    0.0000    0.0000    0.0000    0.0000   -0.0001    0.0000    0.0010
   187 H13    2pz       -0.0000    0.0000    0.0001    0.0000    0.0000    0.0000   -0.0000   -0.0001    0.0000   -0.0021
   188 H14    1s         0.0005    0.0005    0.0002    0.0002   -0.0001    0.0001    0.0006    0.0008    0.0002    0.0062
   189 H14    2s         0.0004    0.0003    0.0001    0.0002   -0.0001    0.0000    0.0002    0.0001    0.0001   -0.0000
   190 H14    2px       -0.0000   -0.0001    0.0000   -0.0000    0.0000   -0.0000   -0.0001   -0.0000    0.0000   -0.0007
   191 H14    2py        0.0001    0.0000   -0.0000    0.0000   -0.0000   -0.0000    0.0001   -0.0000   -0.0000    0.0000
   192 H14    2pz       -0.0000   -0.0000   -0.0000   -0.0000    0.0000    0.0000   -0.0001    0.0000   -0.0000   -0.0008
   193 H15    1s        -0.0003   -0.0004   -0.0003   -0.0001   -0.0002   -0.0002   -0.0007   -0.0003    0.0006    0.0504
   194 H15    2s        -0.0001   -0.0003   -0.0003   -0.0000   -0.0001   -0.0001   -0.0004   -0.0002    0.0004   -0.0348
   195 H15    2px        0.0001    0.0000   -0.0004    0.0001   -0.0000   -0.0000   -0.0000    0.0000    0.0001    0.0140
   196 H15    2py       -0.0001   -0.0000   -0.0000   -0.0000   -0.0000   -0.0000    0.0000   -0.0000    0.0000    0.0070
   197 H15    2pz       -0.0001   -0.0000    0.0001    0.0000   -0.0001    0.0000    0.0001   -0.0000    0.0000    0.0005
   198 H16    1s        -0.0001    0.0001   -0.0004   -0.0000    0.0003   -0.0002   -0.0003   -0.0001    0.0000    0.0247
   199 H16    2s         0.0000    0.0001   -0.0001   -0.0000   -0.0003   -0.0002   -0.0002   -0.0001   -0.0000    0.0046
   200 H16    2px        0.0000    0.0000   -0.0000    0.0000   -0.0000    0.0000   -0.0000    0.0000   -0.0000   -0.0006
   201 H16    2py       -0.0000    0.0000   -0.0000   -0.0000   -0.0000   -0.0000   -0.0000   -0.0000    0.0000    0.0027
   202 H16    2pz        0.0000    0.0000   -0.0000   -0.0000    0.0000   -0.0000   -0.0001   -0.0000   -0.0000    0.0013
   203 H17    1s        -0.0001   -0.0001   -0.0003    0.0000    0.0006   -0.0001    0.0001    0.0000    0.0000    0.0261
   204 H17    2s        -0.0001   -0.0001   -0.0000    0.0000   -0.0001   -0.0000    0.0001    0.0000    0.0000    0.0040
   205 H17    2px        0.0000   -0.0000   -0.0000    0.0000   -0.0000   -0.0000   -0.0000    0.0000   -0.0000    0.0011
   206 H17    2py       -0.0000    0.0000   -0.0000    0.0000    0.0000    0.0000   -0.0000    0.0000    0.0000   -0.0018
   207 H17    2pz       -0.0000   -0.0000   -0.0000    0.0000    0.0000    0.0000    0.0000    0.0000   -0.0000    0.0024
   208 H18    1s         0.0003    0.0001   -0.0003    0.0001    0.0011    0.0000   -0.0004    0.0003   -0.0000    0.0090
   209 H18    2s         0.0002    0.0001   -0.0001    0.0001    0.0002   -0.0000   -0.0002    0.0002   -0.0000   -0.0064
   210 H18    2px       -0.0000   -0.0000   -0.0000   -0.0000   -0.0002   -0.0000    0.0000   -0.0000    0.0000   -0.0007
   211 H18    2py       -0.0001   -0.0000   -0.0000   -0.0000   -0.0000   -0.0000    0.0000   -0.0000    0.0000    0.0005
   212 H18    2pz       -0.0001   -0.0000    0.0000   -0.0000    0.0000   -0.0000   -0.0000    0.0000    0.0000    0.0003
 
 
      Orbital                11        12        13        14        15        16        17        18        19        20
      Energy            -1.3775   -1.2192   -1.1586   -1.0102   -0.9678   -0.9332   -0.8420   -0.7811   -0.7391   -0.6831
      Occ. No.           2.0000    2.0000    2.0000    2.0000    2.0000    2.0000    2.0000    2.0000    2.0000    2.0000
 
     1 C1     1s        -0.0397   -0.0060    0.0030   -0.0160    0.0041    0.0043    0.0059    0.0146    0.0030    0.0055
     2 C1     2s         0.3519    0.1267    0.0103    0.2197   -0.1257    0.0023   -0.1084   -0.3934   -0.0526   -0.2100
     3 C1     3s        -0.0075    0.0070    0.0126   -0.0246   -0.0029    0.0091    0.0056    0.0010    0.0079    0.0019
     4 C1     4s         0.0013    0.0010    0.0030   -0.0077   -0.0007    0.0022    0.0030    0.0033    0.0024    0.0032
     5 C1     2px       -0.0320    0.1219    0.0040   -0.0159    0.0957   -0.0970   -0.0682   -0.1396   -0.0115    0.1180
     6 C1     3px       -0.0033   -0.0444    0.0122   -0.0496    0.0097    0.0335    0.0141    0.0310    0.0091   -0.0499
     7 C1     4px       -0.0117    0.0209    0.0005   -0.0097    0.0186   -0.0112   -0.0060   -0.0090    0.0005    0.0025
     8 C1     2py        0.0976   -0.0677    0.0055   -0.1368    0.0732   -0.0178    0.0393   -0.0021   -0.0307    0.0758
     9 C1     3py       -0.0753    0.0501    0.0021    0.0028   -0.0358    0.0246    0.0316    0.0044    0.0081   -0.0110
    10 C1     4py        0.0228   -0.0131    0.0011   -0.0215    0.0096   -0.0031    0.0078   -0.0018   -0.0013   -0.0001
    11 C1     2pz        0.0263   -0.0082   -0.0017   -0.0136    0.0071    0.0130    0.0104    0.0032   -0.0245    0.0080
    12 C1     3pz       -0.0093    0.0178   -0.0067    0.0057   -0.0086    0.0218   -0.0018    0.0018   -0.0067    0.0041
    13 C1     4pz        0.0065   -0.0011   -0.0019   -0.0016    0.0007    0.0047   -0.0003   -0.0005   -0.0055    0.0008
    14 C1     3d2-      -0.0247    0.0018    0.0004    0.0033   -0.0117    0.0121    0.0082   -0.0069   -0.0053    0.0084
    15 C1     3d1-       0.0132   -0.0043    0.0003    0.0017   -0.0011    0.0005   -0.0011   -0.0015    0.0009   -0.0048
    16 C1     3d0       -0.0251   -0.0059    0.0001   -0.0094    0.0028    0.0023    0.0049    0.0128    0.0028    0.0035
    17 C1     3d1+      -0.0056   -0.0006   -0.0001   -0.0002   -0.0006    0.0030    0.0028    0.0022   -0.0038    0.0012
    18 C1     3d2+      -0.0217    0.0296   -0.0007    0.0074    0.0044   -0.0094   -0.0049   -0.0148   -0.0034    0.0156
    19 C3     1s        -0.0084   -0.0322    0.0029    0.0361   -0.0007   -0.0279   -0.0157    0.0031    0.0074    0.0046
    20 C3     2s         0.0192    0.1755   -0.0249   -0.3059   -0.0512    0.3111    0.2181   -0.0740   -0.1177   -0.0498
    21 C3     3s        -0.0171   -0.0599    0.0075    0.0650   -0.0090   -0.0378   -0.0138    0.0046    0.0131    0.0136
    22 C3     4s        -0.0026   -0.0135    0.0033    0.0169   -0.0019   -0.0096   -0.0045    0.0023    0.0043    0.0046
    23 C3     2px       -0.0239   -0.0676    0.0054   -0.0380   -0.0228    0.0560   -0.0345    0.0046    0.0753   -0.2697
    24 C3     3px       -0.0065    0.0198    0.0137   -0.0294    0.0418    0.0031    0.0323   -0.0077   -0.0130    0.0488
    25 C3     4px       -0.0053   -0.0005    0.0032   -0.0100    0.0068    0.0102    0.0064    0.0002   -0.0029   -0.0061
    26 C3     2py       -0.0128   -0.0800    0.0063   -0.0087   -0.0241    0.0358   -0.0524   -0.1686    0.0567   -0.0285
    27 C3     3py       -0.0017   -0.0054    0.0185    0.0059    0.0385   -0.0008   -0.0058    0.0029   -0.0065    0.0249
    28 C3     4py       -0.0026   -0.0054    0.0041   -0.0046    0.0016    0.0069   -0.0006   -0.0122    0.0029    0.0038
    29 C3     2pz        0.0043   -0.0044    0.0079    0.0265    0.0306    0.0005    0.1047   -0.0160   -0.1683   -0.0356
    30 C3     3pz        0.0103    0.0323   -0.0030   -0.0283   -0.0140    0.0188   -0.0073   -0.0060    0.0163    0.0017
    31 C3     4pz        0.0013    0.0076   -0.0013   -0.0104    0.0002    0.0136    0.0132   -0.0031   -0.0104   -0.0057
    32 C3     3d2-       0.0036    0.0199   -0.0012   -0.0032    0.0046   -0.0034   -0.0012    0.0100    0.0051    0.0186
    33 C3     3d1-       0.0006    0.0029    0.0005    0.0041    0.0059   -0.0048    0.0058    0.0035   -0.0071    0.0152
    34 C3     3d0       -0.0023   -0.0085   -0.0009   -0.0027   -0.0080    0.0034   -0.0102   -0.0045    0.0113   -0.0115
    35 C3     3d1+       0.0008    0.0050    0.0004    0.0034    0.0062   -0.0045    0.0080    0.0085   -0.0094    0.0061
    36 C3     3d2+       0.0014    0.0018   -0.0003   -0.0002   -0.0006   -0.0003   -0.0005   -0.0123   -0.0015    0.0050
    37 C4     1s         0.0008    0.0012    0.0077    0.0163    0.0105   -0.0080    0.0205    0.0002   -0.0011    0.0023
    38 C4     2s         0.0086    0.0824    0.0318   -0.2520   -0.2064    0.1918   -0.3003   -0.0537    0.2114   -0.1068
    39 C4     3s         0.0050    0.0208    0.0271    0.0181   -0.0025   -0.0030    0.0235   -0.0013    0.0156    0.0139
    40 C4     4s         0.0019    0.0054    0.0055    0.0063    0.0006   -0.0012    0.0079    0.0012   -0.0003    0.0060
    41 C4     2px        0.0013   -0.0212   -0.0006    0.0688    0.0672   -0.0075    0.0634    0.0116   -0.0566   -0.0517
    42 C4     3px        0.0038    0.0016   -0.0004   -0.0214   -0.0151    0.0218   -0.0332   -0.0067    0.0063    0.0048
    43 C4     4px        0.0011    0.0019    0.0031   -0.0013    0.0000    0.0060   -0.0041   -0.0019    0.0028   -0.0041
    44 C4     2py       -0.0046   -0.0212   -0.0126    0.0374    0.0187   -0.0256   -0.0073    0.0160   -0.0366    0.0417
    45 C4     3py       -0.0026   -0.0042    0.0022   -0.0090   -0.0039    0.0087   -0.0022   -0.0029    0.0090   -0.0127
    46 C4     4py       -0.0010   -0.0034   -0.0073    0.0052    0.0036   -0.0017   -0.0001    0.0003   -0.0039    0.0014
    47 C4     2pz        0.0096    0.0286   -0.0630   -0.0413   -0.0077    0.0622    0.1210   -0.0502    0.0674   -0.1125
    48 C4     3pz        0.0059    0.0008   -0.0392    0.0093   -0.0472   -0.0441   -0.0346    0.0312   -0.0304    0.0106
    49 C4     4pz        0.0023    0.0018   -0.0132   -0.0051   -0.0110   -0.0013    0.0039   -0.0006    0.0034   -0.0085
    50 C4     3d2-       0.0004    0.0033    0.0071   -0.0059   -0.0025    0.0028    0.0053   -0.0023    0.0047   -0.0063
    51 C4     3d1-      -0.0004   -0.0033    0.0049    0.0065    0.0012   -0.0078    0.0050   -0.0018    0.0031    0.0004
    52 C4     3d0       -0.0003   -0.0005    0.0086   -0.0049   -0.0034    0.0062   -0.0100    0.0009   -0.0110   -0.0093
    53 C4     3d1+      -0.0011   -0.0044    0.0078    0.0034   -0.0101   -0.0161   -0.0224    0.0108   -0.0090    0.0142
    54 C4     3d2+       0.0001    0.0015    0.0045   -0.0077   -0.0102   -0.0032   -0.0048   -0.0035    0.0059    0.0099
    55 C6     1s         0.0044    0.0036   -0.0450   -0.0163   -0.0335   -0.0272    0.0038    0.0019   -0.0105   -0.0029
    56 C6     2s         0.0246    0.0173    0.2623    0.1262    0.2830    0.2962   -0.0557   -0.0430    0.1002    0.0512
    57 C6     3s         0.0212    0.0199   -0.0719   -0.0285   -0.0574   -0.0350    0.0121    0.0019   -0.0238   -0.0104
    58 C6     4s         0.0054    0.0059   -0.0119   -0.0058   -0.0122   -0.0067    0.0045    0.0013   -0.0066   -0.0041
    59 C6     2px        0.0010   -0.0022   -0.0470   -0.0108    0.0007    0.0411   -0.1249    0.0107   -0.0014    0.0860
    60 C6     3px        0.0011   -0.0022    0.0053    0.0006   -0.0023   -0.0029    0.0015   -0.0015   -0.0092   -0.0140
    61 C6     4px        0.0003    0.0003   -0.0017    0.0011    0.0045    0.0068   -0.0114    0.0020   -0.0017    0.0026
    62 C6     2py        0.0034    0.0072   -0.0085    0.0118    0.0158    0.0147    0.0031    0.0175   -0.1126    0.0702
    63 C6     3py        0.0036    0.0072    0.0084    0.0004    0.0004    0.0100   -0.0038   -0.0023    0.0121   -0.0074
    64 C6     4py       -0.0002   -0.0020   -0.0013    0.0020    0.0031   -0.0006   -0.0002    0.0007   -0.0078    0.0040
    65 C6     2pz        0.0067    0.0099    0.1104    0.0045   -0.0282   -0.0438    0.0034    0.0667   -0.2788   -0.1812
    66 C6     3pz        0.0089    0.0136   -0.0276   -0.0075   -0.0147    0.0041    0.0090   -0.0071    0.0452    0.0248
    67 C6     4pz        0.0006    0.0016   -0.0076   -0.0055   -0.0153   -0.0141    0.0021    0.0053   -0.0158   -0.0078
    68 C6     3d2-       0.0000   -0.0000    0.0028   -0.0009   -0.0006    0.0007   -0.0041    0.0006   -0.0002   -0.0021
    69 C6     3d1-      -0.0001   -0.0007   -0.0035    0.0016    0.0025    0.0009    0.0001    0.0003   -0.0023    0.0014
    70 C6     3d0       -0.0004   -0.0001    0.0188    0.0007   -0.0029   -0.0056   -0.0022    0.0077   -0.0299   -0.0181
    71 C6     3d1+       0.0001   -0.0001   -0.0168   -0.0019    0.0016    0.0080   -0.0127   -0.0025    0.0144    0.0153
    72 C6     3d2+       0.0002    0.0004    0.0032    0.0016    0.0011   -0.0006    0.0023    0.0020   -0.0105    0.0014
    73 C19    1s        -0.0142   -0.0088   -0.0012   -0.0444    0.0473   -0.0308   -0.0123   -0.0117   -0.0012   -0.0081
    74 C19    2s        -0.0074    0.0066   -0.0118    0.2259   -0.2941    0.2360    0.0853    0.0832   -0.0245    0.0818
    75 C19    3s        -0.0395   -0.0249   -0.0043   -0.0920    0.0885   -0.0503   -0.0237   -0.0281   -0.0065   -0.0140
    76 C19    4s        -0.0048   -0.0037   -0.0001   -0.0202    0.0196   -0.0121   -0.0052   -0.0079   -0.0006   -0.0040
    77 C19    2px       -0.0060    0.0238    0.0010    0.0491   -0.0206   -0.0117   -0.0347   -0.0663    0.0147   -0.1266
    78 C19    3px       -0.0100   -0.0033    0.0030   -0.0047    0.0076   -0.0082    0.0032    0.0088   -0.0001    0.0186
    79 C19    4px        0.0085    0.0004    0.0008   -0.0068    0.0133   -0.0132   -0.0059   -0.0054    0.0026   -0.0073
    80 C19    2py        0.0217    0.0028    0.0039    0.0247   -0.0145    0.0057   -0.0220   -0.0672    0.0027   -0.1681
    81 C19    3py       -0.0066   -0.0029    0.0055   -0.0221    0.0222   -0.0057    0.0005    0.0084    0.0071    0.0191
    82 C19    4py        0.0029   -0.0002    0.0010   -0.0083    0.0121   -0.0098   -0.0050   -0.0116   -0.0006   -0.0054
    83 C19    2pz       -0.0011   -0.0089   -0.0013   -0.0057    0.0075   -0.0098   -0.0081   -0.0059   -0.0101   -0.0245
    84 C19    3pz       -0.0064   -0.0087   -0.0026   -0.0113    0.0116   -0.0119   -0.0075    0.0067   -0.0007   -0.0022
    85 C19    4pz       -0.0004   -0.0000   -0.0008   -0.0005    0.0006   -0.0007   -0.0006   -0.0009   -0.0012   -0.0009
    86 C19    3d2-       0.0030    0.0043   -0.0000    0.0102   -0.0065    0.0014   -0.0039   -0.0100   -0.0001   -0.0167
    87 C19    3d1-       0.0000   -0.0007    0.0001    0.0022   -0.0022    0.0010   -0.0001   -0.0010    0.0003   -0.0025
    88 C19    3d0        0.0007   -0.0011   -0.0002   -0.0063    0.0052   -0.0022    0.0015    0.0037   -0.0015    0.0095
    89 C19    3d1+       0.0018    0.0005    0.0001    0.0013   -0.0012    0.0007    0.0003   -0.0010   -0.0002   -0.0024
    90 C19    3d2+      -0.0059    0.0047   -0.0003   -0.0003    0.0023   -0.0022   -0.0006   -0.0003   -0.0001    0.0051
    91 N2     1s        -0.0169   -0.0384    0.0008   -0.0063   -0.0036    0.0038    0.0013   -0.0044   -0.0018    0.0047
    92 N2     2s         0.1269    0.6003   -0.0286    0.0545    0.1612   -0.1728   -0.0508    0.1311    0.0121    0.1409
    93 N2     3s        -0.0430   -0.0633   -0.0028   -0.0125    0.0003   -0.0033   -0.0010   -0.0055   -0.0047    0.0212
    94 N2     4s        -0.0108   -0.0229   -0.0006   -0.0024   -0.0023    0.0011   -0.0003   -0.0023   -0.0009    0.0020
    95 N2     2px       -0.0196   -0.0210    0.0076   -0.1555    0.0350    0.0924    0.1202    0.3247    0.0021    0.0341
    96 N2     3px        0.0227   -0.0127    0.0082    0.0292    0.0189   -0.0297   -0.0695   -0.0889    0.0007   -0.0163
    97 N2     4px       -0.0058    0.0010    0.0008   -0.0045    0.0075   -0.0009   -0.0070   -0.0016    0.0019   -0.0021
    98 N2     2py        0.0338   -0.0131   -0.0046   -0.0829    0.0104    0.0463    0.0633   -0.2580   -0.1526    0.3033
    99 N2     3py        0.0018   -0.0553   -0.0063    0.0353    0.0197   -0.0442   -0.0459    0.0512    0.0300   -0.0544
   100 N2     4py       -0.0063   -0.0181   -0.0003    0.0007    0.0007   -0.0031   -0.0059   -0.0083   -0.0024   -0.0030
   101 N2     2pz        0.0164    0.0116    0.0085    0.0091    0.0210    0.0094    0.0416   -0.0412   -0.1005    0.0557
   102 N2     3pz        0.0052   -0.0102    0.0072    0.0197    0.0070   -0.0062   -0.0058    0.0046    0.0232    0.0004
   103 N2     4pz        0.0006   -0.0000    0.0002    0.0026    0.0009   -0.0000    0.0004   -0.0019    0.0022    0.0020
   104 N2     3d2-      -0.0044    0.0046   -0.0005   -0.0068   -0.0034    0.0096    0.0088    0.0040   -0.0045    0.0086
   105 N2     3d1-       0.0007    0.0033   -0.0002   -0.0011    0.0023    0.0005    0.0023    0.0033   -0.0036    0.0010
   106 N2     3d0       -0.0023   -0.0145    0.0012   -0.0005   -0.0029    0.0024    0.0027    0.0001   -0.0005   -0.0003
   107 N2     3d1+      -0.0010    0.0008    0.0000   -0.0025    0.0005    0.0026    0.0046    0.0034   -0.0034    0.0020
   108 N2     3d2+       0.0030    0.0080   -0.0004    0.0063   -0.0007   -0.0015   -0.0043   -0.0202   -0.0055    0.0015
   109 N5     1s        -0.0012   -0.0014   -0.0227   -0.0027    0.0028    0.0023   -0.0054    0.0010   -0.0054    0.0014
   110 N5     2s        -0.0228   -0.0111    0.4321   -0.0813   -0.2060   -0.2498    0.0264    0.0527   -0.1826   -0.0256
   111 N5     3s        -0.0057   -0.0034   -0.0683   -0.0164    0.0005   -0.0019   -0.0159    0.0041   -0.0182    0.0068
   112 N5     4s        -0.0004    0.0004   -0.0210   -0.0038    0.0010    0.0020   -0.0027   -0.0000   -0.0007    0.0013
   113 N5     2px       -0.0093   -0.0089   -0.0508   -0.0116    0.0320    0.1550   -0.4266    0.1203   -0.2844   -0.0407
   114 N5     3px       -0.0127   -0.0066   -0.0415   -0.0100   -0.0262   -0.0610    0.0845   -0.0024    0.0362   -0.0018
   115 N5     4px       -0.0041   -0.0030   -0.0129   -0.0054    0.0004   -0.0036    0.0032    0.0005    0.0034   -0.0026
   116 N5     2py       -0.0093   -0.0268   -0.1052    0.0771    0.0937   -0.0014    0.0328    0.0543   -0.2624    0.1199
   117 N5     3py       -0.0078   -0.0033    0.0197   -0.0294   -0.0244   -0.0300   -0.0023   -0.0056    0.0365   -0.0194
   118 N5     4py       -0.0025   -0.0027   -0.0064   -0.0029    0.0015   -0.0030   -0.0025   -0.0008    0.0083   -0.0088
   119 N5     2pz        0.0175    0.0255   -0.1612   -0.1039   -0.1631   -0.0423   -0.1724   -0.0238    0.2246    0.2745
   120 N5     3pz        0.0319    0.0324    0.0586    0.0510    0.0695    0.0596    0.0437    0.0014   -0.0429   -0.0366
   121 N5     4pz        0.0060    0.0062    0.0016    0.0056    0.0059    0.0083    0.0080   -0.0002   -0.0041   -0.0089
   122 N5     3d2-      -0.0004   -0.0004    0.0043   -0.0006   -0.0020   -0.0056    0.0037    0.0003   -0.0010    0.0025
   123 N5     3d1-      -0.0005   -0.0023   -0.0105    0.0032    0.0006   -0.0034   -0.0011    0.0016   -0.0025    0.0095
   124 N5     3d0        0.0002    0.0013    0.0141   -0.0021    0.0009    0.0089   -0.0116    0.0016   -0.0064   -0.0071
   125 N5     3d1+      -0.0000    0.0003   -0.0066   -0.0074   -0.0103   -0.0004   -0.0177    0.0017    0.0050    0.0081
   126 N5     3d2+       0.0002    0.0019    0.0170   -0.0074   -0.0091   -0.0044    0.0001   -0.0034    0.0132   -0.0057
   127 O7     1s        -0.0237    0.0034   -0.0004   -0.0027    0.0029   -0.0004    0.0009    0.0130    0.0038    0.0079
   128 O7     2s         0.6920   -0.3058    0.0067   -0.1766    0.1077   -0.0152    0.0378    0.3433    0.0923    0.1287
   129 O7     3s        -0.0297   -0.0064   -0.0016   -0.0154    0.0128   -0.0008    0.0009    0.0439    0.0122    0.0232
   130 O7     4s        -0.0125    0.0011   -0.0007   -0.0026    0.0024    0.0001   -0.0008    0.0087    0.0023    0.0045
   131 O7     2px        0.0605    0.0110   -0.0033   -0.0064    0.0204   -0.0288   -0.0197   -0.1305   -0.0397    0.0075
   132 O7     3px       -0.0140    0.0057   -0.0031   -0.0070   -0.0050    0.0017    0.0058    0.0149    0.0050   -0.0045
   133 O7     4px       -0.0008    0.0010   -0.0006   -0.0020   -0.0019    0.0011    0.0018    0.0012    0.0000   -0.0012
   134 O7     2py       -0.1319    0.0436   -0.0014   -0.0199    0.0216   -0.0092    0.0193    0.1699    0.0624    0.1511
   135 O7     3py        0.0420    0.0013   -0.0003    0.0103   -0.0082    0.0013   -0.0043   -0.0271   -0.0071   -0.0181
   136 O7     4py        0.0006   -0.0009   -0.0001   -0.0008   -0.0007    0.0003    0.0006   -0.0031   -0.0010   -0.0021
   137 O7     2pz       -0.0228    0.0097    0.0033    0.0062    0.0031   -0.0029    0.0075    0.0214    0.0095    0.0217
   138 O7     3pz        0.0084   -0.0010    0.0033    0.0051    0.0034   -0.0005   -0.0016   -0.0066    0.0006   -0.0044
   139 O7     4pz        0.0006   -0.0004    0.0011    0.0008    0.0017    0.0002   -0.0003   -0.0004    0.0005   -0.0004
   140 O7     3d2-      -0.0132    0.0014    0.0000    0.0011   -0.0029    0.0033    0.0023    0.0102    0.0031    0.0004
   141 O7     3d1-       0.0058   -0.0027    0.0001   -0.0009   -0.0001    0.0005   -0.0002   -0.0019   -0.0005   -0.0024
[...]
AIVX     1  Mu1.0001  In1.029 Se1.040               0.19457030      0.00017322     -0.00011400     -0.00000002
AIVX     1  Mu1.0001  In1.024 Se1.041               0.28692705      0.00005303     -0.00018110     -0.00000001
AIVX     1  Mu1.0001  In1.025 Se1.041               0.27848744     -0.00016833     -0.00018995      0.00000003
AIVX     1  Mu1.0001  In1.026 Se1.041               0.25585136     -0.00018231      0.00026767     -0.00000005
AIVX     1  Mu1.0001  In1.027 Se1.041               0.24594763      0.00075974     -0.00084152     -0.00000064
AIVX     1  Mu1.0001  In1.028 Se1.041               0.23251969      0.00102823     -0.00136871     -0.00000141
AIVX     1  Mu1.0001  In1.029 Se1.041               0.21147561      0.00057914     -0.00068851     -0.00000040
AIVX     1  Mu1.0001  In1.024 Se1.042               0.28952629     -0.00058550      0.00103657     -0.00000061
AIVX     1  Mu1.0001  In1.025 Se1.042               0.28108668     -0.00156764      0.00292963     -0.00000459
AIVX     1  Mu1.0001  In1.026 Se1.042               0.25845061      0.00019744     -0.00028104     -0.00000006
AIVX     1  Mu1.0001  In1.027 Se1.042               0.24854687     -0.00033625      0.00036089     -0.00000012
AIVX     1  Mu1.0001  In1.028 Se1.042               0.23511893      0.00010745     -0.00038680     -0.00000004
AIVX     1  Mu1.0001  In1.029 Se1.042               0.21407485      0.00019892     -0.00049861     -0.00000010
AIVX     1  Mu1.0001  In1.025 Se1.043               0.29804088      0.00001305     -0.00023281     -0.00000000
AIVX     1  Mu1.0001  In1.026 Se1.043               0.27540480     -0.00078091      0.00113592     -0.00000089
AIVX     1  Mu1.0001  In1.027 Se1.043               0.26550107      0.00026640     -0.00012763     -0.00000003
AIVX     1  Mu1.0001  In1.028 Se1.043               0.25207313      0.00030479     -0.00017277     -0.00000005
AIVX     1  Mu1.0001  In1.029 Se1.043               0.23102905     -0.00043468      0.00100310     -0.00000044
AIVX     1  Mu1.0001  In1.026 Se1.044               0.28019407      0.00045054     -0.00081938     -0.00000037
AIVX     1  Mu1.0001  In1.027 Se1.044               0.27029033     -0.00001981     -0.00025689      0.00000001
AIVX     1  Mu1.0001  In1.028 Se1.044               0.25686239      0.00057811     -0.00115225     -0.00000067
AIVX     1  Mu1.0001  In1.029 Se1.044               0.23581831      0.00045991     -0.00115004     -0.00000053
AIVX     1  Mu1.0001  In1.026 Se1.045               0.29413751     -0.00038569      0.00071924     -0.00000028
AIVX     1  Mu1.0001  In1.027 Se1.045               0.28423378     -0.00062592      0.00088905     -0.00000056
AIVX     1  Mu1.0001  In1.028 Se1.045               0.27080584     -0.00044603      0.00060824     -0.00000027
AIVX     1  Mu1.0001  In1.029 Se1.045               0.24976176     -0.00052546      0.00090665     -0.00000048
AIVX     1  Mu1.0001  In1.027 Se1.046               0.29427866      0.00000212     -0.00013836     -0.00000000
AIVX     1  Mu1.0001  In1.028 Se1.046               0.28085073      0.00138466     -0.00226033     -0.00000313
AIVX     1  Mu1.0001  In1.029 Se1.046               0.25980664     -0.00016350      0.00020937     -0.00000003
AIVX     1  Mu1.0001  In1.028 Se1.047               0.29426148     -0.00001677     -0.00002175      0.00000000
AIVX     1  Mu1.0001  In1.029 Se1.047               0.27321739     -0.00078610      0.00128914     -0.00000101
AIVX     1  Mu1.0001  In1.029 Se1.048               0.28647309     -0.00190156      0.00309259     -0.00000588
AIVX     1  Mu1.0001  In1.029 Se1.049               0.29821034     -0.00179824      0.00291018     -0.00000523
BVATP    1  Mu1.0001  Se1.038 Se1.038               0.18793214     -0.00002849      0.00017316     -0.00000000
BVATP    1  Mu1.0001  Se1.039 Se1.038               0.20361956      0.00017754     -0.00036165     -0.00000006
BVATP    1  Mu1.0001  Se1.039 Se1.039               0.21930698     -0.00013253      0.00024060     -0.00000003
BVATP    1  Mu1.0001  Se1.040 Se1.038               0.21563197     -0.00011404      0.00005375     -0.00000001
BVATP    1  Mu1.0001  Se1.040 Se1.039               0.23131939     -0.00002181      0.00005126     -0.00000000
BVATP    1  Mu1.0001  Se1.040 Se1.040               0.24333180      0.00018590     -0.00024833     -0.00000005
BVATP    1  Mu1.0001  Se1.041 Se1.038               0.23253728     -0.00002030     -0.00014840      0.00000000
BVATP    1  Mu1.0001  Se1.041 Se1.039               0.24822470     -0.00009549      0.00011594     -0.00000001
BVATP    1  Mu1.0001  Se1.041 Se1.040               0.26023711      0.00007720      0.00013532      0.00000001
BVATP    1  Mu1.0001  Se1.041 Se1.041               0.27714242     -0.00002595      0.00027771     -0.00000001
BVATP    1  Mu1.0001  Se1.042 Se1.038               0.23513652     -0.00012213      0.00025703     -0.00000003
BVATP    1  Mu1.0001  Se1.042 Se1.039               0.25082395      0.00016898     -0.00022109     -0.00000004
BVATP    1  Mu1.0001  Se1.042 Se1.040               0.26283635     -0.00003472     -0.00000703      0.00000000
BVATP    1  Mu1.0001  Se1.042 Se1.041               0.27974167      0.00022222     -0.00039925     -0.00000009
BVATP    1  Mu1.0001  Se1.042 Se1.042               0.28234091     -0.00025241      0.00034546     -0.00000009
BVATP    1  Mu1.0001  Se1.043 Se1.038               0.25209072     -0.00015900      0.00012745     -0.00000002
BVATP    1  Mu1.0001  Se1.043 Se1.039               0.26777814      0.00006300     -0.00001633     -0.00000000
BVATP    1  Mu1.0001  Se1.043 Se1.040               0.27979055      0.00012408     -0.00015450     -0.00000002
BVATP    1  Mu1.0001  Se1.043 Se1.041               0.29669587      0.00026554     -0.00020960     -0.00000006
BVATP    1  Mu1.0001  Se1.043 Se1.042               0.29929511     -0.00020225      0.00017060     -0.00000003
BVATP    1  Mu1.0001  Se1.044 Se1.038               0.25687998      0.00015585     -0.00012278     -0.00000002
BVATP    1  Mu1.0001  Se1.044 Se1.039               0.27256741     -0.00006620      0.00005893     -0.00000000
BVATP    1  Mu1.0001  Se1.044 Se1.040               0.28457981     -0.00016931      0.00022501     -0.00000004
BVATP    1  Mu1.0001  Se1.045 Se1.038               0.27082343     -0.00006968      0.00021846     -0.00000002
BVATP    1  Mu1.0001  Se1.045 Se1.039               0.28651085      0.00031327     -0.00047625     -0.00000015
BVATP    1  Mu1.0001  Se1.045 Se1.040               0.29852326     -0.00017010      0.00012862     -0.00000002
BVATP    1  Mu1.0001  Se1.046 Se1.038               0.28086832      0.00006447     -0.00008645     -0.00000001
BVATP    1  Mu1.0001  Se1.046 Se1.039               0.29655574     -0.00001809      0.00002065     -0.00000000
BVATP    1  Mu1.0001  Se1.047 Se1.038               0.29427907     -0.00034717      0.00045910     -0.00000016
--
 
   (Skipping property calculation,
    use PROP keyword to activate)
--
 
  Total CASPT2 energies:
::    CASPT2 Root  1     Total energy:   -455.18249851
::    CASPT2 Root  2     Total energy:   -454.97479173
::    CASPT2 Root  3     Total energy:   -454.99507432
::    CASPT2 Root  4     Total energy:   -454.95988174
::    CASPT2 Root  5     Total energy:   -454.92236503
::    CASPT2 Root  6     Total energy:   -454.88416644
::    CASPT2 Root  7     Total energy:   -454.85143906
 
++ Multi-State CASPT2 section:
********************************************************************************
  MULTI-STATE CASPT2 SECTION
--------------------------------------------------------------------------------
 
  Output diagonal energies have been shifted. Add   -455.000000000000     
 
  Effective Hamiltonian matrix (Symmetric):
 
                1               2               3               4               5
   1        -0.18249851
   2        -0.00046982      0.02520827
   3        -0.00274954     -0.00010502      0.00492568
   4        -0.01267115     -0.00020864     -0.00298778      0.04011826
   5         0.01326302     -0.00018264     -0.00152502     -0.00284585      0.07763497
   6        -0.00874815      0.00009382     -0.00126318     -0.00112679      0.00926398
   7        -0.00132268      0.00000777      0.00155079      0.02120616      0.02812487
 
                6               7
   6         0.11583356
   7        -0.01048070      0.14856094
 
       Total MS-CASPT2 energies:
::    MS-CASPT2 Root  1     Total energy:   -455.18421246
::    MS-CASPT2 Root  2     Total energy:   -454.99544349
::    MS-CASPT2 Root  3     Total energy:   -454.97479538
::    MS-CASPT2 Root  4     Total energy:   -454.96506042
::    MS-CASPT2 Root  5     Total energy:   -454.93100209
::    MS-CASPT2 Root  6     Total energy:   -454.88223604
::    MS-CASPT2 Root  7     Total energy:   -454.83746694
 
       Eigenvectors:
            0.99651351     -0.01851197     -0.00263755     -0.03514794      0.07127680
            0.00223937      0.00598915      0.99972625     -0.02221022     -0.00353277
            0.01510974      0.99342139     -0.00849931     -0.11172063     -0.01195723
            0.05545590      0.10001435      0.01906997      0.93386858     -0.30043574
           -0.05149463      0.04019787      0.00828834      0.23545577      0.88552143
            0.03111414      0.00436244     -0.00263988     -0.05006283     -0.22791327
            0.00568853     -0.03313010     -0.00537674     -0.23607962     -0.26155278
 
           -0.01621342      0.00570414
            0.00053897     -0.00069590
           -0.01295093      0.00460359
            0.00063077      0.15551702
            0.27128446      0.28719480
            0.95909484     -0.15713768
            0.07816994      0.93198023
 
--
 
  THE ORIGINAL CI ARRAYS ARE NOW MIXED AS LINEAR
  COMBINATIONS, GIVEN BY THE EIGENVECTORS.
  A NEW JOBIPH FILE NAMED 'JOBMIX' IS PREPARED.
********************************************************************************
 
++ Mixed CI coefficients:
  The CI coefficients for the MIXED state nr.   1
--------------------------------------------------------------------------------
 CI COEFFICIENTS LARGER THAN  0.50D-01
  Occupation of active orbitals, and spin coupling
  of open shells. (u,d: Spin up or down).
  SGUGA info is (Midvert:IsyUp:UpperWalk/LowerWalk)
        Conf  SGUGA info        Occupation    Coefficient         Weight
           1  ( 1:1:   1/   1)   22222200        0.972540       0.945834
           6  ( 1:1:   6/   1)   22220220       -0.079821       0.006371
          15  ( 1:1:  15/   1)   22222002       -0.058195       0.003387
          41  ( 2:1:   1/   2)   22u222d0       -0.089323       0.007979
          61  ( 2:1:   1/   3)   2u2222d0        0.086338       0.007454
         155  ( 3:1:   5/   6)   2ud22202       -0.057658       0.003324
         175  ( 3:1:   5/   8)   20222202       -0.057057       0.003255
 
  The CI coefficients for the MIXED state nr.   2
--------------------------------------------------------------------------------
 CI COEFFICIENTS LARGER THAN  0.50D-01
  Occupation of active orbitals, and spin coupling
  of open shells. (u,d: Spin up or down).
  SGUGA info is (Midvert:IsyUp:UpperWalk/LowerWalk)
        Conf  SGUGA info        Occupation    Coefficient         Weight
           2  ( 1:1:   2/   1)   22222ud0       -0.390212       0.152265
           7  ( 1:1:   7/   1)   22222u0d       -0.875301       0.766151
          14  ( 1:1:  14/   1)   22220u2d       -0.074806       0.005596
          16  ( 1:1:  16/   1)   2222ud02        0.063368       0.004015
          44  ( 2:1:   4/   2)   22u2220d        0.058976       0.003478
          47  ( 2:1:   7/   2)   22u22udd       -0.076502       0.005852
          53  ( 2:1:  13/   2)   22u22d02       -0.053677       0.002881
          64  ( 2:1:   4/   3)   2u22220d        0.055460       0.003076
          65  ( 2:1:   5/   3)   2u222dud       -0.066221       0.004385
          67  ( 2:1:   7/   3)   2u222udd        0.061298       0.003757
          84  ( 2:1:   4/   4)   u222220d       -0.065694       0.004316
         153  ( 3:1:   3/   6)   2ud22u2d        0.054801       0.003003
         165  ( 3:1:   5/   7)   u2d22202        0.051949       0.002699
         185  ( 3:1:   5/   9)   ud222202        0.071283       0.005081
 
  The CI coefficients for the MIXED state nr.   3
--------------------------------------------------------------------------------
 CI COEFFICIENTS LARGER THAN  0.50D-01
  Occupation of active orbitals, and spin coupling
  of open shells. (u,d: Spin up or down).
  SGUGA info is (Midvert:IsyUp:UpperWalk/LowerWalk)
        Conf  SGUGA info        Occupation    Coefficient         Weight
           2  ( 1:1:   2/   1)   22222ud0       -0.072484       0.005254
           3  ( 1:1:   3/   1)   2222u2d0        0.195975       0.038406
          21  ( 2:1:   1/   1)   222u22d0        0.919384       0.845267
          23  ( 2:1:   3/   1)   222ud220       -0.143556       0.020608
          24  ( 2:1:   4/   1)   222u220d       -0.203537       0.041427
          35  ( 2:1:  15/   1)   222u20d2        0.056703       0.003215
         101  ( 3:1:   1/   1)   22202220        0.055721       0.003105
         111  ( 3:1:   1/   2)   22ud2220        0.078602       0.006178
         121  ( 3:1:   1/   3)   2u2d2220       -0.083749       0.007014
         131  ( 3:1:   1/   4)   u22d2220        0.065281       0.004262
         254  ( 5:1:   2/   5)   2udu22d2       -0.058055       0.003370
         262  ( 5:1:   2/   7)   202u22d2       -0.053797       0.002894
 
  The CI coefficients for the MIXED state nr.   4
--------------------------------------------------------------------------------
 CI COEFFICIENTS LARGER THAN  0.50D-01
  Occupation of active orbitals, and spin coupling
  of open shells. (u,d: Spin up or down).
  SGUGA info is (Midvert:IsyUp:UpperWalk/LowerWalk)
        Conf  SGUGA info        Occupation    Coefficient         Weight
           2  ( 1:1:   2/   1)   22222ud0       -0.825788       0.681926
           3  ( 1:1:   3/   1)   2222u2d0       -0.257002       0.066050
           4  ( 1:1:   4/   1)   22222020       -0.078807       0.006211
           5  ( 1:1:   5/   1)   2222ud20       -0.123945       0.015362
           7  ( 1:1:   7/   1)   22222u0d        0.382529       0.146328
           8  ( 1:1:   8/   1)   2222u20d        0.092090       0.008481
          12  ( 1:1:  12/   1)   2222uudd       -0.085175       0.007255
          61  ( 2:1:   1/   3)   2u2222d0        0.051687       0.002672
          63  ( 2:1:   3/   3)   2u22d220        0.052830       0.002791
          65  ( 2:1:   5/   3)   2u222dud       -0.073482       0.005400
          67  ( 2:1:   7/   3)   2u222udd       -0.067099       0.004502
          81  ( 2:1:   1/   4)   u22222d0        0.082449       0.006798
          82  ( 2:1:   2/   4)   u2222d20        0.057981       0.003362
         156  ( 3:1:   6/   6)   2ud22ud2        0.062479       0.003904
         176  ( 3:1:   6/   8)   20222ud2        0.055517       0.003082
 
  The CI coefficients for the MIXED state nr.   5
--------------------------------------------------------------------------------
 CI COEFFICIENTS LARGER THAN  0.50D-01
  Occupation of active orbitals, and spin coupling
  of open shells. (u,d: Spin up or down).
  SGUGA info is (Midvert:IsyUp:UpperWalk/LowerWalk)
        Conf  SGUGA info        Occupation    Coefficient         Weight
           2  ( 1:1:   2/   1)   22222ud0       -0.254704       0.064874
           3  ( 1:1:   3/   1)   2222u2d0        0.820264       0.672834
           7  ( 1:1:   7/   1)   22222u0d        0.068630       0.004710
           8  ( 1:1:   8/   1)   2222u20d       -0.092087       0.008480
          10  ( 1:1:  10/   1)   2222udud       -0.101299       0.010262
          12  ( 1:1:  12/   1)   2222uudd       -0.081473       0.006638
          21  ( 2:1:   1/   1)   222u22d0       -0.212363       0.045098
          41  ( 2:1:   1/   2)   22u222d0        0.068488       0.004691
          43  ( 2:1:   3/   2)   22u2d220        0.141730       0.020088
          61  ( 2:1:   1/   3)   2u2222d0       -0.076770       0.005894
          63  ( 2:1:   3/   3)   2u22d220       -0.122443       0.014992
          81  ( 2:1:   1/   4)   u22222d0       -0.264564       0.069994
          84  ( 2:1:   4/   4)   u222220d        0.128134       0.016418
         157  ( 3:1:   7/   6)   2ud2u2d2       -0.054572       0.002978
         161  ( 3:1:   1/   7)   u2d22220       -0.061421       0.003773
         181  ( 3:1:   1/   9)   ud222220        0.060449       0.003654
 
  The CI coefficients for the MIXED state nr.   6
--------------------------------------------------------------------------------
 CI COEFFICIENTS LARGER THAN  0.50D-01
  Occupation of active orbitals, and spin coupling
  of open shells. (u,d: Spin up or down).
  SGUGA info is (Midvert:IsyUp:UpperWalk/LowerWalk)
        Conf  SGUGA info        Occupation    Coefficient         Weight
           7  ( 1:1:   7/   1)   22222u0d       -0.080748       0.006520
           8  ( 1:1:   8/   1)   2222u20d        0.388883       0.151230
           9  ( 1:1:   9/   1)   222220ud       -0.060516       0.003662
          15  ( 1:1:  15/   1)   22222002       -0.126299       0.015951
          24  ( 2:1:   4/   1)   222u220d       -0.068680       0.004717
          53  ( 2:1:  13/   2)   22u22d02       -0.102450       0.010496
          65  ( 2:1:   5/   3)   2u222dud       -0.052926       0.002801
          73  ( 2:1:  13/   3)   2u222d02       -0.142463       0.020296
          74  ( 2:1:  14/   3)   2u22d202       -0.054156       0.002933
          81  ( 2:1:   1/   4)   u22222d0        0.279774       0.078274
          84  ( 2:1:   4/   4)   u222220d        0.783239       0.613464
          92  ( 2:1:  12/   4)   u222022d       -0.081588       0.006657
          93  ( 2:1:  13/   4)   u2222d02       -0.095092       0.009042
         162  ( 3:1:   2/   7)   u2d222ud       -0.078726       0.006198
         165  ( 3:1:   5/   7)   u2d22202       -0.083622       0.006993
         185  ( 3:1:   5/   9)   ud222202       -0.142226       0.020228
         225  ( 4:1:   1/   5)   u2u222dd       -0.061742       0.003812
         231  ( 4:1:   1/   6)   uu2222dd        0.071404       0.005099
 
  The CI coefficients for the MIXED state nr.   7
--------------------------------------------------------------------------------
 CI COEFFICIENTS LARGER THAN  0.50D-01
  Occupation of active orbitals, and spin coupling
  of open shells. (u,d: Spin up or down).
  SGUGA info is (Midvert:IsyUp:UpperWalk/LowerWalk)
        Conf  SGUGA info        Occupation    Coefficient         Weight
           9  ( 1:1:   9/   1)   222220ud        0.087049       0.007577
          22  ( 2:1:   2/   1)   222u2d20       -0.319099       0.101824
          24  ( 2:1:   4/   1)   222u220d        0.173487       0.030098
          25  ( 2:1:   5/   1)   222u2dud       -0.712518       0.507681
          27  ( 2:1:   7/   1)   222u2udd       -0.482002       0.232326
          31  ( 2:1:  11/   1)   222uud2d        0.123459       0.015242
          33  ( 2:1:  13/   1)   222u2d02        0.255047       0.065049
         102  ( 3:1:   2/   1)   222022ud       -0.060004       0.003600
         202  ( 4:1:   2/   1)   22uu2d2d        0.063414       0.004021
         208  ( 4:1:   2/   2)   2u2u2d2d       -0.078237       0.006121
         214  ( 4:1:   2/   3)   u22u2d2d        0.050292       0.002529
 
--
 
--- Stop Module: caspt2 at Tue Jun 10 19:04:41 2025 /rc=_RC_ALL_IS_WELL_ ---
*** files: xmldump
    saved to directory /home/pcaah4/diamide_project
--- Module caspt2 spent 6 minutes 50 seconds ---

.##################.
.# Happy landing! #.
.##################.

    Timing: Wall=717.29 User=626.32 System=80.53
******************************************************
*** WorkDir at /srv/COMMUNAL_SCRATCH/12417 cleaned ***
******************************************************
