   This run of MOLCAS is using the pymolcas driver

                             OPE
                             OPE          NMOL  CASOP  ENMOLC A   SO
                 OPE        NMOLC        AS  OP EN  MO LC     AS  OP
                OPENM       OL CA        SO  PE NM  OL CA     SOP EN
                OP EN      MO   LC       AS  OP ENMOL  CASO   PENMOL
                OP  EN     MO   LC       AS  OP EN     MO     LC ASO
               OP   E  NMOL  C  AS       OP  EN MO     LC     AS  OP
               OP  E   NMO   LC AS        OPEN  MO     LCASOP EN   M
               O  PEN   MO  LCA  SO
            OPE   NMO   L   CAS    OP
        OPENMOL  CASOP     ENMOL   CASOPE
     OPENMOLCA   SOPENMOLCASOPEN   MOLCASOPE
    OPENMOLCAS   OP           EN   MOL    CAS
    OPENMOLCAS       OP  ENM        O     LCA
    OPENMOLCAS    OPEN  MOLCASO     P  E  NMO
    OPENMOLCAS     OP               E  N  MOL
    OPENMOLCA   SO           PENM   O  L  CAS    OPEN    MO    LCAS
    OPENMOLCA   SOP           ENM   O  L  CAS   OP  EN  MOLC  AS   O
    OPENMOLCA   SOPE           NM      O  LCA   S      OP  EN MO
    OPENMOLC                AS         O  PEN   M      OL  CA  SOPE
    OPENMO        LCASOPE  NMOL        C  ASO   P      ENMOLC     AS
    OPE     NMO      LCA  SO     P     E   NM   OL  CA SO  PE N   MO
          OPENMOLCA            SOPE   NMO        LCAS  O    P  ENMO
     OPENMOLCASOPENMOLCASOPENMOLCASOPENMOLCA
        OPENMOLCASOPENMOLCASOPENMOLCASOPE
            OPENMOLCASOPENMOLCASOPENM
               OPENMOLCASOPENMOLCA        version: v23.06
                   OPENMOLCASO
                       OPE                tag:

 OpenMolcas is free software; you can redistribute it and/or modify it
 under the terms of the GNU Lesser General Public License version 2.1.
 OpenMolcas is distributed in the hope that it will be useful, but it
 is provided "as is" and without any express or implied warranties.
 For more details see the full text of the license in the file
 LICENSE or in <http://www.gnu.org/licenses/>.

                 Copyright (C) The OpenMolcas Authors
           For the author list and the recommended citation,
                   consult the file CONTRIBUTORS.md

           *************************************************
           * pymolcas version py2.24                       *
           *   build 4567b286dd94b1984b333a4ddf893180      *
           *   (after the EMIL interpreter by V. Veryazov) *
           *************************************************

configuration info
------------------
Host name: loginchem01.nottingham.ac.uk (Linux)
C Compiler ID: Intel
C flags: -std=gnu99 -gcc-sys -qopenmp
Fortran Compiler ID: Intel
Fortran flags: -fpp -i8 -heap-arrays -qopenmp
Definitions: _MOLCAS_;_I8_;_LINUX_
Parallel: OFF (GA=OFF)


   ----------------------------------------------------------------------------------------------------
  |
  |              Project: orca_geometry_optimisation_270_330_BP86_def2-SVP_def2J_scf_cas1_ras12i11_cas8
  |       Submitted from: /home/pcaah4/diamide_project
  |         Scratch area: /srv/COMMUNAL_SCRATCH/12433
  |      Save outputs to: /home/pcaah4/diamide_project
  |               Molcas: /software/chemistry/openmolcas/openmolcas-23.06-openmp
  |
  | Scratch area is empty
  |
  |       MOLCAS_DRIVER = /software/chemistry/openmolcas/openmolcas-23.06-openmp/sbin/pymolcas
  | MOLCAS_KEEP_WORKDIR = NO
  |       MOLCAS_NPROCS = 1
  |       MOLCAS_SOURCE = /software/chemistry/openmolcas/openmolcas-23.06-openmp
  |    MOLCAS_STRUCTURE = 0
  |
   ----------------------------------------------------------------------------------------------------

++ ---------   Input file   ---------

&SEWARD
TITLE
orca_geometry_optimisation_270_330_BP86_def2-SVP_def2J_scf_cas1_ras12i11
MULTIPOLES
2
SDIPOLE
ANGMOM
0 0 0
BASIS SET
C.ANO-S...4S3P1D.
C1            0.328668   -0.081961   -0.140547 /Angstrom
C3            2.640888    0.782134    0.018841 /Angstrom
C4            3.081791    1.533999   -1.257383 /Angstrom
C6            3.452437    1.310476   -3.690864 /Angstrom
C19          -0.540468   -1.335250   -0.177217 /Angstrom
END OF BASIS
BASIS SET
N.ANO-S...4S3P1D.
N2            1.696972   -0.309459   -0.178614 /Angstrom
N5            3.090777    0.768514   -2.395358 /Angstrom
END OF BASIS
BASIS SET
O.ANO-S...4S3P1D.
O7           -0.139658    1.049343   -0.087912 /Angstrom
O8            3.493542    2.688793   -1.194933 /Angstrom
END OF BASIS
BASIS SET
H.ANO-S...2S1P.
H9           -1.083492   -1.421154    0.785888 /Angstrom
H10          -1.306751   -1.211655   -0.967070 /Angstrom
H11           0.019084   -2.274465   -0.357677 /Angstrom
H12           2.025916   -1.267655   -0.048186 /Angstrom
H13           2.188532    1.550786    0.676619 /Angstrom
H14           3.555409    0.395218    0.514319 /Angstrom
H15           2.596574   -0.125415   -2.344926 /Angstrom
H16           4.213858    0.679171   -4.195880 /Angstrom
H17           2.573884    1.410384   -4.364988 /Angstrom
H18           3.878022    2.317327   -3.516234 /Angstrom
END OF BASIS
END OF INPUT

&RASSCF
TITLE
orca_geometry_optimisation_270_330_BP86_def2-SVP_def2J_scf_cas1_ras12i11
LUMORB
SPIN
1
SYMMETRY
1
NACTEL
12  0  0
INACTIVE
29
DELETED  ! delete Rydberg orbitals from an initial CAS(12,11) if done
3
FROZEN
0
RAS2
8
ITERATIONS
64 25
CIROOT
7 7
1 2 3 4 5 6 7
1 1 1 1 1 1 1
LEVSHFT
0.3
CIMX
20
FILEorb = /home/pcaah4/diamide_project/cas/ras12i11/ras_orb/orca_geometry_optimisation_270_330_BP86_def2-SVP_def2J_scf_cas1_ras12i11.RasOrb
ALTEr
0
END OF INPUT

&RASSI
NROF JOBIPH
    1 7
    1 2 3 5 4 6 7
TOFILE
TRDI
TDMN
1.0D-6
END OF INPUT

&CASPT2
TITLE
orca_geometry_optimisation_270_330_BP86_def2-SVP_def2J_scf_cas1_ras12i11
MULTISTATE
7 1 2 3 4 5 6 7
SHIFT
0.35
MAXITER
50
END OF INPUT

-- ----------------------------------

--- Start Module: seward at Tue Jun 10 19:30:25 2025 ---
 
()()()()()()()()()()()()()()()()()()()()()()()()()()()()()()()()()()()()()()()()()()()()()()()()()()

                                              &SEWARD

                                   only a single process is used
                       available to each process: 2.0 GB of memory, 1 thread
                                            pid: 3125055
()()()()()()()()()()()()()()()()()()()()()()()()()()()()()()()()()()()()()()()()()()()()()()()()()()
 
               SEWARD will generate:
                  Multipole Moment integrals up to order  2
                  Kinetic Energy integrals
                  Nuclear Attraction integrals (point charge)
                  One-Electron Hamiltonian integrals
                  Velocity integrals
                  Orbital angular momentum around ( 0.0000  0.0000  0.0000 )
                  Velocity quadrupole around ( 3.5892  1.3480 -1.9388 )
                  Two-Electron Repulsion integrals
 
 Title:
            orca_geometry_optimisation_270_330_BP86_def2-SVP_def2J_scf_cas1_ras12i11    
 
 
                   Integrals are discarded if absolute value <: 0.10E-13
                   Integral cutoff threshold is set to       <: 0.10E-15
 
++    Symmetry information:
      ---------------------
 
                    Character Table for C1 
 
                             E  
                    a        1  x, y, xy, Rz, z, xz, Ry, yz, Rx, I
--
 
 
++    Basis set information:
      ----------------------
 
 
      Basis set label: C.ANO-S...4S3P1D......
 
      Electronic valence basis set:
      ------------------
      Associated Effective Charge   6.000000 au
      Associated Actual Charge      6.000000 au
      Nuclear Model: Point charge
 
      Shell  nPrim  nBasis  Cartesian Spherical Contaminant
         s      10       4        X                  
         p       6       3        X                  
         d       3       1                 X         
 
 
      Basis set label: N.ANO-S...4S3P1D......
 
      Electronic valence basis set:
      ------------------
      Associated Effective Charge   7.000000 au
      Associated Actual Charge      7.000000 au
      Nuclear Model: Point charge
 
      Shell  nPrim  nBasis  Cartesian Spherical Contaminant
         s      10       4        X                  
         p       6       3        X                  
         d       3       1                 X         
 
 
      Basis set label: O.ANO-S...4S3P1D......
 
      Electronic valence basis set:
      ------------------
      Associated Effective Charge   8.000000 au
      Associated Actual Charge      8.000000 au
      Nuclear Model: Point charge
 
      Shell  nPrim  nBasis  Cartesian Spherical Contaminant
         s      10       4        X                  
         p       6       3        X                  
         d       3       1                 X         
 
 
      Basis set label: H.ANO-S...2S1P......
 
      Electronic valence basis set:
      ------------------
      Associated Effective Charge   1.000000 au
      Associated Actual Charge      1.000000 au
      Nuclear Model: Point charge
 
      Shell  nPrim  nBasis  Cartesian Spherical Contaminant
         s       7       2        X                  
         p       3       1        X                  
--
 
 
++    Molecular structure info:
      -------------------------
 
                    ************************************************ 
                    **** Cartesian Coordinates / Bohr, Angstrom **** 
                    ************************************************ 
 
     Center  Label                x              y              z                     x              y              z
        1      C1               0.621093      -0.154884      -0.265595              0.328668      -0.081961      -0.140547
        2      C3               4.990555       1.478019       0.035604              2.640888       0.782134       0.018841
        3      C4               5.823741       2.898838      -2.376110              3.081791       1.533999      -1.257383
        4      C6               6.524160       2.476441      -6.974722              3.452437       1.310476      -3.690864
        5      C19             -1.021336      -2.523257      -0.334892             -0.540468      -1.335250      -0.177217
        6      N2               3.206812      -0.584793      -0.337532              1.696972      -0.309459      -0.178614
        7      N5               5.840722       1.452281      -4.526571              3.090777       0.768514      -2.395358
        8      O7              -0.263915       1.982971      -0.166130             -0.139658       1.049343      -0.087912
        9      O8               6.601838       5.081082      -2.258096              3.493542       2.688793      -1.194933
       10      H9              -2.047503      -2.685592       1.485113             -1.083492      -1.421154       0.785888
       11      H10             -2.469402      -2.289696      -1.827497             -1.306751      -1.211655      -0.967070
       12      H11              0.036064      -4.298116      -0.675912              0.019084      -2.274465      -0.357677
       13      H12              3.828426      -2.395521      -0.091058              2.025916      -1.267655      -0.048186
       14      H13              4.135726       2.930561       1.278625              2.188532       1.550786       0.676619
       15      H14              6.718749       0.746854       0.971922              3.555409       0.395218       0.514319
       16      H15              4.906814      -0.237000      -4.431268              2.596574      -0.125415      -2.344926
       17      H16              7.963038       1.283447      -7.929064              4.213858       0.679171      -4.195880
       18      H17              4.863936       2.665239      -8.248632              2.573884       1.410384      -4.364988
       19      H18              7.328399       4.379113      -6.644719              3.878022       2.317327      -3.516234
 
                    ************************************************* 
                    **** InterNuclear Distances / Bohr, Angstrom **** 
                    ************************************************* 
 
     Atom centers         Bohr        Angstrom
   13 H12       6 N2      1.930256        1.021448
   16 H15       7 N5      1.932599        1.022687
   19 H18       4 C6      2.091857        1.106963
   11 H10       5 C19     2.092681        1.107399
   12 H11       5 C19     2.093923        1.108056
   14 H13       2 C3      2.094209        1.108207
   10 H9        5 C19     2.095659        1.108975
   15 H14       2 C3      2.097129        1.109753
   17 H16       4 C6      2.098659        1.110563
   18 H17       4 C6      2.101151        1.111881
    8 O7        1 C1      2.315935        1.225540
    9 O8        3 C4      2.319817        1.227594
    7 N5        3 C4      2.591775        1.371508
    6 N2        1 C1      2.622202        1.387610
    7 N5        4 C6      2.740335        1.450123
    6 N2        2 C3      2.752483        1.456551
    5 C19       1 C1      2.882979        1.525607
    3 C4        2 C3      2.920495        1.545459
   11 H10      10 H9      3.362755        1.779493
   15 H14      14 H13     3.396270        1.797229
   19 H18      18 H17     3.403451        1.801029
   12 H11      10 H9      3.407567        1.803207
   18 H17      17 H16     3.408211        1.803548
   19 H18      17 H16     3.411078        1.805065
   12 H11      11 H10     3.411342        1.805205
   16 H15       3 C4      3.859781        2.042508
   19 H18       7 N5      3.907184        2.067593
   13 H12       1 C1      3.916364        2.072451
   15 H14       6 N2      3.977644        2.104879
   14 H13       6 N2      3.979014        2.105604
   17 H16       7 N5      4.013688        2.123952
   14 H13       3 C4      4.025852        2.130389
   18 H17       7 N5      4.034739        2.135092
   13 H12       2 C3      4.046097        2.141102
   16 H15       4 C6      4.055580        2.146121
   11 H10       1 C1      4.067937        2.152660
   10 H9        1 C1      4.073189        2.155439
   15 H14       3 C4      4.079386        2.158718
   12 H11       1 C1      4.204401        2.224873
   13 H12      12 H11     4.282982        2.266457
    8 O7        6 N2      4.320734        2.286434
    9 O8        7 N5      4.346662        2.300155
   15 H14      13 H12     4.399819        2.328284
   16 H15       6 N2      4.446307        2.352884
   19 H18       9 O8      4.501457        2.382068
    9 O8        2 C3      4.565015        2.415702
    8 O7        5 C19     4.572555        2.419692
    7 N5        2 C3      4.640785        2.455798
    6 N2        5 C19     4.651332        2.461379
    4 C6        3 C4      4.670786        2.471674
    2 C3        1 C1      4.674323        2.473545
   14 H13       8 O7      4.726742        2.501284
   19 H18       3 C4      4.761958        2.519920
   16 H15       2 C3      4.785525        2.532391
   18 H17      16 H15     4.795529        2.537685
    6 N2        3 C4      4.810384        2.545546
   14 H13       9 O8      4.818178        2.549670
   13 H12       5 C19     4.857568        2.570515
   17 H16      16 H15     4.887417        2.586310
   12 H11       6 N2      4.894580        2.590100
   14 H13       1 C1      4.925163        2.606284
   16 H15      13 H12     4.965838        2.627808
   11 H10       8 O7      5.087238        2.692051
   10 H9        8 O7      5.263389        2.785266
    8 O7        2 C3      5.282531        2.795395
    7 N5        6 N2      5.351187        2.831726
    9 O8        4 C6      5.388576        2.851512
   15 H14       9 O8      5.406683        2.861094
   14 H13      13 H12     5.507959        2.914686
   15 H14       7 N5      5.612663        2.970093
   19 H18      16 H15     5.663210        2.996842
--
 
 
            Nuclear Potential Energy            455.62997932 au
 
 
      Basis set specifications :
      Symmetry species         a  
      Basis functions          212
 
 
      Input file to MOLDEN was generated!
 
--- Stop Module: seward at Tue Jun 10 19:32:15 2025 /rc=_RC_ALL_IS_WELL_ ---
*** files: orca_geometry_optimisation_270_330_BP86_def2-SVP_def2J_scf_cas1_ras12i11_cas8.GssOrb
           orca_geometry_optimisation_270_330_BP86_def2-SVP_def2J_scf_cas1_ras12i11_cas8.guessorb.molden xmldump
    saved to directory /home/pcaah4/diamide_project
--- Module seward spent 1 minute 49 seconds ---

*** symbolic link created: INPORB -> orca_geometry_optimisation_270_330_BP86_def2-SVP_def2J_scf_cas1_ras12i11_cas8.GssOrb
--- Start Module: rasscf at Tue Jun 10 19:32:15 2025 ---
 
()()()()()()()()()()()()()()()()()()()()()()()()()()()()()()()()()()()()()()()()()()()()()()()()()()

                                              &RASSCF

                                   only a single process is used
                       available to each process: 2.0 GB of memory, 1 thread
                                            pid: 3125090
()()()()()()()()()()()()()()()()()()()()()()()()()()()()()()()()()()()()()()()()()()()()()()()()()()
 
 
      Header of the ONEINT file:
      --------------------------
      orca_geometry_optimisation_270_330_BP86_def2-SVP_def2J_scf_cas1_ras12i11
      Integrals generated by Gateway/Seward, Tue Jun 10 19:30:25 2025
 
 
      OrdInt status: non-squared
 
 
      Cartesian coordinates in Angstrom:
      -----------------------------------------------------
      No.  Label        X            Y            Z        
      -----------------------------------------------------
       1   C1         0.32866800  -0.08196100  -0.14054700
       2   C3         2.64088800   0.78213400   0.01884100
       3   C4         3.08179100   1.53399900  -1.25738300
       4   C6         3.45243700   1.31047600  -3.69086400
       5   C19       -0.54046800  -1.33525000  -0.17721700
       6   N2         1.69697200  -0.30945900  -0.17861400
       7   N5         3.09077700   0.76851400  -2.39535800
       8   O7        -0.13965800   1.04934300  -0.08791200
       9   O8         3.49354200   2.68879300  -1.19493300
      10   H9        -1.08349200  -1.42115400   0.78588800
      11   H10       -1.30675100  -1.21165500  -0.96707000
      12   H11        0.01908400  -2.27446500  -0.35767700
      13   H12        2.02591600  -1.26765500  -0.04818600
      14   H13        2.18853200   1.55078600   0.67661900
      15   H14        3.55540900   0.39521800   0.51431900
      16   H15        2.59657400  -0.12541500  -2.34492600
      17   H16        4.21385800   0.67917100  -4.19588000
      18   H17        2.57388400   1.41038400  -4.36498800
      19   H18        3.87802200   2.31732700  -3.51623400
      -----------------------------------------------------
      Nuclear repulsion energy =  455.62997932
 
++    Wave function specifications:
      -----------------------------
 
      Number of closed shell electrons          58
      Number of electrons in active shells      12
      Max number of holes in RAS1 space          0
      Max nr of electrons in RAS3 space          0
      Number of inactive orbitals               29
      Number of active orbitals                  8
      Number of secondary orbitals             172
      Spin quantum number                      0.0
      State symmetry                             1
--
 
++    Orbital specifications:
      -----------------------
 
      Symmetry species                           1
                                                 a
      Frozen orbitals                            0
      Inactive orbitals                         29
      Active orbitals                            8
      RAS1 orbitals                              0
      RAS2 orbitals                              8
      RAS3 orbitals                              0
      Secondary orbitals                       172
      Deleted orbitals                           3
      Number of basis functions                212
--
 
++    CI expansion specifications:
      ----------------------------
 
      Number of CSFs                           336
      Number of determinants                   406
      Number of root(s) required                 7
      Root chosen for geometry opt.              7
      CI roots used                              1     2     3     4     5     6     7
      weights                                0.143 0.143 0.143 0.143 0.143 0.143 0.143
      highest root included in the CI            7
      max. size of the explicit Hamiltonian    200
--
 
++    Optimization specifications:
      ----------------------------
 
      RASSCF algorithm: Conventional
      Maximum number of macro iterations        64
      Maximum number of SX iterations           25
      Threshold for RASSCF energy            0.100E-07
      Threshold for max MO rotation          0.100E+00
      Threshold for max BLB element          0.100E-03
      Level shift parameter                  0.300E+00
      Make Quasi-Newton update
--
 
      The MO-coefficients are taken from the file:
      /home/pcaah4/diamide_project/cas/ras12i11/ras_orb/orca_geometry_optimisation_270_330_BP86_def2-SVP_def2J_scf_cas1_ras12i11.RasOrb                                                                                                                               
      Title: RASSCF average (pseudo-natural) orbitals                                      
 
      Total molecular charge    0.00
 
      ************************************************************************************************************************
      *                                                                                                                      *
      *                                            Wave function control section                                             *
      *                                                                                                                      *
      ************************************************************************************************************************
 
 
                                         RASSCF iterations: Energy and convergence statistics
                                         ----------------------------------------------------
 
      Iter CI   SX   CI       RASSCF       Energy    max ROT     max BLB   max BLB  Level Ln srch  Step   QN   Walltime
          iter iter root      energy       change     param      element    value   shift minimum  type update hh:mm:ss
 Nr of preliminary CI iterations:   3
        1   1   25    0  -450.25941737    0.00E+00   0.17E+00*  34  40 1 -0.31E+00*  0.10   0.00    SX    NO    0:00:13
        2   5   27    0  -452.48423590   -0.22E+01* -0.13E+00*  34  40 1 -0.20E+00*  0.18   0.00    SX    NO    0:00:07
        3   3   29    0  -453.24407292   -0.76E+00* -0.14E+00*  34  40 1 -0.10E+00*  0.19   0.00    SX    NO    0:00:06
        4   3   31    0  -453.45186876   -0.21E+00* -0.19E+00*  34  40 1 -0.39E-01*  0.16   0.00    SX    NO    0:00:06
        5   4   33    0  -453.52360631   -0.72E-01* -0.13E+00*  37  40 1 -0.22E-01*  0.10   2.12    QN   YES    0:00:07
        6   4   35    0  -453.55391704   -0.30E-01*  0.12E+00*  37  40 1 -0.17E-01*  0.06   2.47    QN   YES    0:00:06
        7   4   37    0  -453.57434791   -0.20E-01* -0.11E+00*  37  40 1 -0.12E-01*  0.03   2.29    QN   YES    0:00:07
        8   3   39    0  -453.58696499   -0.13E-01*  0.70E-01   37  40 1 -0.70E-02*  0.02   2.16    QN   YES    0:00:07
        9   4   41    0  -453.59473725   -0.78E-02*  0.68E-01   24  40 1  0.48E-02*  0.01   2.50    QN   YES    0:00:07
       10   4   43    0  -453.60192102   -0.72E-02*  0.95E-01   24  40 1  0.53E-02*  0.01   2.17    QN   YES    0:00:07
       11   4   45    0  -453.60715499   -0.52E-02*  0.10E+00*  24  40 1  0.51E-02*  0.01   1.61    QN   YES    0:00:07
       12   7   47    0  -453.61033118   -0.32E-02*  0.17E+00*  37  40 1  0.56E-02*  0.01   2.50    QN   YES    0:00:07
       13   6   49    0  -453.61451009   -0.42E-02* -0.16E+00*  37  40 1  0.57E-02*  0.01   1.77    QN   YES    0:00:07
       14   5   51    0  -453.61760462   -0.31E-02* -0.58E-01   37  40 1  0.43E-02*  0.01   1.46    QN   YES    0:00:07
       15   6   53    0  -453.61995708   -0.24E-02* -0.44E-01   37  43 1  0.29E-02*  0.01   1.96    QN   YES    0:00:07
       16   6   55    0  -453.62180567   -0.18E-02* -0.56E-01   37  43 1  0.29E-02*  0.01   2.04    QN   YES    0:00:07
       17   6   57    0  -453.62310210   -0.13E-02* -0.55E-01   37  39 1 -0.23E-02*  0.01   1.85    QN   YES    0:00:07
       18   6   59    0  -453.62388152   -0.78E-03*  0.45E-01   36  43 1  0.17E-02*  0.01   1.64    QN   YES    0:00:07
       19   5   61    0  -453.62423661   -0.36E-03* -0.29E-01   36  43 1  0.23E-02*  0.01   1.49    SX   YES    0:00:07
       20   4   63    0  -453.62493185   -0.70E-03*  0.67E-01   36  43 1  0.10E-02*  0.01   1.58    QN   YES    0:00:07
       21   5   63    0  -453.62533116   -0.40E-03* -0.36E-01   31  91 1 -0.10E-02*  0.01   1.45    QN   YES    0:00:07
       22   4   63    0  -453.62545924   -0.13E-03* -0.32E-01   31  91 1 -0.11E-02*  0.01   1.65    QN   YES    0:00:07
       23   5   64    0  -453.62555994   -0.10E-03* -0.38E-01   31  91 1 -0.79E-03*  0.01   2.20    QN   YES    0:00:07
       24   6   65    0  -453.62570110   -0.14E-03*  0.43E-01   34  43 1  0.76E-03*  0.01   1.97    QN   YES    0:00:07
       25   6   63    0  -453.62583609   -0.13E-03*  0.23E-01   34  43 1  0.70E-03*  0.02   1.63    QN   YES    0:00:07
       26   6   62    0  -453.62590453   -0.68E-04*  0.79E-02   36  49 1 -0.87E-03*  0.03   1.26    QN   YES    0:00:07
       27   4   63    0  -453.62585473    0.50E-04* -0.63E-02   36  49 1 -0.84E-03*  0.02  -0.50    SX   YES    0:00:07
       28   4   60    0  -453.62599057   -0.14E-03*  0.45E-01   36  49 1 -0.56E-03*  0.02   2.50    QN   YES    0:00:07
       29   6   54    0  -453.62622308   -0.23E-03* -0.16E-01   34  56 1 -0.75E-03*  0.04   1.38    QN   YES    0:00:07
       30   4   51    0  -453.62632450   -0.10E-03* -0.15E-01   34 150 1 -0.62E-03*  0.04   1.50    QN   YES    0:00:07
       31   4   49    0  -453.62637778   -0.53E-04* -0.84E-02   34 114 1 -0.37E-03*  0.04   1.65    QN   YES    0:00:07
       32   4   46    0  -453.62640326   -0.25E-04*  0.96E-02   34  91 1  0.15E-03*  0.04   1.19    QN   YES    0:00:07
       33   4   43    0  -453.62640844   -0.52E-05* -0.26E-02   34  97 1  0.12E-03*  0.04   0.92    QN   YES    0:00:07
       34   4   40    0  -453.62641032   -0.19E-05* -0.72E-03   31  91 1 -0.82E-04   0.04   1.31    QN   YES    0:00:07
       35   5   37    0  -453.62641099   -0.66E-06* -0.76E-03   31  91 1 -0.33E-04   0.04   1.36    QN   YES    0:00:06
       36   4   34    0  -453.62641118   -0.20E-06*  0.39E-03   33  55 1 -0.32E-04   0.04   1.09    QN   YES    0:00:06
       37   3   31    0  -453.62641123   -0.46E-07* -0.19E-03   33  55 1  0.13E-04   0.04   1.20    QN   YES    0:00:07
       38   3   27    0  -453.62641124   -0.16E-07* -0.80E-04   21  44 1  0.75E-05   0.04   1.29    QN   YES    0:00:06
       39   1   22    0  -453.62641125   -0.30E-08  -0.15E-03   18  52 1  0.30E-05   0.04   0.95    QN   YES    0:00:06
      Convergence after 39 iterations
       40   3   22    0  -453.62641125    0.52E-09  -0.15E-03   21  44 1 -0.48E-05   0.04   0.95    QN   YES    0:00:06
 
      ************************************************************************************************************************
                                                      Wave function printout:
                       occupation of active orbitals, and spin coupling of open shells (u,d: Spin up or down)
      ************************************************************************************************************************
 
      Note: transformation to natural orbitals
      has been made, which may change the order of the CSFs.
 
      printout of CI-coefficients larger than  0.05 for root  1
      energy=    -453.929855
      conf/sym  11111111     Coeff  Weight
             1  22222200   0.96386 0.92903
             6  22220220  -0.06875 0.00473
             7  22222u0d  -0.11626 0.01352
            10  2222udud   0.05673 0.00322
            12  2222uudd  -0.07612 0.00579
            15  22222002  -0.09052 0.00819
            84  u222220d  -0.16484 0.02717
           195  02222202  -0.05535 0.00306
 
      printout of CI-coefficients larger than  0.05 for root  2
      energy=    -453.715976
      conf/sym  11111111     Coeff  Weight
             7  22222u0d  -0.12182 0.01484
             8  2222u20d  -0.96484 0.93093
            11  222202ud   0.12140 0.01474
            16  2222ud02  -0.13138 0.01726
            44  22u2220d  -0.11176 0.01249
            94  u222d202  -0.05469 0.00299
 
      printout of CI-coefficients larger than  0.05 for root  3
      energy=    -453.629581
      conf/sym  11111111     Coeff  Weight
             1  22222200  -0.08310 0.00691
             3  2222u2d0  -0.16832 0.02833
             7  22222u0d  -0.92483 0.85531
             8  2222u20d   0.11354 0.01289
            14  22220u2d  -0.05324 0.00283
            15  22222002   0.05458 0.00298
            84  u222220d   0.17242 0.02973
            86  u222d2ud   0.05036 0.00254
            88  u222u2dd   0.06899 0.00476
            93  u2222d02  -0.20111 0.04044
 
      printout of CI-coefficients larger than  0.05 for root  4
      energy=    -453.561286
      conf/sym  11111111     Coeff  Weight
             8  2222u20d  -0.08832 0.00780
            11  222202ud   0.05738 0.00329
            16  2222ud02  -0.09814 0.00963
            24  222u220d  -0.05708 0.00326
            44  22u2220d   0.86919 0.75549
            52  22u2022d  -0.05998 0.00360
            64  2u22220d  -0.42203 0.17811
            66  2u22d2ud  -0.05212 0.00272
            68  2u22u2dd  -0.07161 0.00513
            73  2u222d02   0.11992 0.01438
           185  ud222202   0.05289 0.00280
 
      printout of CI-coefficients larger than  0.05 for root  5
      energy=    -453.527521
      conf/sym  11111111     Coeff  Weight
             8  2222u20d   0.07097 0.00504
            16  2222ud02  -0.05247 0.00275
            24  222u220d  -0.15384 0.02367
            44  22u2220d  -0.43069 0.18549
            46  22u2d2ud   0.06982 0.00487
            48  22u2u2dd   0.07522 0.00566
            53  22u22d02  -0.16136 0.02604
            64  2u22220d  -0.85464 0.73040
            72  2u22022d   0.05567 0.00310
            84  u222220d  -0.05991 0.00359
 
      printout of CI-coefficients larger than  0.05 for root  6
      energy=    -453.514752
      conf/sym  11111111     Coeff  Weight
             1  22222200   0.12866 0.01655
             3  2222u2d0   0.11034 0.01218
             7  22222u0d   0.11897 0.01415
            15  22222002   0.25411 0.06457
            24  222u220d   0.71279 0.50806
            28  222uu2dd   0.05995 0.00359
            32  222u022d  -0.05502 0.00303
            33  222u2d02  -0.07385 0.00545
            64  2u22220d  -0.15688 0.02461
            84  u222220d   0.56769 0.32227
           195  02222202  -0.08789 0.00772
 
      printout of CI-coefficients larger than  0.05 for root  7
      energy=    -453.505908
      conf/sym  11111111     Coeff  Weight
             1  22222200   0.14026 0.01967
             3  2222u2d0   0.11278 0.01272
             7  22222u0d   0.09686 0.00938
            15  22222002   0.26762 0.07162
            24  222u220d  -0.65543 0.42958
            28  222uu2dd  -0.05894 0.00347
            32  222u022d   0.05100 0.00260
            33  222u2d02   0.06325 0.00400
            64  2u22220d   0.06813 0.00464
            84  u222220d   0.64542 0.41656
           195  02222202  -0.09827 0.00966
 
      Natural orbitals and occupation numbers for root  1
      sym 1:   1.995174   1.999786   1.999336   1.999999   1.978160   1.959013   0.022181   0.046351
 
      Natural orbitals and occupation numbers for root  2
      sym 1:   1.999759   1.994211   1.999298   1.999998   0.985228   1.996835   0.004668   1.020003
 
      Natural orbitals and occupation numbers for root  3
      sym 1:   1.973764   1.999633   1.999210   1.999998   1.949631   1.048217   0.050362   0.979185
 
      Natural orbitals and occupation numbers for root  4
      sym 1:   1.999657   1.990211   1.047225   1.999987   1.950652   1.971341   0.026696   1.014231
 
      Natural orbitals and occupation numbers for root  5
      sym 1:   1.998936   1.047593   1.960893   1.999902   1.982006   1.974814   0.019551   1.016304
 
      Natural orbitals and occupation numbers for root  6
      sym 1:   1.993901   1.999452   1.998493   1.182299   1.965931   1.849308   0.034886   0.975731
 
      Natural orbitals and occupation numbers for root  7
      sym 1:   1.200324   1.999395   1.999478   1.995322   1.965832   1.840186   0.035126   0.964337
 
      ************************************************************************************************************************
      *                                                                                                                      *
      *                                                    Final results                                                     *
      *                                                                                                                      *
      ************************************************************************************************************************
 
 
++    Wave function specifications:
      -----------------------------
 
      Number of closed shell electrons          58
      Number of electrons in active shells      12
      Max number of holes in RAS1 space          0
      Max nr of electrons in RAS3 space          0
      Number of inactive orbitals               29
      Number of active orbitals                  8
      Number of secondary orbitals             172
      Spin quantum number                      0.0
      State symmetry                             1
--
 
++    Orbital specifications:
      -----------------------
 
      Symmetry species                           1
                                                 a
      Frozen orbitals                            0
      Inactive orbitals                         29
      Active orbitals                            8
      RAS1 orbitals                              0
      RAS2 orbitals                              8
      RAS3 orbitals                              0
      Secondary orbitals                       172
      Deleted orbitals                           3
      Number of basis functions                212
--
 
++    CI expansion specifications:
      ----------------------------
 
      Number of CSFs                           336
      Number of determinants                   406
      Number of root(s) required                 7
      CI roots used                              1     2     3     4     5     6     7
      weights                                0.143 0.143 0.143 0.143 0.143 0.143 0.143
      highest root included in the CI            7
      Root passed to geometry opt.               7
--
 
++    Final optimization conditions:
      ------------------------------
 
      Average CI energy                            -453.62641125
      RASSCF energy for state  7                   -453.50590776
      Super-CI energy                                -0.00000000
      RASSCF energy change                            0.00000000
      Max change in MO coefficients              -0.271E-03
      Max non-diagonal density matrix element    -0.149E-03
      Maximum BLB matrix element                 -0.478E-05
      (orbital pair  21,  44 in symmetry   1)
      Norm of electronic gradient            0.227E+00
--
 
 
      Final state energy(ies):
      ------------------------
 
::    RASSCF root number  1 Total energy:   -453.92985453
::    RASSCF root number  2 Total energy:   -453.71597621
::    RASSCF root number  3 Total energy:   -453.62958082
::    RASSCF root number  4 Total energy:   -453.56128637
::    RASSCF root number  5 Total energy:   -453.52752108
::    RASSCF root number  6 Total energy:   -453.51475196
::    RASSCF root number  7 Total energy:   -453.50590776
 
++    Molecular orbitals:
      -------------------
 
      Pseudonatural active orbitals and approximate occupation numbers
 
 
 
 
      Molecular orbitals for symmetry species 1: a  
 
 
      Orbital                 1         2         3         4         5         6         7         8         9        10
      Energy           -20.5845  -20.5302  -15.6359  -15.5819  -11.3962  -11.2855  -11.2753  -11.2746  -11.2627   -1.4243
      Occ. No.           2.0000    2.0000    2.0000    2.0000    2.0000    2.0000    2.0000    2.0000    2.0000    2.0000
 
     1 C1     1s         0.0003   -0.0001    0.0002    0.0000    1.0000   -0.0001   -0.0001    0.0026    0.0000   -0.0397
     2 C1     2s         0.0008   -0.0005    0.0009   -0.0000    0.0020   -0.0011   -0.0004    0.0002    0.0001    0.3707
     3 C1     3s        -0.0006   -0.0003    0.0003   -0.0001    0.0001   -0.0009   -0.0003    0.0006    0.0000   -0.0127
     4 C1     4s        -0.0004   -0.0001    0.0000   -0.0001    0.0010   -0.0003   -0.0001    0.0002    0.0000    0.0026
     5 C1     2px       -0.0007   -0.0003    0.0018   -0.0006    0.0017    0.0000   -0.0005    0.0003   -0.0002   -0.0342
     6 C1     3px       -0.0005   -0.0004    0.0013   -0.0007    0.0018   -0.0004   -0.0007   -0.0004   -0.0003    0.0035
     7 C1     4px        0.0001   -0.0001   -0.0001   -0.0001    0.0008   -0.0003   -0.0002   -0.0003   -0.0001   -0.0103
     8 C1     2py        0.0035    0.0001   -0.0003   -0.0005    0.0003    0.0001   -0.0008    0.0006   -0.0001    0.1157
     9 C1     3py        0.0024    0.0001   -0.0002   -0.0005    0.0004   -0.0003   -0.0008   -0.0001   -0.0002   -0.0643
    10 C1     4py       -0.0004   -0.0000    0.0001   -0.0000    0.0004   -0.0003   -0.0000   -0.0002   -0.0000    0.0251
    11 C1     2pz        0.0001   -0.0000   -0.0000    0.0000   -0.0001   -0.0000    0.0000    0.0001    0.0002    0.0054
    12 C1     3pz        0.0000   -0.0001   -0.0001    0.0000   -0.0001   -0.0001    0.0000    0.0000    0.0002   -0.0023
    13 C1     4pz       -0.0000   -0.0001   -0.0000    0.0000   -0.0001   -0.0001   -0.0000    0.0000    0.0000    0.0013
    14 C1     3d2-       0.0001   -0.0000    0.0001   -0.0000   -0.0003    0.0000   -0.0000   -0.0000   -0.0000   -0.0277
    15 C1     3d1-      -0.0000   -0.0000   -0.0000    0.0000    0.0001    0.0000   -0.0000    0.0000   -0.0000    0.0032
    16 C1     3d0        0.0000    0.0000    0.0001    0.0000   -0.0006   -0.0001    0.0000   -0.0001    0.0000   -0.0277
    17 C1     3d1+      -0.0000    0.0000    0.0001    0.0000    0.0000    0.0000    0.0000   -0.0000    0.0000   -0.0014
    18 C1     3d2+       0.0001   -0.0000   -0.0001   -0.0000   -0.0001    0.0001   -0.0000    0.0000    0.0000   -0.0210
    19 C3     1s         0.0003    0.0001    0.0004   -0.0000   -0.0000    0.9991   -0.0275    0.0001   -0.0000   -0.0090
    20 C3     2s         0.0020    0.0004    0.0018   -0.0002    0.0003   -0.0016   -0.0010   -0.0004    0.0005    0.0206
    21 C3     3s         0.0013    0.0002    0.0009   -0.0001    0.0002   -0.0028   -0.0009   -0.0003    0.0003   -0.0182
    22 C3     4s         0.0002   -0.0000    0.0001   -0.0001    0.0000    0.0006   -0.0002   -0.0000   -0.0000   -0.0023
    23 C3     2px       -0.0005    0.0002   -0.0005   -0.0001    0.0004   -0.0004   -0.0001   -0.0003   -0.0001   -0.0254
    24 C3     3px       -0.0003    0.0001    0.0000   -0.0001    0.0006   -0.0004   -0.0006   -0.0005   -0.0003   -0.0082
    25 C3     4px        0.0001   -0.0001    0.0002   -0.0000    0.0002   -0.0007   -0.0003   -0.0001   -0.0001   -0.0046
    26 C3     2py        0.0000   -0.0011   -0.0004    0.0007    0.0002   -0.0007    0.0004    0.0001   -0.0002   -0.0145
    27 C3     3py        0.0001   -0.0011    0.0000    0.0007    0.0001   -0.0004    0.0000    0.0001   -0.0005   -0.0017
    28 C3     4py        0.0000   -0.0001    0.0002   -0.0000   -0.0001   -0.0007   -0.0002   -0.0000   -0.0002   -0.0032
    29 C3     2pz       -0.0002   -0.0002   -0.0005   -0.0000   -0.0004    0.0004   -0.0000    0.0002   -0.0001    0.0064
    30 C3     3pz       -0.0001    0.0001   -0.0005    0.0000   -0.0005    0.0002    0.0005    0.0002   -0.0000    0.0116
    31 C3     4pz        0.0001    0.0002   -0.0000    0.0001   -0.0001   -0.0003    0.0001   -0.0000    0.0001    0.0010
    32 C3     3d2-       0.0000   -0.0000   -0.0000    0.0001    0.0000   -0.0001   -0.0001   -0.0000   -0.0000    0.0043
    33 C3     3d1-       0.0000    0.0001   -0.0000    0.0000    0.0000    0.0000   -0.0001    0.0000   -0.0000    0.0005
    34 C3     3d0        0.0000    0.0001    0.0001    0.0000   -0.0000   -0.0000   -0.0000    0.0000    0.0000   -0.0023
    35 C3     3d1+      -0.0000    0.0000   -0.0000   -0.0000   -0.0000    0.0000   -0.0000   -0.0000   -0.0000    0.0002
    36 C3     3d2+      -0.0000    0.0000    0.0000   -0.0001    0.0000    0.0001    0.0000    0.0000    0.0000    0.0003
    37 C4     1s        -0.0001    0.0003   -0.0002    0.0002   -0.0001    0.0274    0.9996   -0.0002    0.0008    0.0009
    38 C4     2s        -0.0005    0.0010   -0.0013    0.0006   -0.0011    0.0010    0.0025    0.0002    0.0001    0.0377
    39 C4     3s        -0.0003   -0.0004   -0.0009    0.0001   -0.0009    0.0004   -0.0002    0.0002    0.0000    0.0152
    40 C4     4s        -0.0001   -0.0004   -0.0002   -0.0000   -0.0003    0.0001    0.0013    0.0001   -0.0001    0.0047
    41 C4     2px        0.0001    0.0010    0.0001    0.0001    0.0000   -0.0003    0.0004    0.0001    0.0001   -0.0013
    42 C4     3px        0.0001    0.0007   -0.0000    0.0001   -0.0000    0.0001    0.0002    0.0002   -0.0000    0.0004
    43 C4     4px        0.0000   -0.0001   -0.0001   -0.0000   -0.0001    0.0002    0.0003    0.0000   -0.0001    0.0008
    44 C4     2py       -0.0000    0.0027    0.0002   -0.0006    0.0002   -0.0005    0.0002   -0.0001    0.0001   -0.0038
    45 C4     3py        0.0000    0.0020    0.0002   -0.0005    0.0003    0.0001    0.0001   -0.0001    0.0000   -0.0066
    46 C4     4py        0.0000   -0.0004    0.0001    0.0000    0.0001    0.0004    0.0003   -0.0000   -0.0001   -0.0018
    47 C4     2pz       -0.0001    0.0001    0.0000   -0.0015   -0.0001    0.0012   -0.0006    0.0002    0.0002    0.0060
    48 C4     3pz       -0.0001    0.0001    0.0002   -0.0010    0.0001    0.0011   -0.0003    0.0002    0.0009    0.0041
    49 C4     4pz        0.0000    0.0000    0.0001    0.0002    0.0001    0.0001   -0.0004    0.0000    0.0005    0.0005
    50 C4     3d2-      -0.0000   -0.0000    0.0000   -0.0000   -0.0000   -0.0000    0.0003    0.0000    0.0000    0.0013
    51 C4     3d1-      -0.0000    0.0000    0.0000   -0.0002   -0.0000   -0.0001    0.0002    0.0000    0.0001    0.0001
    52 C4     3d0       -0.0000    0.0002    0.0000   -0.0000    0.0000    0.0000   -0.0002    0.0000    0.0001   -0.0004
    53 C4     3d1+       0.0000   -0.0001    0.0001   -0.0000    0.0000   -0.0000    0.0001    0.0000   -0.0000   -0.0008
    54 C4     3d2+       0.0000    0.0001   -0.0000    0.0001    0.0000    0.0001   -0.0004   -0.0000   -0.0000   -0.0013
    55 C6     1s        -0.0001    0.0001   -0.0000    0.0005    0.0000    0.0001   -0.0005    0.0001    0.9997    0.0031
    56 C6     2s        -0.0005    0.0005   -0.0001    0.0027    0.0002    0.0006    0.0013    0.0005    0.0002    0.0258
    57 C6     3s        -0.0004    0.0003   -0.0001    0.0013    0.0001    0.0005    0.0008    0.0004   -0.0015    0.0189
    58 C6     4s        -0.0001    0.0001   -0.0000    0.0002    0.0000    0.0001    0.0001    0.0001    0.0009    0.0054
    59 C6     2px       -0.0001    0.0001   -0.0001   -0.0001   -0.0001   -0.0002   -0.0000    0.0000   -0.0000    0.0025
    60 C6     3px       -0.0000    0.0001   -0.0001    0.0001   -0.0001   -0.0002   -0.0002    0.0000    0.0000    0.0022
    61 C6     4px        0.0000   -0.0001    0.0000    0.0000    0.0000   -0.0000   -0.0001   -0.0000   -0.0002   -0.0006
    62 C6     2py        0.0001    0.0000    0.0000   -0.0003    0.0001    0.0000   -0.0000   -0.0000   -0.0001   -0.0042
    63 C6     3py        0.0001   -0.0000    0.0000   -0.0001    0.0001    0.0000   -0.0002   -0.0000    0.0002   -0.0029
    64 C6     4py       -0.0000   -0.0001    0.0000    0.0000   -0.0000   -0.0000   -0.0002    0.0000   -0.0002    0.0006
    65 C6     2pz       -0.0001    0.0004   -0.0001    0.0006   -0.0001    0.0003   -0.0003    0.0001   -0.0001    0.0068
    66 C6     3pz       -0.0001    0.0003   -0.0001   -0.0000   -0.0001    0.0002   -0.0004    0.0002   -0.0002    0.0073
    67 C6     4pz       -0.0000   -0.0000    0.0000   -0.0002   -0.0000   -0.0001   -0.0001    0.0000    0.0007    0.0017
    68 C6     3d2-       0.0000    0.0000    0.0000   -0.0001    0.0000    0.0000    0.0000   -0.0000   -0.0001   -0.0003
    69 C6     3d1-      -0.0000   -0.0000   -0.0000    0.0001    0.0000   -0.0000    0.0001   -0.0000    0.0001   -0.0001
    70 C6     3d0       -0.0000    0.0000    0.0000   -0.0001    0.0000    0.0000    0.0000   -0.0000   -0.0000    0.0001
    71 C6     3d1+       0.0000   -0.0000   -0.0000    0.0000    0.0000   -0.0000   -0.0000   -0.0000    0.0000   -0.0003
    72 C6     3d2+       0.0000   -0.0000    0.0000    0.0001    0.0000   -0.0000   -0.0000   -0.0000    0.0000   -0.0000
    73 C19    1s         0.0002    0.0001   -0.0000   -0.0000    0.0024    0.0002   -0.0002   -0.9999   -0.0000   -0.0137
    74 C19    2s         0.0015    0.0004   -0.0002   -0.0001   -0.0000    0.0004   -0.0003   -0.0019   -0.0002    0.0000
    75 C19    3s         0.0010    0.0003   -0.0000   -0.0000   -0.0001    0.0001   -0.0003    0.0005   -0.0002   -0.0343
    76 C19    4s         0.0001    0.0001   -0.0000    0.0000    0.0001   -0.0001   -0.0001   -0.0013   -0.0001   -0.0025
    77 C19    2px        0.0008   -0.0000   -0.0003   -0.0000   -0.0001    0.0003   -0.0001    0.0001   -0.0000   -0.0055
    78 C19    3px        0.0004    0.0000   -0.0002    0.0001   -0.0004    0.0003    0.0002    0.0001    0.0000   -0.0116
    79 C19    4px       -0.0003    0.0000    0.0000    0.0001   -0.0001    0.0000    0.0002   -0.0003    0.0000    0.0070
    80 C19    2py       -0.0003   -0.0001    0.0004   -0.0001    0.0003    0.0003   -0.0000    0.0001   -0.0001    0.0193
    81 C19    3py       -0.0004   -0.0002    0.0003   -0.0002    0.0001    0.0001   -0.0002   -0.0000   -0.0001   -0.0102
    82 C19    4py       -0.0001   -0.0001   -0.0001   -0.0000    0.0001   -0.0001   -0.0001   -0.0004   -0.0000    0.0032
    83 C19    2pz       -0.0001    0.0002    0.0001   -0.0002    0.0002    0.0001   -0.0000   -0.0001   -0.0000   -0.0016
    84 C19    3pz       -0.0000    0.0001    0.0001   -0.0003    0.0002    0.0001   -0.0000   -0.0001   -0.0000   -0.0041
    85 C19    4pz        0.0000   -0.0000    0.0000   -0.0000    0.0000    0.0000    0.0000   -0.0000   -0.0000   -0.0007
    86 C19    3d2-       0.0000    0.0000   -0.0000    0.0000    0.0000    0.0001    0.0000    0.0001    0.0000    0.0034
    87 C19    3d1-       0.0000   -0.0000    0.0000   -0.0000   -0.0000   -0.0000   -0.0000    0.0000   -0.0000   -0.0001
    88 C19    3d0       -0.0001    0.0000   -0.0001    0.0000    0.0001   -0.0000    0.0000   -0.0001    0.0000    0.0010
    89 C19    3d1+      -0.0000   -0.0000    0.0000    0.0000   -0.0000    0.0000    0.0000    0.0000   -0.0000    0.0004
    90 C19    3d2+       0.0001    0.0000   -0.0000    0.0000   -0.0001   -0.0000    0.0001   -0.0000    0.0000   -0.0063
    91 N2     1s         0.0000   -0.0000    0.9998    0.0001   -0.0003    0.0001    0.0000   -0.0001    0.0000   -0.0171
    92 N2     2s         0.0001   -0.0001   -0.0001    0.0003   -0.0006    0.0017    0.0003   -0.0005    0.0002    0.1363
    93 N2     3s         0.0001    0.0001   -0.0014    0.0002   -0.0006    0.0009    0.0003   -0.0004    0.0001   -0.0436
    94 N2     4s        -0.0000    0.0000    0.0005    0.0001   -0.0000    0.0003    0.0001   -0.0001    0.0000   -0.0112
    95 N2     2px       -0.0003   -0.0003    0.0002    0.0001   -0.0001    0.0007    0.0003    0.0003    0.0001   -0.0316
    96 N2     3px       -0.0004   -0.0004    0.0003    0.0002   -0.0000    0.0004    0.0004    0.0002    0.0001    0.0132
    97 N2     4px        0.0000   -0.0000   -0.0002    0.0001   -0.0003   -0.0000    0.0000   -0.0002   -0.0000   -0.0072
    98 N2     2py       -0.0018    0.0004   -0.0007    0.0004    0.0005    0.0007    0.0011    0.0002   -0.0001    0.0298
    99 N2     3py       -0.0022    0.0006    0.0001    0.0005    0.0006    0.0008    0.0014    0.0001   -0.0001   -0.0050
   100 N2     4py       -0.0000    0.0000    0.0005   -0.0000    0.0001    0.0003    0.0001   -0.0001   -0.0000   -0.0068
   101 N2     2pz        0.0000   -0.0002    0.0001    0.0003   -0.0002   -0.0001    0.0002    0.0000   -0.0003    0.0076
   102 N2     3pz        0.0001   -0.0003   -0.0003    0.0004   -0.0003   -0.0002   -0.0001    0.0001   -0.0004    0.0043
   103 N2     4pz        0.0000   -0.0000    0.0002    0.0001   -0.0001   -0.0001   -0.0000    0.0000   -0.0001    0.0020
   104 N2     3d2-       0.0001    0.0000   -0.0002    0.0000   -0.0001   -0.0000    0.0001    0.0000    0.0000   -0.0042
   105 N2     3d1-      -0.0000    0.0000   -0.0001    0.0000    0.0000   -0.0001    0.0000    0.0000    0.0000    0.0007
   106 N2     3d0       -0.0000    0.0000    0.0000    0.0000    0.0002    0.0001   -0.0000    0.0001   -0.0000   -0.0027
   107 N2     3d1+      -0.0000    0.0000    0.0000    0.0000    0.0000   -0.0000   -0.0000    0.0000    0.0000   -0.0002
   108 N2     3d2+      -0.0000   -0.0000   -0.0001    0.0000    0.0001   -0.0000    0.0000   -0.0000   -0.0000    0.0039
   109 N5     1s         0.0000    0.0001   -0.0001    0.9999    0.0000   -0.0000   -0.0003   -0.0000    0.0001   -0.0027
   110 N5     2s         0.0002    0.0009   -0.0002    0.0002    0.0002   -0.0001   -0.0004   -0.0003    0.0016   -0.0024
   111 N5     3s         0.0002    0.0006   -0.0001   -0.0013    0.0001   -0.0000   -0.0005   -0.0002    0.0009   -0.0091
   112 N5     4s         0.0001    0.0001   -0.0000    0.0005    0.0000   -0.0000   -0.0001   -0.0000    0.0003   -0.0017
   113 N5     2px        0.0001   -0.0006    0.0003   -0.0007    0.0002   -0.0000    0.0001   -0.0001    0.0002   -0.0077
   114 N5     3px        0.0001   -0.0007    0.0004   -0.0005    0.0005    0.0001   -0.0000   -0.0003    0.0003   -0.0130
   115 N5     4px        0.0000    0.0000    0.0001   -0.0001    0.0001    0.0000   -0.0001   -0.0001    0.0001   -0.0035
   116 N5     2py        0.0001   -0.0011    0.0003   -0.0011   -0.0001   -0.0000    0.0002    0.0000    0.0002   -0.0009
   117 N5     3py        0.0001   -0.0013    0.0004   -0.0008   -0.0000    0.0000   -0.0000   -0.0000    0.0005   -0.0048
   118 N5     4py       -0.0000    0.0000    0.0000    0.0004    0.0001    0.0001   -0.0000   -0.0000    0.0003   -0.0015
   119 N5     2pz       -0.0001    0.0006   -0.0003    0.0005   -0.0002    0.0001    0.0001    0.0003   -0.0012    0.0147
   120 N5     3pz       -0.0003    0.0007   -0.0004    0.0007   -0.0004    0.0001    0.0002    0.0005   -0.0011    0.0211
   121 N5     4pz       -0.0001   -0.0000   -0.0001    0.0000   -0.0001   -0.0001    0.0003    0.0001   -0.0001    0.0045
   122 N5     3d2-      -0.0000    0.0000   -0.0000    0.0001    0.0000    0.0000   -0.0001   -0.0000   -0.0000   -0.0001
   123 N5     3d1-       0.0000   -0.0001    0.0000    0.0000   -0.0000   -0.0000    0.0000    0.0000   -0.0000    0.0004
   124 N5     3d0        0.0000    0.0001   -0.0000   -0.0002   -0.0000    0.0000   -0.0001    0.0000   -0.0001    0.0004
   125 N5     3d1+      -0.0000   -0.0001    0.0000    0.0000   -0.0000   -0.0000    0.0001    0.0000    0.0000   -0.0001
   126 N5     3d2+       0.0000    0.0000    0.0000   -0.0000    0.0000   -0.0000    0.0000    0.0000    0.0000   -0.0001
   127 O7     1s         0.9997   -0.0000    0.0000    0.0000   -0.0003   -0.0000    0.0001   -0.0001    0.0000   -0.0257
   128 O7     2s        -0.0017   -0.0000    0.0002    0.0002    0.0004   -0.0000    0.0003   -0.0003    0.0000    0.6625
   129 O7     3s        -0.0015   -0.0000    0.0001    0.0001   -0.0001    0.0001    0.0002   -0.0003    0.0000   -0.0368
   130 O7     4s        -0.0001   -0.0000   -0.0000    0.0000   -0.0001    0.0000    0.0001   -0.0001    0.0000   -0.0140
   131 O7     2px        0.0001    0.0000   -0.0004    0.0001    0.0001   -0.0001   -0.0000   -0.0001    0.0000    0.0594
   132 O7     3px       -0.0002    0.0000   -0.0005    0.0001   -0.0004   -0.0000   -0.0001   -0.0001    0.0000   -0.0154
   133 O7     4px        0.0006   -0.0000   -0.0001    0.0000   -0.0001   -0.0000   -0.0001    0.0000    0.0000    0.0002
   134 O7     2py       -0.0002    0.0000   -0.0002    0.0001   -0.0008   -0.0000   -0.0000    0.0002    0.0000   -0.1360
   135 O7     3py        0.0006    0.0000   -0.0002    0.0001   -0.0003   -0.0001   -0.0000    0.0001    0.0000    0.0421
   136 O7     4py       -0.0013   -0.0000    0.0001    0.0001   -0.0002   -0.0000    0.0000   -0.0000    0.0000   -0.0001
   137 O7     2pz        0.0000    0.0000   -0.0000   -0.0000    0.0000    0.0000   -0.0001   -0.0000   -0.0000   -0.0056
   138 O7     3pz        0.0000   -0.0000    0.0000    0.0000    0.0001   -0.0000    0.0000   -0.0000   -0.0001    0.0017
   139 O7     4pz       -0.0001    0.0000    0.0000    0.0000    0.0000    0.0000    0.0000   -0.0000   -0.0000   -0.0002
   140 O7     3d2-       0.0001    0.0000    0.0000   -0.0000   -0.0002    0.0000   -0.0000   -0.0000   -0.0000   -0.0142
   141 O7     3d1-      -0.0000   -0.0000    0.0000    0.0000    0.0000    0.0000    0.0000   -0.0000    0.0000    0.0014
   142 O7     3d0       -0.0001    0.0000   -0.0000    0.0000   -0.0001   -0.0000    0.0000    0.0000    0.0000   -0.0101
   143 O7     3d1+      -0.0000   -0.0000    0.0000    0.0000   -0.0000   -0.0000    0.0000    0.0000    0.0000   -0.0006
   144 O7     3d2+       0.0001    0.0000   -0.0001    0.0000   -0.0002    0.0000   -0.0000    0.0000   -0.0000   -0.0130
   145 O8     1s         0.0000    0.9997    0.0000    0.0000    0.0000    0.0001   -0.0003   -0.0000   -0.0000   -0.0013
   146 O8     2s         0.0002   -0.0010    0.0001    0.0002    0.0002    0.0004    0.0003   -0.0000   -0.0003    0.0138
   147 O8     3s         0.0001   -0.0012    0.0001    0.0001    0.0001    0.0002   -0.0001   -0.0000   -0.0002   -0.0036
   148 O8     4s         0.0000    0.0002    0.0000    0.0000    0.0000    0.0000    0.0000   -0.0000   -0.0000   -0.0010
   149 O8     2px       -0.0001    0.0000   -0.0000   -0.0001   -0.0000   -0.0001   -0.0002   -0.0000   -0.0000   -0.0008
   150 O8     3px       -0.0001    0.0001   -0.0000   -0.0000   -0.0000   -0.0000   -0.0001   -0.0000   -0.0000    0.0021
   151 O8     4px       -0.0000   -0.0004    0.0000    0.0000    0.0000    0.0000   -0.0001   -0.0000   -0.0000    0.0002
   152 O8     2py       -0.0001   -0.0000   -0.0001    0.0000   -0.0001   -0.0003   -0.0007    0.0000    0.0001   -0.0015
   153 O8     3py       -0.0001    0.0005   -0.0001    0.0001   -0.0001   -0.0002   -0.0002    0.0000    0.0000    0.0041
   154 O8     4py        0.0000   -0.0012   -0.0000    0.0001    0.0000    0.0000   -0.0003    0.0000   -0.0000    0.0003
   155 O8     2pz       -0.0000   -0.0000   -0.0000    0.0003   -0.0000   -0.0001   -0.0001   -0.0000    0.0001    0.0001
   156 O8     3pz       -0.0000    0.0000   -0.0000    0.0003   -0.0001   -0.0001    0.0000   -0.0000    0.0000    0.0011
   157 O8     4pz       -0.0000   -0.0000   -0.0000    0.0000   -0.0000   -0.0000    0.0000    0.0000   -0.0000    0.0006
   158 O8     3d2-       0.0000   -0.0001    0.0000    0.0000    0.0000    0.0000    0.0001    0.0000    0.0000    0.0002
   159 O8     3d1-      -0.0000   -0.0000   -0.0000   -0.0001   -0.0000   -0.0000    0.0000    0.0000   -0.0000    0.0000
   160 O8     3d0       -0.0000    0.0001   -0.0000    0.0000   -0.0000   -0.0000   -0.0001    0.0000    0.0000   -0.0002
   161 O8     3d1+      -0.0000   -0.0000    0.0000   -0.0000   -0.0000   -0.0000    0.0000    0.0000   -0.0000    0.0000
   162 O8     3d2+      -0.0000    0.0001    0.0000   -0.0000    0.0000   -0.0001   -0.0001   -0.0000   -0.0000   -0.0004
   163 H9     1s         0.0002   -0.0004    0.0001   -0.0001    0.0001   -0.0001   -0.0002   -0.0003   -0.0001    0.0144
   164 H9     2s         0.0001   -0.0002    0.0000   -0.0000    0.0001   -0.0000   -0.0001    0.0003   -0.0001    0.0024
   165 H9     2px       -0.0000   -0.0000    0.0000   -0.0000    0.0001   -0.0000   -0.0000    0.0000   -0.0000    0.0011
   166 H9     2py       -0.0000   -0.0000   -0.0000   -0.0000    0.0001   -0.0000   -0.0000   -0.0000   -0.0000    0.0010
   167 H9     2pz       -0.0000    0.0001   -0.0000    0.0000   -0.0000    0.0000    0.0001   -0.0001    0.0000   -0.0004
   168 H10    1s         0.0001   -0.0001    0.0001   -0.0004    0.0004   -0.0000   -0.0003   -0.0005    0.0000    0.0099
   169 H10    2s         0.0001   -0.0001    0.0001   -0.0002    0.0003   -0.0000   -0.0001    0.0001    0.0000   -0.0011
   170 H10    2px       -0.0000   -0.0000    0.0000   -0.0001    0.0001   -0.0000   -0.0001   -0.0000   -0.0000    0.0011
   171 H10    2py       -0.0001   -0.0000   -0.0000    0.0000    0.0000   -0.0000    0.0000   -0.0000    0.0000    0.0009
   172 H10    2pz        0.0000   -0.0000   -0.0000   -0.0000    0.0001   -0.0000   -0.0001    0.0000   -0.0000    0.0008
   173 H11    1s        -0.0007   -0.0000    0.0004   -0.0000    0.0003    0.0002    0.0003   -0.0004   -0.0001    0.0162
   174 H11    2s        -0.0004   -0.0000    0.0003   -0.0000    0.0002    0.0001    0.0002    0.0002   -0.0001    0.0020
   175 H11    2px       -0.0000   -0.0000   -0.0001    0.0000    0.0000    0.0000   -0.0000   -0.0001   -0.0000    0.0006
   176 H11    2py       -0.0001    0.0000    0.0000    0.0000    0.0001    0.0000    0.0001    0.0000    0.0000    0.0015
   177 H11    2pz       -0.0000   -0.0000    0.0000    0.0000    0.0000    0.0000    0.0000    0.0000    0.0000    0.0005
   178 H12    1s        -0.0011    0.0005   -0.0005    0.0006    0.0003   -0.0004    0.0010    0.0005   -0.0003    0.0320
   179 H12    2s        -0.0007    0.0003   -0.0004    0.0004    0.0001   -0.0001    0.0006    0.0002   -0.0002   -0.0084
   180 H12    2px        0.0000   -0.0000    0.0002   -0.0000   -0.0001    0.0000   -0.0001   -0.0000   -0.0000   -0.0026
   181 H12    2py       -0.0000    0.0000   -0.0005    0.0001    0.0000   -0.0000    0.0000    0.0000   -0.0000    0.0056
   182 H12    2pz        0.0000    0.0000    0.0001   -0.0000    0.0000    0.0000    0.0000   -0.0000    0.0000   -0.0010
   183 H13    1s        -0.0005    0.0005   -0.0005   -0.0001   -0.0004    0.0010   -0.0003   -0.0002   -0.0001    0.0132
   184 H13    2s        -0.0003    0.0003   -0.0002   -0.0000   -0.0002    0.0002   -0.0001   -0.0001   -0.0001   -0.0010
   185 H13    2px        0.0001    0.0000    0.0000   -0.0000    0.0000    0.0000    0.0000    0.0000   -0.0000   -0.0009
   186 H13    2py        0.0000   -0.0000    0.0000    0.0000    0.0000   -0.0001   -0.0000    0.0000    0.0000   -0.0009
   187 H13    2pz        0.0000    0.0000   -0.0000   -0.0000    0.0000   -0.0001   -0.0000    0.0000    0.0000   -0.0011
   188 H14    1s         0.0003   -0.0004   -0.0002    0.0004   -0.0001    0.0007    0.0001    0.0002   -0.0002    0.0115
   189 H14    2s         0.0002   -0.0003   -0.0001    0.0002   -0.0001    0.0000    0.0002    0.0001   -0.0001    0.0020
   190 H14    2px       -0.0000    0.0000   -0.0000   -0.0001   -0.0000    0.0000    0.0000    0.0000    0.0000   -0.0008
   191 H14    2py        0.0000   -0.0000    0.0000   -0.0000   -0.0000   -0.0000    0.0000   -0.0000   -0.0000   -0.0001
   192 H14    2pz       -0.0000    0.0001   -0.0000    0.0000    0.0000    0.0000   -0.0001   -0.0000    0.0000   -0.0007
   193 H15    1s         0.0004   -0.0013    0.0005   -0.0010   -0.0004   -0.0002    0.0002    0.0003   -0.0004    0.0067
   194 H15    2s         0.0003   -0.0007    0.0004   -0.0007   -0.0003   -0.0001   -0.0001    0.0002   -0.0002    0.0013
   195 H15    2px       -0.0000   -0.0001    0.0000   -0.0003    0.0000    0.0000    0.0000    0.0000   -0.0000    0.0004
   196 H15    2py        0.0000   -0.0001    0.0001   -0.0004   -0.0001    0.0000    0.0001    0.0000   -0.0000    0.0012
   197 H15    2pz        0.0000    0.0000    0.0001    0.0000   -0.0000    0.0000    0.0001    0.0000   -0.0000    0.0001
   198 H16    1s         0.0001    0.0002   -0.0000   -0.0007   -0.0001    0.0002   -0.0006    0.0000    0.0004   -0.0020
   199 H16    2s         0.0000    0.0001   -0.0000   -0.0004   -0.0001    0.0001   -0.0004    0.0000   -0.0002   -0.0008
   200 H16    2px       -0.0000   -0.0000    0.0000    0.0000    0.0000   -0.0000    0.0001    0.0000    0.0000    0.0003
   201 H16    2py        0.0000    0.0000    0.0000   -0.0000    0.0000    0.0000   -0.0001   -0.0000   -0.0001   -0.0006
   202 H16    2pz        0.0000    0.0000   -0.0000   -0.0001   -0.0000    0.0000   -0.0000   -0.0000    0.0000   -0.0002
   203 H17    1s        -0.0001    0.0005   -0.0001   -0.0006   -0.0002   -0.0000   -0.0008    0.0000    0.0004    0.0025
   204 H17    2s        -0.0000    0.0003   -0.0001   -0.0003   -0.0001   -0.0000   -0.0005    0.0000   -0.0002    0.0016
   205 H17    2px       -0.0000    0.0000   -0.0000    0.0000   -0.0000    0.0000   -0.0001    0.0000   -0.0000    0.0002
   206 H17    2py       -0.0000   -0.0000   -0.0000    0.0000   -0.0000   -0.0000   -0.0000    0.0000   -0.0000    0.0002
   207 H17    2pz       -0.0000    0.0001   -0.0000   -0.0001   -0.0000   -0.0000   -0.0001    0.0000    0.0000    0.0000
   208 H18    1s         0.0000   -0.0001   -0.0000   -0.0004   -0.0001   -0.0001   -0.0005   -0.0000    0.0008    0.0019
   209 H18    2s         0.0000    0.0000   -0.0000   -0.0002   -0.0001   -0.0000   -0.0003   -0.0000    0.0000    0.0010
   210 H18    2px        0.0000   -0.0000    0.0000   -0.0000    0.0000    0.0000    0.0000   -0.0000   -0.0000   -0.0005
   211 H18    2py       -0.0000    0.0000   -0.0000    0.0000    0.0000   -0.0000    0.0001    0.0000   -0.0001   -0.0001
   212 H18    2pz       -0.0000   -0.0000   -0.0000    0.0000   -0.0000    0.0000    0.0000    0.0000    0.0000    0.0001
 
 
      Orbital                11        12        13        14        15        16        17        18        19        20
      Energy            -1.3653   -1.2620   -1.2094   -1.0418   -0.9723   -0.9167   -0.8216   -0.7608   -0.7202   -0.6952
      Occ. No.           2.0000    2.0000    2.0000    2.0000    2.0000    2.0000    2.0000    2.0000    2.0000    2.0000
 
     1 C1     1s         0.0035   -0.0065    0.0035   -0.0145   -0.0045   -0.0054    0.0131    0.0013    0.0051    0.0027
     2 C1     2s         0.0055    0.1225   -0.0345    0.2644    0.0185    0.0860   -0.3901    0.0137   -0.2794   -0.0987
     3 C1     3s         0.0145    0.0016    0.0089   -0.0203   -0.0125   -0.0087    0.0104    0.0045    0.0053    0.0170
     4 C1     4s         0.0042    0.0007    0.0030   -0.0044   -0.0045   -0.0029    0.0027    0.0013    0.0028    0.0028
     5 C1     2px        0.0296    0.1363   -0.0142   -0.0624    0.1223    0.0795   -0.1589    0.0134    0.2299    0.2030
     6 C1     3px        0.0231   -0.0471    0.0350   -0.0316   -0.0376   -0.0263    0.0222   -0.0137   -0.0892   -0.0172
     7 C1     4px        0.0057    0.0220    0.0002   -0.0171    0.0132    0.0065   -0.0144   -0.0009    0.0051    0.0172
     8 C1     2py        0.0118   -0.0708    0.0262   -0.1602   -0.0033   -0.0344   -0.0136    0.0484    0.0829   -0.1429
     9 C1     3py        0.0289    0.0617   -0.0009    0.0454   -0.0559   -0.0346   -0.0162   -0.0128   -0.0413    0.0694
    10 C1     4py        0.0017   -0.0113    0.0055   -0.0249    0.0003   -0.0062   -0.0033    0.0013   -0.0022   -0.0095
    11 C1     2pz       -0.0006   -0.0045   -0.0038   -0.0076   -0.0050   -0.0021    0.0077    0.0050   -0.0019   -0.0595
    12 C1     3pz        0.0007   -0.0004   -0.0062    0.0033   -0.0085    0.0086   -0.0013   -0.0012    0.0002    0.0087
    13 C1     4pz        0.0003   -0.0009   -0.0020   -0.0004   -0.0017    0.0001   -0.0004   -0.0001    0.0001   -0.0019
    14 C1     3d2-       0.0019    0.0040   -0.0003    0.0108   -0.0150   -0.0085   -0.0124    0.0078    0.0083   -0.0015
    15 C1     3d1-      -0.0005   -0.0013   -0.0005    0.0002   -0.0002   -0.0010   -0.0008    0.0022   -0.0034    0.0016
    16 C1     3d0        0.0004   -0.0061    0.0018   -0.0109   -0.0029   -0.0046    0.0135    0.0004    0.0050    0.0014
    17 C1     3d1+       0.0001    0.0002    0.0000   -0.0001   -0.0001    0.0000    0.0021   -0.0016    0.0018   -0.0070
    18 C1     3d2+       0.0031    0.0315   -0.0071    0.0011    0.0115    0.0065   -0.0119    0.0028    0.0175    0.0066
    19 C3     1s        -0.0128   -0.0287    0.0015    0.0320    0.0282    0.0219    0.0008   -0.0032    0.0008    0.0071
    20 C3     2s         0.0207    0.1586   -0.0082   -0.2061   -0.3488   -0.3150   -0.1213    0.0756   -0.1061    0.0696
    21 C3     3s        -0.0333   -0.0527    0.0015    0.0668    0.0337    0.0201   -0.0069   -0.0008   -0.0067    0.0250
    22 C3     4s        -0.0041   -0.0116    0.0019    0.0172    0.0093    0.0064   -0.0004   -0.0011   -0.0002    0.0035
    23 C3     2px        0.0148   -0.0572    0.0274   -0.0137   -0.0446   -0.0150    0.0171   -0.0927   -0.2068    0.1012
    24 C3     3px        0.0139    0.0204    0.0149   -0.0465    0.0013   -0.0265   -0.0077    0.0100    0.0308   -0.0243
    25 C3     4px        0.0052    0.0003    0.0065   -0.0111   -0.0076   -0.0099   -0.0008   -0.0048   -0.0092    0.0069
    26 C3     2py        0.0223   -0.0924    0.0134    0.0185   -0.0054   -0.0065   -0.1615   -0.0405   -0.0473    0.2542
    27 C3     3py        0.0084   -0.0055    0.0121   -0.0112    0.0443   -0.0192   -0.0084    0.0076    0.0206   -0.0277
    28 C3     4py        0.0033   -0.0053    0.0099   -0.0032   -0.0035   -0.0070   -0.0157   -0.0032    0.0015    0.0069
    29 C3     2pz       -0.0062   -0.0049   -0.0339    0.0124    0.0338   -0.0561    0.0121    0.1415   -0.0334   -0.0721
    30 C3     3pz        0.0124    0.0266   -0.0060   -0.0115   -0.0289   -0.0058   -0.0079   -0.0066    0.0012    0.0121
    31 C3     4pz       -0.0085    0.0081   -0.0016   -0.0080   -0.0119   -0.0171   -0.0025    0.0072   -0.0057    0.0020
    32 C3     3d2-       0.0018    0.0202   -0.0041   -0.0067    0.0033   -0.0001    0.0062    0.0027    0.0201   -0.0178
    33 C3     3d1-      -0.0053    0.0029   -0.0002    0.0001    0.0065   -0.0019    0.0024    0.0113    0.0088   -0.0066
    34 C3     3d0       -0.0031   -0.0075    0.0067    0.0022   -0.0089    0.0059   -0.0094   -0.0136   -0.0081    0.0196
    35 C3     3d1+      -0.0018    0.0020   -0.0003    0.0002    0.0035   -0.0011    0.0050    0.0054    0.0007   -0.0086
    36 C3     3d2+      -0.0004   -0.0031    0.0026    0.0024   -0.0003    0.0028   -0.0136    0.0002    0.0034    0.0026
    37 C4     1s        -0.0388    0.0051   -0.0079    0.0055    0.0121   -0.0069    0.0040    0.0144   -0.0009   -0.0019
    38 C4     2s         0.3618    0.0639    0.1122   -0.0672   -0.2437    0.0856   -0.1130   -0.3725   -0.0009    0.1102
    39 C4     3s         0.0011    0.0282   -0.0020    0.0157    0.0022   -0.0075   -0.0005    0.0029   -0.0042    0.0048
    40 C4     4s         0.0046    0.0072   -0.0002    0.0057    0.0022   -0.0029    0.0012    0.0041   -0.0007   -0.0008
    41 C4     2px        0.0366   -0.0276   -0.0122    0.0271    0.0463   -0.0074    0.0158    0.0066   -0.0088   -0.0367
    42 C4     3px       -0.0293   -0.0010    0.0204   -0.0004   -0.0031   -0.0219   -0.0201    0.0021    0.0042    0.0200
    43 C4     4px        0.0103   -0.0021   -0.0008    0.0026    0.0046   -0.0033   -0.0011   -0.0004   -0.0009   -0.0014
    44 C4     2py        0.0863   -0.0459   -0.1005    0.0319    0.1114   -0.0664    0.0385    0.1372    0.0043   -0.0290
    45 C4     3py       -0.0665    0.0185    0.0606   -0.0266   -0.0312   -0.0186   -0.0016   -0.0254   -0.0046    0.0006
    46 C4     4py        0.0256   -0.0087   -0.0185    0.0007    0.0120   -0.0086    0.0031    0.0056   -0.0001   -0.0006
    47 C4     2pz       -0.0164    0.0045   -0.1289   -0.0310   -0.0717   -0.0428   -0.0122    0.0859   -0.0930    0.1382
    48 C4     3pz       -0.0068   -0.0045   -0.0293    0.0216   -0.0249    0.1251    0.0443   -0.0282    0.0390   -0.0736
    49 C4     4pz       -0.0048   -0.0042   -0.0307   -0.0028   -0.0115    0.0082    0.0043    0.0076   -0.0052    0.0030
    50 C4     3d2-       0.0257   -0.0026   -0.0087    0.0001   -0.0009   -0.0001   -0.0002    0.0039   -0.0001    0.0029
    51 C4     3d1-       0.0085   -0.0009    0.0173    0.0050    0.0004    0.0201    0.0027   -0.0048    0.0068   -0.0080
    52 C4     3d0       -0.0146    0.0053    0.0223   -0.0045   -0.0126   -0.0003   -0.0092   -0.0228    0.0012   -0.0002
    53 C4     3d1+      -0.0004   -0.0032   -0.0007    0.0032    0.0041    0.0043    0.0053    0.0077   -0.0037    0.0014
    54 C4     3d2+      -0.0323    0.0027    0.0038   -0.0001    0.0033   -0.0070   -0.0025   -0.0001    0.0015   -0.0012
    55 C6     1s        -0.0027    0.0014   -0.0307   -0.0099   -0.0361    0.0454   -0.0003   -0.0009    0.0046   -0.0044
    56 C6     2s         0.0684    0.0539    0.1937    0.0607    0.2232   -0.3851   -0.0720   -0.1497    0.0129    0.0409
    57 C6     3s         0.0190    0.0219   -0.0387   -0.0155   -0.0729    0.0773   -0.0113   -0.0241    0.0189   -0.0119
    58 C6     4s         0.0084    0.0068   -0.0045   -0.0025   -0.0164    0.0167   -0.0026   -0.0053    0.0044   -0.0032
    59 C6     2px       -0.0040   -0.0015   -0.0257   -0.0003   -0.0053   -0.0178   -0.0181   -0.0727    0.0036   -0.0082
    60 C6     3px       -0.0017    0.0033    0.0047    0.0047    0.0033   -0.0100   -0.0103    0.0003   -0.0023    0.0088
    61 C6     4px       -0.0027    0.0000   -0.0022    0.0001    0.0039   -0.0074   -0.0002   -0.0012   -0.0016    0.0018
    62 C6     2py        0.0011   -0.0136   -0.0363   -0.0081   -0.0109    0.0063   -0.0171   -0.1584    0.0542   -0.0511
    63 C6     3py        0.0049   -0.0061    0.0059    0.0009    0.0004    0.0139   -0.0000    0.0037   -0.0017    0.0053
    64 C6     4py       -0.0007    0.0005   -0.0028    0.0019    0.0031   -0.0064   -0.0027   -0.0107    0.0028   -0.0006
    65 C6     2pz        0.0183    0.0195    0.0967    0.0225    0.0100    0.0337    0.0186    0.0391    0.0379   -0.1463
    66 C6     3pz       -0.0013    0.0080   -0.0192    0.0012   -0.0238    0.0072   -0.0013   -0.0045   -0.0082    0.0185
    67 C6     4pz        0.0080    0.0026    0.0010   -0.0022   -0.0140    0.0222    0.0011   -0.0018    0.0036   -0.0071
    68 C6     3d2-       0.0004    0.0001    0.0043    0.0008    0.0026   -0.0005    0.0015    0.0026    0.0021   -0.0053
    69 C6     3d1-      -0.0012   -0.0022   -0.0138   -0.0025   -0.0041   -0.0011   -0.0038   -0.0189    0.0025    0.0032
    70 C6     3d0        0.0032    0.0018    0.0158    0.0025    0.0035    0.0021    0.0009    0.0007    0.0035   -0.0115
    71 C6     3d1+      -0.0021   -0.0016   -0.0101   -0.0020   -0.0021   -0.0011   -0.0013   -0.0075   -0.0003    0.0041
    72 C6     3d2+       0.0001    0.0002   -0.0011   -0.0011   -0.0023    0.0016   -0.0007   -0.0003   -0.0009    0.0049
    73 C19    1s         0.0027   -0.0082    0.0017   -0.0587    0.0308    0.0126   -0.0168   -0.0033   -0.0177    0.0018
    74 C19    2s         0.0169    0.0155   -0.0160    0.3780   -0.2600   -0.1297    0.0455    0.0258    0.0690    0.0139
    75 C19    3s         0.0162   -0.0207    0.0052   -0.1014    0.0452    0.0148   -0.0531   -0.0080   -0.0595    0.0088
    76 C19    4s         0.0053   -0.0024    0.0020   -0.0208    0.0103    0.0036   -0.0138   -0.0020   -0.0173    0.0010
    77 C19    2px        0.0006    0.0263   -0.0063    0.0567    0.0158    0.0304   -0.0679   -0.0370   -0.1199    0.1185
    78 C19    3px       -0.0043   -0.0059    0.0055   -0.0181    0.0152    0.0028    0.0248    0.0026    0.0525   -0.0227
    79 C19    4px       -0.0029   -0.0017    0.0024   -0.0185    0.0191    0.0098    0.0034   -0.0035    0.0016   -0.0057
    80 C19    2py        0.0035    0.0027    0.0081    0.0326    0.0026    0.0169   -0.0716   -0.0256   -0.2512   -0.0891
    81 C19    3py        0.0058   -0.0036    0.0102   -0.0421    0.0132    0.0022    0.0054   -0.0016    0.0514    0.0434
    82 C19    4py        0.0006    0.0012   -0.0007   -0.0142    0.0091    0.0058   -0.0166   -0.0005   -0.0082    0.0077
    83 C19    2pz        0.0001   -0.0033   -0.0004   -0.0037    0.0025    0.0002    0.0036   -0.0017   -0.0139   -0.0405
    84 C19    3pz       -0.0009   -0.0031   -0.0003   -0.0108    0.0064    0.0018    0.0066   -0.0059    0.0073    0.0040
    85 C19    4pz       -0.0008    0.0001   -0.0004   -0.0029    0.0022   -0.0005    0.0019   -0.0018    0.0054   -0.0006
    86 C19    3d2-      -0.0001    0.0046   -0.0008    0.0140   -0.0009    0.0029   -0.0094   -0.0028   -0.0254   -0.0070
    87 C19    3d1-       0.0002    0.0001   -0.0003    0.0010   -0.0005   -0.0003   -0.0007   -0.0003   -0.0005    0.0017
    88 C19    3d0       -0.0002   -0.0012    0.0007   -0.0093    0.0020   -0.0013    0.0055    0.0029    0.0125   -0.0093
    89 C19    3d1+      -0.0003   -0.0000    0.0004   -0.0005    0.0005   -0.0001    0.0010   -0.0001    0.0002   -0.0030
    90 C19    3d2+       0.0000    0.0041   -0.0005   -0.0039    0.0037    0.0011    0.0017    0.0006    0.0105    0.0012
    91 N2     1s        -0.0018   -0.0392    0.0056   -0.0012   -0.0049   -0.0024   -0.0061    0.0017    0.0023   -0.0003
    92 N2     2s         0.0323    0.5803   -0.1390   -0.0742    0.1952    0.0656    0.1430   -0.0072    0.1339   -0.0535
    93 N2     3s        -0.0059   -0.0705    0.0049   -0.0067    0.0016   -0.0012   -0.0125    0.0034    0.0113   -0.0017
    94 N2     4s        -0.0024   -0.0243    0.0031    0.0003   -0.0019   -0.0006   -0.0042   -0.0001    0.0003    0.0003
    95 N2     2px        0.0104   -0.0379    0.0174   -0.1471   -0.0936   -0.1182    0.3300    0.0108   -0.0607   -0.2397
    96 N2     3px        0.0024   -0.0254   -0.0016    0.0095    0.0684    0.0584   -0.0866   -0.0068    0.0089    0.0449
    97 N2     4px       -0.0003   -0.0017    0.0012   -0.0088    0.0080    0.0048    0.0001   -0.0033   -0.0006    0.0053
    98 N2     2py       -0.0101   -0.0174    0.0213   -0.1021   -0.0543   -0.0788   -0.2255    0.1768    0.3170   -0.2316
    99 N2     3py       -0.0249   -0.0597    0.0214   -0.0030    0.0791    0.0426    0.0933   -0.0456   -0.0111   -0.0279
   100 N2     4py       -0.0025   -0.0167    0.0044   -0.0034    0.0062    0.0047   -0.0045   -0.0032    0.0054   -0.0024
   101 N2     2pz        0.0052    0.0224    0.0004    0.0018    0.0181   -0.0253    0.0208   -0.0166    0.0257   -0.1634
   102 N2     3pz        0.0027    0.0046    0.0059    0.0154    0.0100   -0.0166   -0.0170   -0.0117    0.0021    0.0119
   103 N2     4pz        0.0004    0.0050   -0.0005    0.0030    0.0023   -0.0055   -0.0010   -0.0007   -0.0014    0.0061
   104 N2     3d2-       0.0009    0.0051   -0.0002   -0.0032   -0.0111   -0.0095    0.0024    0.0054    0.0045   -0.0090
   105 N2     3d1-      -0.0005    0.0007   -0.0004   -0.0021   -0.0014   -0.0037   -0.0031    0.0060    0.0049   -0.0056
   106 N2     3d0       -0.0014   -0.0143    0.0039    0.0020   -0.0029   -0.0013    0.0010    0.0016   -0.0012   -0.0021
   107 N2     3d1+      -0.0006    0.0006   -0.0005   -0.0019   -0.0011   -0.0030    0.0040    0.0019   -0.0008   -0.0020
   108 N2     3d2+       0.0004    0.0075   -0.0012    0.0072    0.0051    0.0056   -0.0222    0.0028    0.0041    0.0057
   109 N5     1s        -0.0199   -0.0089   -0.0415   -0.0039    0.0004   -0.0032   -0.0010   -0.0020    0.0013   -0.0030
   110 N5     2s         0.1156    0.0734    0.5753    0.0267   -0.0222    0.2201    0.0507    0.1606    0.0158   -0.0906
   111 N5     3s        -0.0538   -0.0187   -0.0792   -0.0127   -0.0075    0.0101    0.0008    0.0078    0.0038   -0.0137
   112 N5     4s        -0.0130   -0.0046   -0.0265   -0.0036   -0.0033    0.0000   -0.0004    0.0010    0.0001   -0.0012
   113 N5     2px        0.0150   -0.0146   -0.0123    0.0053    0.0399   -0.0426    0.0079   -0.1148    0.0200   -0.0978
   114 N5     3px        0.0137   -0.0127   -0.0035   -0.0183   -0.0079    0.0446    0.0264    0.0188   -0.0030    0.0087
   115 N5     4px       -0.0014   -0.0039   -0.0032   -0.0055    0.0008    0.0034    0.0009   -0.0044    0.0019   -0.0000
   116 N5     2py        0.0417   -0.0060    0.0036    0.0104    0.0121   -0.0223   -0.0379   -0.3584    0.1319   -0.1869
   117 N5     3py       -0.0037   -0.0111   -0.0449   -0.0011   -0.0094    0.0507    0.0311    0.0710   -0.0183    0.0201
   118 N5     4py       -0.0022   -0.0049   -0.0111   -0.0032   -0.0022    0.0049   -0.0020   -0.0062    0.0006   -0.0009
   119 N5     2pz       -0.0011    0.0348    0.0090   -0.0374   -0.1664    0.1466   -0.0232   -0.2175    0.0378    0.0101
   120 N5     3pz       -0.0304    0.0398    0.0112    0.0223    0.0390   -0.1107    0.0034    0.0766   -0.0098   -0.0116
   121 N5     4pz        0.0059    0.0064   -0.0010    0.0006   -0.0045   -0.0082   -0.0001    0.0058   -0.0007   -0.0016
   122 N5     3d2-       0.0008    0.0004    0.0062    0.0001    0.0011    0.0030    0.0018    0.0118   -0.0033    0.0027
   123 N5     3d1-       0.0046    0.0007    0.0034   -0.0015   -0.0091    0.0120   -0.0016   -0.0147    0.0034   -0.0007
   124 N5     3d0        0.0013    0.0034    0.0151    0.0004   -0.0005   -0.0039   -0.0028   -0.0132    0.0021   -0.0034
   125 N5     3d1+       0.0012   -0.0015   -0.0057   -0.0001   -0.0011    0.0018    0.0007   -0.0001   -0.0009    0.0008
   126 N5     3d2+      -0.0034   -0.0006   -0.0071   -0.0007   -0.0002   -0.0045   -0.0007   -0.0005   -0.0014    0.0021
   127 O7     1s         0.0005    0.0041   -0.0007   -0.0040    0.0019   -0.0003    0.0124   -0.0027    0.0133    0.0187
   128 O7     2s        -0.0485   -0.3108    0.0597   -0.2092    0.0236   -0.0280    0.3387   -0.0645    0.2275    0.3301
   129 O7     3s        -0.0022   -0.0059    0.0010   -0.0222    0.0085   -0.0001    0.0414   -0.0092    0.0396    0.0537
   130 O7     4s        -0.0003    0.0009   -0.0002   -0.0045    0.0023    0.0006    0.0082   -0.0020    0.0083    0.0112
   131 O7     2px       -0.0015    0.0154   -0.0056   -0.0269    0.0359    0.0305   -0.1802    0.0510    0.0803   -0.0616
   132 O7     3px        0.0022    0.0087   -0.0037   -0.0046   -0.0086   -0.0066    0.0108   -0.0050   -0.0088    0.0146
   133 O7     4px        0.0012    0.0019   -0.0006   -0.0006   -0.0037   -0.0027    0.0005   -0.0005   -0.0049    0.0003
   134 O7     2py        0.0086    0.0506   -0.0068   -0.0271    0.0108   -0.0017    0.1270   -0.0287    0.2693    0.3822
   135 O7     3py       -0.0027    0.0008   -0.0013    0.0119   -0.0027    0.0014   -0.0273    0.0063   -0.0333   -0.0409
   136 O7     4py       -0.0001   -0.0006    0.0002   -0.0010   -0.0010   -0.0011   -0.0021    0.0007   -0.0049   -0.0054
   137 O7     2pz       -0.0033   -0.0004   -0.0055   -0.0038   -0.0016   -0.0200    0.0081    0.0250   -0.0190   -0.0015
   138 O7     3pz       -0.0008   -0.0006    0.0010    0.0011    0.0028   -0.0020   -0.0017    0.0029   -0.0031    0.0042
[...]
ATVX     1  Mu1.0002  Se1.062                       0.25218852      0.00228854     -0.00363154     -0.00000831
ATVX     1  Mu1.0003  Se1.062                       0.29806058      0.00305039     -0.00400190     -0.00001221
ATVX     1  Mu1.0001  Se1.063                       0.25955764     -0.00019860      0.00032052     -0.00000006
ATVX     1  Mu1.0002  Se1.063                       0.27490040      0.00127404     -0.00208533     -0.00000266
ATVX     1  Mu1.0001  Se1.064                       0.26192649     -0.00254332      0.00404043     -0.00001028
ATVX     1  Mu1.0002  Se1.064                       0.27726925     -0.00147168      0.00263870     -0.00000388
ATVX     1  Mu1.0001  Se1.065                       0.25425372     -0.00021325      0.00062888     -0.00000013
ATVX     1  Mu1.0002  Se1.065                       0.26959648     -0.00373097      0.00608490     -0.00002270
ATVX     1  Mu1.0001  Se1.066                       0.28990603      0.00118574     -0.00181518     -0.00000215
AIVX     1  Mu1.0001  In1.020 Se1.038               0.24525139      0.00020399     -0.00045133     -0.00000009
AIVX     1  Mu1.0001  In1.021 Se1.038               0.23099997      0.00198099     -0.00362668     -0.00000718
AIVX     1  Mu1.0001  In1.022 Se1.038               0.29367757      0.00065362     -0.00058818     -0.00000038
AIVX     1  Mu1.0001  In1.024 Se1.038               0.15607220     -0.00017589     -0.00036965      0.00000007
AIVX     1  Mu1.0001  In1.025 Se1.038               0.18966889     -0.00080416      0.00200194     -0.00000161
AIVX     1  Mu1.0001  In1.026 Se1.038               0.14214980      0.00031267     -0.00091715     -0.00000029
AIVX     1  Mu1.0001  In1.027 Se1.038               0.12391288     -0.00079117      0.00162114     -0.00000128
AIVX     1  Mu1.0001  In1.028 Se1.038               0.10511709      0.00107072     -0.00236131     -0.00000253
AIVX     1  Mu1.0001  In1.029 Se1.038               0.19411409     -0.00080204      0.00131260     -0.00000105
AIVX     1  Mu1.0001  In1.020 Se1.039               0.26805023      0.00074503     -0.00094855     -0.00000071
AIVX     1  Mu1.0001  In1.021 Se1.039               0.25379880     -0.00175264      0.00266582     -0.00000467
AIVX     1  Mu1.0001  In1.024 Se1.039               0.17887103     -0.00073724      0.00200680     -0.00000148
AIVX     1  Mu1.0001  In1.025 Se1.039               0.21246773      0.00026939     -0.00072999     -0.00000020
AIVX     1  Mu1.0001  In1.026 Se1.039               0.16494863     -0.00076036      0.00141227     -0.00000107
AIVX     1  Mu1.0001  In1.027 Se1.039               0.14671172      0.00052979     -0.00038979     -0.00000021
AIVX     1  Mu1.0001  In1.028 Se1.039               0.12791593      0.00013176     -0.00075270     -0.00000010
AIVX     1  Mu1.0001  In1.029 Se1.039               0.21691292     -0.00074995      0.00126199     -0.00000095
AIVX     1  Mu1.0001  In1.020 Se1.040               0.29448410     -0.00068929      0.00089108     -0.00000061
AIVX     1  Mu1.0001  In1.021 Se1.040               0.28023268     -0.00144039      0.00245530     -0.00000354
AIVX     1  Mu1.0001  In1.024 Se1.040               0.20530491      0.00015706      0.00071800      0.00000011
AIVX     1  Mu1.0001  In1.025 Se1.040               0.23890160      0.00072970     -0.00132218     -0.00000096
AIVX     1  Mu1.0001  In1.026 Se1.040               0.19138251     -0.00411338      0.00806580     -0.00003318
AIVX     1  Mu1.0001  In1.027 Se1.040               0.17314559     -0.00280776      0.00592295     -0.00001663
AIVX     1  Mu1.0001  In1.028 Se1.040               0.15434980     -0.00025586      0.00042811     -0.00000011
AIVX     1  Mu1.0001  In1.029 Se1.040               0.24334680     -0.00063657      0.00119233     -0.00000076
AIVX     1  Mu1.0001  In1.020 Se1.041               0.25010575      0.00012369     -0.00029591     -0.00000004
AIVX     1  Mu1.0001  In1.021 Se1.041               0.23585432     -0.00087224      0.00154640     -0.00000135
AIVX     1  Mu1.0001  In1.022 Se1.041               0.29853192      0.00099876     -0.00174416     -0.00000174
AIVX     1  Mu1.0001  In1.024 Se1.041               0.16092655     -0.00047163      0.00132638     -0.00000063
AIVX     1  Mu1.0001  In1.025 Se1.041               0.19452325      0.00076256     -0.00118979     -0.00000091
AIVX     1  Mu1.0001  In1.026 Se1.041               0.14700415     -0.00144658      0.00324266     -0.00000469
AIVX     1  Mu1.0001  In1.027 Se1.041               0.12876724      0.00009249      0.00031149      0.00000003
AIVX     1  Mu1.0001  In1.028 Se1.041               0.10997145      0.00111629     -0.00264577     -0.00000295
AIVX     1  Mu1.0001  In1.029 Se1.041               0.19896845     -0.00115316      0.00197278     -0.00000227
AIVX     1  Mu1.0001  In1.024 Se1.042               0.22984538      0.00038901     -0.00067766     -0.00000026
AIVX     1  Mu1.0001  In1.025 Se1.042               0.26344207      0.00142352     -0.00226056     -0.00000322
AIVX     1  Mu1.0001  In1.026 Se1.042               0.21592298      0.00046841     -0.00028956     -0.00000014
AIVX     1  Mu1.0001  In1.027 Se1.042               0.19768606      0.00143838     -0.00316362     -0.00000455
AIVX     1  Mu1.0001  In1.028 Se1.042               0.17889027      0.00076001     -0.00108196     -0.00000082
AIVX     1  Mu1.0001  In1.029 Se1.042               0.26788727     -0.00027710      0.00093858     -0.00000026
AIVX     1  Mu1.0001  In1.024 Se1.043               0.23404344     -0.00137846      0.00308648     -0.00000425
AIVX     1  Mu1.0001  In1.025 Se1.043               0.26764014      0.00113210     -0.00169762     -0.00000192
AIVX     1  Mu1.0001  In1.026 Se1.043               0.22012104      0.00103293     -0.00121383     -0.00000125
AIVX     1  Mu1.0001  In1.027 Se1.043               0.20188413      0.00000994      0.00018084      0.00000000
AIVX     1  Mu1.0001  In1.028 Se1.043               0.18308834     -0.00053913      0.00103404     -0.00000056
AIVX     1  Mu1.0001  In1.029 Se1.043               0.27208533      0.00070720     -0.00121645     -0.00000086
AIVX     1  Mu1.0001  In1.024 Se1.044               0.24399885     -0.00079527      0.00134735     -0.00000107
AIVX     1  Mu1.0001  In1.025 Se1.044               0.27759554      0.00075110     -0.00134729     -0.00000101
AIVX     1  Mu1.0001  In1.026 Se1.044               0.23007645     -0.00170442      0.00330880     -0.00000564
AIVX     1  Mu1.0001  In1.027 Se1.044               0.21183954      0.00095891     -0.00196664     -0.00000189
AIVX     1  Mu1.0001  In1.028 Se1.044               0.19304374      0.00007688      0.00013479      0.00000001
AIVX     1  Mu1.0001  In1.029 Se1.044               0.28204074     -0.00109529      0.00211022     -0.00000231
AIVX     1  Mu1.0001  In1.024 Se1.045               0.25075834     -0.00337987      0.00679248     -0.00002296
AIVX     1  Mu1.0001  In1.025 Se1.045               0.28435504      0.00009576     -0.00006761     -0.00000001
AIVX     1  Mu1.0001  In1.026 Se1.045               0.23683594     -0.00115077      0.00227004     -0.00000261
AIVX     1  Mu1.0001  In1.027 Se1.045               0.21859903     -0.00093017      0.00248649     -0.00000231
AIVX     1  Mu1.0001  In1.028 Se1.045               0.19980324      0.00015189     -0.00053895     -0.00000008
AIVX     1  Mu1.0001  In1.029 Se1.045               0.28880024      0.00057234     -0.00126765     -0.00000073
AIVX     1  Mu1.0001  In1.024 Se1.046               0.26078671      0.00113238     -0.00182771     -0.00000207
AIVX     1  Mu1.0001  In1.025 Se1.046               0.29438341      0.00009758     -0.00027854     -0.00000003
AIVX     1  Mu1.0001  In1.026 Se1.046               0.24686431      0.00169960     -0.00309870     -0.00000527
AIVX     1  Mu1.0001  In1.027 Se1.046               0.22862740      0.00138463     -0.00266731     -0.00000369
AIVX     1  Mu1.0001  In1.028 Se1.046               0.20983161      0.00020843     -0.00037181     -0.00000008
AIVX     1  Mu1.0001  In1.029 Se1.046               0.29882861      0.00025359     -0.00035700     -0.00000009
AIVX     1  Mu1.0001  In1.024 Se1.047               0.28239609     -0.00077003      0.00180326     -0.00000139
AIVX     1  Mu1.0001  In1.026 Se1.047               0.26847368     -0.00323113      0.00600890     -0.00001942
AIVX     1  Mu1.0001  In1.027 Se1.047               0.25023677     -0.00119502      0.00218749     -0.00000261
AIVX     1  Mu1.0001  In1.028 Se1.047               0.23144098      0.00062666     -0.00070170     -0.00000044
AIVX     1  Mu1.0001  In1.024 Se1.048               0.29144795      0.00096745     -0.00139240     -0.00000135
AIVX     1  Mu1.0001  In1.026 Se1.048               0.27752555      0.00095502     -0.00177669     -0.00000170
AIVX     1  Mu1.0001  In1.027 Se1.048               0.25928864      0.00111863     -0.00140071     -0.00000157
AIVX     1  Mu1.0001  In1.028 Se1.048               0.24049284     -0.00069742      0.00076498     -0.00000053
AIVX     1  Mu1.0001  In1.027 Se1.049               0.28471976     -0.00080586      0.00167303     -0.00000135
AIVX     1  Mu1.0001  In1.028 Se1.049               0.26592397     -0.00217499      0.00327686     -0.00000713
AIVX     1  Mu1.0001  In1.028 Se1.050               0.28608893     -0.00064478      0.00124121     -0.00000080
--
 
   (Skipping property calculation,
    use PROP keyword to activate)
--
 
  Total CASPT2 energies:
::    CASPT2 Root  1     Total energy:   -455.33772108
::    CASPT2 Root  2     Total energy:   -455.13255929
::    CASPT2 Root  3     Total energy:   -455.08236343
::    CASPT2 Root  4     Total energy:   -455.03240679
::    CASPT2 Root  5     Total energy:   -454.97354802
::    CASPT2 Root  6     Total energy:   -455.01093774
::    CASPT2 Root  7     Total energy:   -455.00546786
 
++ Multi-State CASPT2 section:
********************************************************************************
  MULTI-STATE CASPT2 SECTION
--------------------------------------------------------------------------------
 
  Output diagonal energies have been shifted. Add   -455.000000000000     
 
  Effective Hamiltonian matrix (Symmetric):
 
                1               2               3               4               5
   1        -0.33772108
   2         0.00006093     -0.13255929
   3         0.01469391      0.00000945     -0.08236343
   4        -0.00128620      0.00942151     -0.00141532     -0.03240679
   5         0.00146001      0.00424873     -0.00006292     -0.02037311      0.02645198
   6        -0.00970942      0.00014245     -0.00728935     -0.00436991      0.00969501
   7        -0.00677600     -0.00206688     -0.00783649      0.00305899     -0.00658636
 
                6               7
   6        -0.01093774
   7         0.02277018     -0.00546786
 
       Total MS-CASPT2 energies:
::    MS-CASPT2 Root  1     Total energy:   -455.33893529
::    MS-CASPT2 Root  2     Total energy:   -455.13371527
::    MS-CASPT2 Root  3     Total energy:   -455.08288635
::    MS-CASPT2 Root  4     Total energy:   -455.03804685
::    MS-CASPT2 Root  5     Total energy:   -455.03307074
::    MS-CASPT2 Root  6     Total energy:   -454.98372325
::    MS-CASPT2 Root  7     Total energy:   -454.96462647
 
       Eigenvectors:
            0.99790592      0.00023977      0.05171926     -0.00706499      0.00895103
           -0.00023145      0.99400283      0.00355285      0.10686430      0.01870942
           -0.05583569     -0.00114718      0.99143747     -0.03342010      0.00112230
            0.00387731     -0.10087024      0.03214618      0.92179426      0.22732642
           -0.00419633     -0.03818821      0.00307308      0.23210543      0.25955232
            0.02729615     -0.00498406      0.08385851      0.21572317     -0.70349414
            0.01698137      0.01729190      0.07930422     -0.19312982      0.62098298
 
           -0.03712547      0.00070113
           -0.01052540      0.00805533
           -0.11311719     -0.00437416
            0.02217437     -0.29479335
           -0.07271584      0.93380227
            0.64344500      0.19166602
            0.75227299     -0.06549677
 
--
 
  THE ORIGINAL CI ARRAYS ARE NOW MIXED AS LINEAR
  COMBINATIONS, GIVEN BY THE EIGENVECTORS.
  A NEW JOBIPH FILE NAMED 'JOBMIX' IS PREPARED.
********************************************************************************
 
++ Mixed CI coefficients:
  The CI coefficients for the MIXED state nr.   1
--------------------------------------------------------------------------------
 CI COEFFICIENTS LARGER THAN  0.50D-01
  Occupation of active orbitals, and spin coupling
  of open shells. (u,d: Spin up or down).
  SGUGA info is (Midvert:IsyUp:UpperWalk/LowerWalk)
        Conf  SGUGA info        Occupation    Coefficient         Weight
           1  ( 1:1:   1/   1)   22222200        0.972501       0.945758
           6  ( 1:1:   6/   1)   22220220       -0.071100       0.005055
           7  ( 1:1:   7/   1)   22222u0d       -0.059296       0.003516
          10  ( 1:1:  10/   1)   2222udud        0.055719       0.003105
          12  ( 1:1:  12/   1)   2222uudd       -0.075330       0.005675
          15  ( 1:1:  15/   1)   22222002       -0.081760       0.006685
          84  ( 2:1:   4/   4)   u222220d       -0.147442       0.021739
         195  ( 3:1:   5/  10)   02222202       -0.058657       0.003441
 
  The CI coefficients for the MIXED state nr.   2
--------------------------------------------------------------------------------
 CI COEFFICIENTS LARGER THAN  0.50D-01
  Occupation of active orbitals, and spin coupling
  of open shells. (u,d: Spin up or down).
  SGUGA info is (Midvert:IsyUp:UpperWalk/LowerWalk)
        Conf  SGUGA info        Occupation    Coefficient         Weight
           7  ( 1:1:   7/   1)   22222u0d       -0.123469       0.015245
           8  ( 1:1:   8/   1)   2222u20d       -0.953255       0.908695
          11  ( 1:1:  11/   1)   222202ud        0.114592       0.013131
          16  ( 1:1:  16/   1)   2222ud02       -0.118885       0.014134
          44  ( 2:1:   4/   2)   22u2220d       -0.182501       0.033306
          64  ( 2:1:   4/   3)   2u22220d        0.057817       0.003343
          94  ( 2:1:  14/   4)   u222d202       -0.051985       0.002702
 
  The CI coefficients for the MIXED state nr.   3
--------------------------------------------------------------------------------
 CI COEFFICIENTS LARGER THAN  0.50D-01
  Occupation of active orbitals, and spin coupling
  of open shells. (u,d: Spin up or down).
  SGUGA info is (Midvert:IsyUp:UpperWalk/LowerWalk)
        Conf  SGUGA info        Occupation    Coefficient         Weight
           3  ( 1:1:   3/   1)   2222u2d0       -0.147430       0.021736
           7  ( 1:1:   7/   1)   22222u0d       -0.904286       0.817733
           8  ( 1:1:   8/   1)   2222u20d        0.105202       0.011067
          14  ( 1:1:  14/   1)   22220u2d       -0.052899       0.002798
          15  ( 1:1:  15/   1)   22222002        0.091748       0.008418
          18  ( 1:1:  18/   1)   2222u0d2        0.050428       0.002543
          44  ( 2:1:   4/   2)   22u2220d        0.069352       0.004810
          64  ( 2:1:   4/   3)   2u22220d       -0.055730       0.003106
          84  ( 2:1:   4/   4)   u222220d        0.260809       0.068021
          86  ( 2:1:   6/   4)   u222d2ud        0.052233       0.002728
          88  ( 2:1:   8/   4)   u222u2dd        0.069962       0.004895
          93  ( 2:1:  13/   4)   u2222d02       -0.207260       0.042957
 
  The CI coefficients for the MIXED state nr.   4
--------------------------------------------------------------------------------
 CI COEFFICIENTS LARGER THAN  0.50D-01
  Occupation of active orbitals, and spin coupling
  of open shells. (u,d: Spin up or down).
  SGUGA info is (Midvert:IsyUp:UpperWalk/LowerWalk)
        Conf  SGUGA info        Occupation    Coefficient         Weight
           7  ( 1:1:   7/   1)   22222u0d        0.066476       0.004419
           8  ( 1:1:   8/   1)   2222u20d       -0.170033       0.028911
          11  ( 1:1:  11/   1)   222202ud        0.068155       0.004645
          16  ( 1:1:  16/   1)   2222ud02       -0.119056       0.014174
          24  ( 2:1:   4/   1)   222u220d        0.191808       0.036790
          44  ( 2:1:   4/   2)   22u2220d        0.682945       0.466414
          53  ( 2:1:  13/   2)   22u22d02       -0.066710       0.004450
          64  ( 2:1:   4/   3)   2u22220d       -0.635457       0.403806
          68  ( 2:1:   8/   3)   2u22u2dd       -0.058882       0.003467
          73  ( 2:1:  13/   3)   2u222d02        0.099866       0.009973
 
  The CI coefficients for the MIXED state nr.   5
--------------------------------------------------------------------------------
 CI COEFFICIENTS LARGER THAN  0.50D-01
  Occupation of active orbitals, and spin coupling
  of open shells. (u,d: Spin up or down).
  SGUGA info is (Midvert:IsyUp:UpperWalk/LowerWalk)
        Conf  SGUGA info        Occupation    Coefficient         Weight
          24  ( 2:1:   4/   1)   222u220d       -0.961252       0.924006
          26  ( 2:1:   6/   1)   222ud2ud       -0.054651       0.002987
          28  ( 2:1:   8/   1)   222uu2dd       -0.083917       0.007042
          32  ( 2:1:  12/   1)   222u022d        0.074552       0.005558
          33  ( 2:1:  13/   1)   222u2d02        0.099752       0.009950
          37  ( 2:1:  17/   1)   222uudd2       -0.057635       0.003322
          44  ( 2:1:   4/   2)   22u2220d        0.099509       0.009902
          64  ( 2:1:   4/   3)   2u22220d       -0.165414       0.027362
 
  The CI coefficients for the MIXED state nr.   6
--------------------------------------------------------------------------------
 CI COEFFICIENTS LARGER THAN  0.50D-01
  Occupation of active orbitals, and spin coupling
  of open shells. (u,d: Spin up or down).
  SGUGA info is (Midvert:IsyUp:UpperWalk/LowerWalk)
        Conf  SGUGA info        Occupation    Coefficient         Weight
           1  ( 1:1:   1/   1)   22222200        0.163132       0.026612
           3  ( 1:1:   3/   1)   2222u2d0        0.175451       0.030783
           7  ( 1:1:   7/   1)   22222u0d        0.260436       0.067827
          15  ( 1:1:  15/   1)   22222002        0.364571       0.132912
          84  ( 2:1:   4/   4)   u222220d        0.841639       0.708356
          92  ( 2:1:  12/   4)   u222022d       -0.053636       0.002877
         195  ( 3:1:   5/  10)   02222202       -0.127686       0.016304
 
  The CI coefficients for the MIXED state nr.   7
--------------------------------------------------------------------------------
 CI COEFFICIENTS LARGER THAN  0.50D-01
  Occupation of active orbitals, and spin coupling
  of open shells. (u,d: Spin up or down).
  SGUGA info is (Midvert:IsyUp:UpperWalk/LowerWalk)
        Conf  SGUGA info        Occupation    Coefficient         Weight
           8  ( 1:1:   8/   1)   2222u20d        0.083883       0.007036
          24  ( 2:1:   4/   1)   222u220d        0.052667       0.002774
          44  ( 2:1:   4/   2)   22u2220d       -0.665779       0.443261
          46  ( 2:1:   6/   2)   22u2d2ud        0.067076       0.004499
          48  ( 2:1:   8/   2)   22u2u2dd        0.070810       0.005014
          53  ( 2:1:  13/   2)   22u22d02       -0.151038       0.022813
          64  ( 2:1:   4/   3)   2u22220d       -0.708187       0.501529
          73  ( 2:1:  13/   3)   2u222d02       -0.055006       0.003026
 
--
 
--- Stop Module: caspt2 at Tue Jun 10 19:45:24 2025 /rc=_RC_ALL_IS_WELL_ ---
*** files: xmldump
    saved to directory /home/pcaah4/diamide_project
--- Module caspt2 spent 7 minutes 29 seconds ---

.##################.
.# Happy landing! #.
.##################.

    Timing: Wall=895.96 User=783.96 System=99.63
******************************************************
*** WorkDir at /srv/COMMUNAL_SCRATCH/12433 cleaned ***
******************************************************
