   This run of MOLCAS is using the pymolcas driver

                             OPE
                             OPE          NMOL  CASOP  ENMOLC A   SO
                 OPE        NMOLC        AS  OP EN  MO LC     AS  OP
                OPENM       OL CA        SO  PE NM  OL CA     SOP EN
                OP EN      MO   LC       AS  OP ENMOL  CASO   PENMOL
                OP  EN     MO   LC       AS  OP EN     MO     LC ASO
               OP   E  NMOL  C  AS       OP  EN MO     LC     AS  OP
               OP  E   NMO   LC AS        OPEN  MO     LCASOP EN   M
               O  PEN   MO  LCA  SO
            OPE   NMO   L   CAS    OP
        OPENMOL  CASOP     ENMOL   CASOPE
     OPENMOLCA   SOPENMOLCASOPEN   MOLCASOPE
    OPENMOLCAS   OP           EN   MOL    CAS
    OPENMOLCAS       OP  ENM        O     LCA
    OPENMOLCAS    OPEN  MOLCASO     P  E  NMO
    OPENMOLCAS     OP               E  N  MOL
    OPENMOLCA   SO           PENM   O  L  CAS    OPEN    MO    LCAS
    OPENMOLCA   SOP           ENM   O  L  CAS   OP  EN  MOLC  AS   O
    OPENMOLCA   SOPE           NM      O  LCA   S      OP  EN MO
    OPENMOLC                AS         O  PEN   M      OL  CA  SOPE
    OPENMO        LCASOPE  NMOL        C  ASO   P      ENMOLC     AS
    OPE     NMO      LCA  SO     P     E   NM   OL  CA SO  PE N   MO
          OPENMOLCA            SOPE   NMO        LCAS  O    P  ENMO
     OPENMOLCASOPENMOLCASOPENMOLCASOPENMOLCA
        OPENMOLCASOPENMOLCASOPENMOLCASOPE
            OPENMOLCASOPENMOLCASOPENM
               OPENMOLCASOPENMOLCA        version: v23.06
                   OPENMOLCASO
                       OPE                tag:

 OpenMolcas is free software; you can redistribute it and/or modify it
 under the terms of the GNU Lesser General Public License version 2.1.
 OpenMolcas is distributed in the hope that it will be useful, but it
 is provided "as is" and without any express or implied warranties.
 For more details see the full text of the license in the file
 LICENSE or in <http://www.gnu.org/licenses/>.

                 Copyright (C) The OpenMolcas Authors
           For the author list and the recommended citation,
                   consult the file CONTRIBUTORS.md

           *************************************************
           * pymolcas version py2.24                       *
           *   build 4567b286dd94b1984b333a4ddf893180      *
           *   (after the EMIL interpreter by V. Veryazov) *
           *************************************************

configuration info
------------------
Host name: loginchem01.nottingham.ac.uk (Linux)
C Compiler ID: Intel
C flags: -std=gnu99 -gcc-sys -qopenmp
Fortran Compiler ID: Intel
Fortran flags: -fpp -i8 -heap-arrays -qopenmp
Definitions: _MOLCAS_;_I8_;_LINUX_
Parallel: OFF (GA=OFF)


   ----------------------------------------------------------------------------------------------------
  |
  |              Project: orca_geometry_optimisation_285_285_BP86_def2-SVP_def2J_scf_cas1_ras12i11_cas8
  |       Submitted from: /home/pcaah4/diamide_project
  |         Scratch area: /srv/COMMUNAL_SCRATCH/12442
  |      Save outputs to: /home/pcaah4/diamide_project
  |               Molcas: /software/chemistry/openmolcas/openmolcas-23.06-openmp
  |
  | Scratch area is empty
  |
  |       MOLCAS_DRIVER = /software/chemistry/openmolcas/openmolcas-23.06-openmp/sbin/pymolcas
  | MOLCAS_KEEP_WORKDIR = NO
  |       MOLCAS_NPROCS = 1
  |       MOLCAS_SOURCE = /software/chemistry/openmolcas/openmolcas-23.06-openmp
  |    MOLCAS_STRUCTURE = 0
  |
   ----------------------------------------------------------------------------------------------------

++ ---------   Input file   ---------

&SEWARD
TITLE
orca_geometry_optimisation_285_285_BP86_def2-SVP_def2J_scf_cas1_ras12i11
MULTIPOLES
2
SDIPOLE
ANGMOM
0 0 0
BASIS SET
C.ANO-S...4S3P1D.
C1            0.041325   -0.006031    0.177499 /Angstrom
C3            2.271534    1.054107   -0.123972 /Angstrom
C4            2.171750    1.838571   -1.457792 /Angstrom
C6            2.780853    1.772037   -3.862960 /Angstrom
C19          -0.726501   -1.324643    0.105063 /Angstrom
END OF BASIS
BASIS SET
N.ANO-S...4S3P1D.
N2            1.405207   -0.114013   -0.030750 /Angstrom
N5            2.794260    1.219187   -2.521833 /Angstrom
END OF BASIS
BASIS SET
O.ANO-S...4S3P1D.
O7           -0.504063    1.063385    0.422190 /Angstrom
O8            1.624579    2.931562   -1.543925 /Angstrom
END OF BASIS
BASIS SET
H.ANO-S...2S1P.
H9           -1.419029   -1.284980   -0.760180 /Angstrom
H10          -1.352370   -1.417986    1.013783 /Angstrom
H11          -0.087785   -2.225341    0.010035 /Angstrom
H12           1.783448   -1.025842   -0.289266 /Angstrom
H13           1.968401    1.774698    0.660360 /Angstrom
H14           3.319378    0.738495    0.060928 /Angstrom
H15           3.219410    0.302636   -2.376354 /Angstrom
H16           2.212326    1.134202   -4.574534 /Angstrom
H17           2.285240    2.759608   -3.799125 /Angstrom
H18           3.809377    1.910858   -4.259045 /Angstrom
END OF BASIS
END OF INPUT

&RASSCF
TITLE
orca_geometry_optimisation_285_285_BP86_def2-SVP_def2J_scf_cas1_ras12i11
LUMORB
SPIN
1
SYMMETRY
1
NACTEL
12  0  0
INACTIVE
29
DELETED  ! delete Rydberg orbitals from an initial CAS(12,11) if done
3
FROZEN
0
RAS2
8
ITERATIONS
64 25
CIROOT
7 7
1 2 3 4 5 6 7
1 1 1 1 1 1 1
LEVSHFT
0.3
CIMX
20
FILEorb = /home/pcaah4/diamide_project/cas/ras12i11/ras_orb/orca_geometry_optimisation_285_285_BP86_def2-SVP_def2J_scf_cas1_ras12i11.RasOrb
ALTEr
1
 1 37 38
END OF INPUT

&RASSI
NROF JOBIPH
    1 7
    1 2 3 5 4 6 7
TOFILE
TRDI
TDMN
1.0D-6
END OF INPUT

&CASPT2
TITLE
orca_geometry_optimisation_285_285_BP86_def2-SVP_def2J_scf_cas1_ras12i11
MULTISTATE
7 1 2 3 4 5 6 7
SHIFT
0.35
MAXITER
50
END OF INPUT

-- ----------------------------------

--- Start Module: seward at Tue Jun 10 19:57:10 2025 ---
 
()()()()()()()()()()()()()()()()()()()()()()()()()()()()()()()()()()()()()()()()()()()()()()()()()()

                                              &SEWARD

                                   only a single process is used
                       available to each process: 2.0 GB of memory, 1 thread
                                            pid: 3125772
()()()()()()()()()()()()()()()()()()()()()()()()()()()()()()()()()()()()()()()()()()()()()()()()()()
 
               SEWARD will generate:
                  Multipole Moment integrals up to order  2
                  Kinetic Energy integrals
                  Nuclear Attraction integrals (point charge)
                  One-Electron Hamiltonian integrals
                  Velocity integrals
                  Orbital angular momentum around ( 0.0000  0.0000  0.0000 )
                  Velocity quadrupole around ( 2.4851  1.7734 -1.8895 )
                  Two-Electron Repulsion integrals
 
 Title:
            orca_geometry_optimisation_285_285_BP86_def2-SVP_def2J_scf_cas1_ras12i11    
 
 
                   Integrals are discarded if absolute value <: 0.10E-13
                   Integral cutoff threshold is set to       <: 0.10E-15
 
++    Symmetry information:
      ---------------------
 
                    Character Table for C1 
 
                             E  
                    a        1  x, y, xy, Rz, z, xz, Ry, yz, Rx, I
--
 
 
++    Basis set information:
      ----------------------
 
 
      Basis set label: C.ANO-S...4S3P1D......
 
      Electronic valence basis set:
      ------------------
      Associated Effective Charge   6.000000 au
      Associated Actual Charge      6.000000 au
      Nuclear Model: Point charge
 
      Shell  nPrim  nBasis  Cartesian Spherical Contaminant
         s      10       4        X                  
         p       6       3        X                  
         d       3       1                 X         
 
 
      Basis set label: N.ANO-S...4S3P1D......
 
      Electronic valence basis set:
      ------------------
      Associated Effective Charge   7.000000 au
      Associated Actual Charge      7.000000 au
      Nuclear Model: Point charge
 
      Shell  nPrim  nBasis  Cartesian Spherical Contaminant
         s      10       4        X                  
         p       6       3        X                  
         d       3       1                 X         
 
 
      Basis set label: O.ANO-S...4S3P1D......
 
      Electronic valence basis set:
      ------------------
      Associated Effective Charge   8.000000 au
      Associated Actual Charge      8.000000 au
      Nuclear Model: Point charge
 
      Shell  nPrim  nBasis  Cartesian Spherical Contaminant
         s      10       4        X                  
         p       6       3        X                  
         d       3       1                 X         
 
 
      Basis set label: H.ANO-S...2S1P......
 
      Electronic valence basis set:
      ------------------
      Associated Effective Charge   1.000000 au
      Associated Actual Charge      1.000000 au
      Nuclear Model: Point charge
 
      Shell  nPrim  nBasis  Cartesian Spherical Contaminant
         s       7       2        X                  
         p       3       1        X                  
--
 
 
++    Molecular structure info:
      -------------------------
 
                    ************************************************ 
                    **** Cartesian Coordinates / Bohr, Angstrom **** 
                    ************************************************ 
 
     Center  Label                x              y              z                     x              y              z
        1      C1               0.078093      -0.011397       0.335424              0.041325      -0.006031       0.177499
        2      C3               4.292577       1.991974      -0.234273              2.271534       1.054107      -0.123972
        3      C4               4.104013       3.474396      -2.754828              2.171750       1.838571      -1.457792
        4      C6               5.255051       3.348665      -7.299936              2.780853       1.772037      -3.862960
        5      C19             -1.372888      -2.503212       0.198540             -0.726501      -1.324643       0.105063
        6      N2               2.655456      -0.215453      -0.058109              1.405207      -0.114013      -0.030750
        7      N5               5.280386       2.303930      -4.765574              2.794260       1.219187      -2.521833
        8      O7              -0.952541       2.009506       0.797823             -0.504063       1.063385       0.422190
        9      O8               3.070009       5.539849      -2.917595              1.624579       2.931562      -1.543925
       10      H9              -2.681576      -2.428260      -1.436532             -1.419029      -1.284980      -0.760180
       11      H10             -2.555609      -2.679605       1.915772             -1.352370      -1.417986       1.013783
       12      H11             -0.165890      -4.205285       0.018963             -0.087785      -2.225341       0.010035
       13      H12              3.370228      -1.938560      -0.546634              1.783448      -1.025842      -0.289266
       14      H13              3.719739       3.353693       1.247900              1.968401       1.774698       0.660360
       15      H14              6.272715       1.395553       0.115137              3.319378       0.738495       0.060928
       16      H15              6.083803       0.571899      -4.490658              3.219410       0.302636      -2.376354
       17      H16              4.180690       2.143331      -8.644616              2.212326       1.134202      -4.574534
       18      H17              4.318478       5.214903      -7.179306              2.285240       2.759608      -3.799125
       19      H18              7.198679       3.610998      -8.048429              3.809377       1.910858      -4.259045
 
                    ************************************************* 
                    **** InterNuclear Distances / Bohr, Angstrom **** 
                    ************************************************* 
 
     Atom centers         Bohr        Angstrom
   13 H12       6 N2      1.928381        1.020455
   16 H15       7 N5      1.928986        1.020775
   18 H17       4 C6      2.091547        1.106799
   11 H10       5 C19     2.092565        1.107338
   14 H13       2 C3      2.092668        1.107392
   12 H11       5 C19     2.094312        1.108262
   10 H9        5 C19     2.095649        1.108970
   15 H14       2 C3      2.097320        1.109854
   19 H18       4 C6      2.099227        1.110863
   17 H16       4 C6      2.101248        1.111933
    8 O7        1 C1      2.315182        1.225142
    9 O8        3 C4      2.315546        1.225334
    7 N5        3 C4      2.607095        1.379615
    6 N2        1 C1      2.615207        1.383908
    7 N5        4 C6      2.741370        1.450670
    6 N2        2 C3      2.753894        1.457298
    5 C19       1 C1      2.886733        1.527593
    3 C4        2 C3      2.930243        1.550618
   11 H10      10 H9      3.364073        1.780191
   18 H17      17 H16     3.405977        1.802365
   12 H11      10 H9      3.406606        1.802698
   19 H18      17 H16     3.408481        1.803691
   19 H18      18 H17     3.409318        1.804133
   15 H14      14 H13     3.411034        1.805041
   12 H11      11 H10     3.411208        1.805134
   18 H17       7 N5      3.901940        2.064818
   13 H12       1 C1      3.915372        2.071926
   16 H15       3 C4      3.918822        2.073751
   14 H13       6 N2      3.946791        2.088552
   15 H14       6 N2      3.963574        2.097433
   19 H18       7 N5      4.020624        2.127622
   14 H13       3 C4      4.022942        2.128849
   17 H16       7 N5      4.035108        2.135287
   16 H15       4 C6      4.036001        2.135760
   13 H12       2 C3      4.049370        2.142834
   11 H10       1 C1      4.068565        2.152992
   10 H9        1 C1      4.073921        2.155826
   15 H14       3 C4      4.154703        2.198574
   12 H11       1 C1      4.212882        2.229361
   13 H12      12 H11     4.238168        2.242742
    8 O7        6 N2      4.324432        2.288391
    9 O8        7 N5      4.332663        2.292746
   18 H17       9 O8      4.452689        2.356261
   15 H14      13 H12     4.469752        2.365291
    8 O7        5 C19     4.571702        2.419241
    9 O8        2 C3      4.613276        2.441240
    6 N2        5 C19     4.639749        2.455249
    7 N5        2 C3      4.648201        2.459722
   16 H15      15 H14     4.682675        2.477965
    4 C6        3 C4      4.690278        2.481988
    2 C3        1 C1      4.701056        2.487692
   14 H13       9 O8      4.748976        2.513050
   18 H17       3 C4      4.759345        2.518537
    6 N2        3 C4      4.794329        2.537050
   19 H18      16 H15     4.810073        2.545381
   16 H15       2 C3      4.831347        2.556639
   17 H16      16 H15     4.831833        2.556896
   13 H12       5 C19     4.834384        2.558246
   14 H13       8 O7      4.882582        2.583751
   12 H11       6 N2      4.887197        2.586193
   14 H13       1 C1      5.041629        2.667915
   15 H14       7 N5      5.062727        2.679080
   11 H10       8 O7      5.080099        2.688273
   10 H9        8 O7      5.260768        2.783879
    8 O7        2 C3      5.345727        2.828837
    9 O8        4 C6      5.364756        2.838907
   16 H15      13 H12     5.405666        2.860555
   14 H13      13 H12     5.599148        2.962941
   18 H17      16 H15     5.648246        2.988923
   16 H15       6 N2      5.658708        2.994459
--
 
 
            Nuclear Potential Energy            454.94242705 au
 
 
      Basis set specifications :
      Symmetry species         a  
      Basis functions          212
 
 
      Input file to MOLDEN was generated!
 
--- Stop Module: seward at Tue Jun 10 19:58:59 2025 /rc=_RC_ALL_IS_WELL_ ---
*** files: orca_geometry_optimisation_285_285_BP86_def2-SVP_def2J_scf_cas1_ras12i11_cas8.GssOrb
           orca_geometry_optimisation_285_285_BP86_def2-SVP_def2J_scf_cas1_ras12i11_cas8.guessorb.molden xmldump
    saved to directory /home/pcaah4/diamide_project
--- Module seward spent 1 minute 49 seconds ---

*** symbolic link created: INPORB -> orca_geometry_optimisation_285_285_BP86_def2-SVP_def2J_scf_cas1_ras12i11_cas8.GssOrb
--- Start Module: rasscf at Tue Jun 10 19:59:00 2025 ---
 
()()()()()()()()()()()()()()()()()()()()()()()()()()()()()()()()()()()()()()()()()()()()()()()()()()

                                              &RASSCF

                                   only a single process is used
                       available to each process: 2.0 GB of memory, 1 thread
                                            pid: 3125804
()()()()()()()()()()()()()()()()()()()()()()()()()()()()()()()()()()()()()()()()()()()()()()()()()()
 
 
      Header of the ONEINT file:
      --------------------------
      orca_geometry_optimisation_285_285_BP86_def2-SVP_def2J_scf_cas1_ras12i11
      Integrals generated by Gateway/Seward, Tue Jun 10 19:57:10 2025
 
 
      OrdInt status: non-squared
 
 
      Cartesian coordinates in Angstrom:
      -----------------------------------------------------
      No.  Label        X            Y            Z        
      -----------------------------------------------------
       1   C1         0.04132500  -0.00603100   0.17749900
       2   C3         2.27153400   1.05410700  -0.12397200
       3   C4         2.17175000   1.83857100  -1.45779200
       4   C6         2.78085300   1.77203700  -3.86296000
       5   C19       -0.72650100  -1.32464300   0.10506300
       6   N2         1.40520700  -0.11401300  -0.03075000
       7   N5         2.79426000   1.21918700  -2.52183300
       8   O7        -0.50406300   1.06338500   0.42219000
       9   O8         1.62457900   2.93156200  -1.54392500
      10   H9        -1.41902900  -1.28498000  -0.76018000
      11   H10       -1.35237000  -1.41798600   1.01378300
      12   H11       -0.08778500  -2.22534100   0.01003500
      13   H12        1.78344800  -1.02584200  -0.28926600
      14   H13        1.96840100   1.77469800   0.66036000
      15   H14        3.31937800   0.73849500   0.06092800
      16   H15        3.21941000   0.30263600  -2.37635400
      17   H16        2.21232600   1.13420200  -4.57453400
      18   H17        2.28524000   2.75960800  -3.79912500
      19   H18        3.80937700   1.91085800  -4.25904500
      -----------------------------------------------------
      Nuclear repulsion energy =  454.94242705
 
++    Wave function specifications:
      -----------------------------
 
      Number of closed shell electrons          58
      Number of electrons in active shells      12
      Max number of holes in RAS1 space          0
      Max nr of electrons in RAS3 space          0
      Number of inactive orbitals               29
      Number of active orbitals                  8
      Number of secondary orbitals             172
      Spin quantum number                      0.0
      State symmetry                             1
--
 
++    Orbital specifications:
      -----------------------
 
      Symmetry species                           1
                                                 a
      Frozen orbitals                            0
      Inactive orbitals                         29
      Active orbitals                            8
      RAS1 orbitals                              0
      RAS2 orbitals                              8
      RAS3 orbitals                              0
      Secondary orbitals                       172
      Deleted orbitals                           3
      Number of basis functions                212
--
 
++    CI expansion specifications:
      ----------------------------
 
      Number of CSFs                           336
      Number of determinants                   406
      Number of root(s) required                 7
      Root chosen for geometry opt.              7
      CI roots used                              1     2     3     4     5     6     7
      weights                                0.143 0.143 0.143 0.143 0.143 0.143 0.143
      highest root included in the CI            7
      max. size of the explicit Hamiltonian    200
--
 
++    Optimization specifications:
      ----------------------------
 
      RASSCF algorithm: Conventional
      Maximum number of macro iterations        64
      Maximum number of SX iterations           25
      Threshold for RASSCF energy            0.100E-07
      Threshold for max MO rotation          0.100E+00
      Threshold for max BLB element          0.100E-03
      Level shift parameter                  0.300E+00
      Make Quasi-Newton update
--
 
      The MO-coefficients are taken from the file:
      /home/pcaah4/diamide_project/cas/ras12i11/ras_orb/orca_geometry_optimisation_285_285_BP86_def2-SVP_def2J_scf_cas1_ras12i11.RasOrb                                                                                                                               
      Title: RASSCF average (pseudo-natural) orbitals                                      
 
      Total molecular charge    0.00
 
      Molecular orbitals exchanged:
        In symmetry  1 :  37  38
 
 
      ************************************************************************************************************************
      *                                                                                                                      *
      *                                            Wave function control section                                             *
      *                                                                                                                      *
      ************************************************************************************************************************
 
 
                                         RASSCF iterations: Energy and convergence statistics
                                         ----------------------------------------------------
 
      Iter CI   SX   CI       RASSCF       Energy    max ROT     max BLB   max BLB  Level Ln srch  Step   QN   Walltime
          iter iter root      energy       change     param      element    value   shift minimum  type update hh:mm:ss
 Nr of preliminary CI iterations:   4
        1   1   25    0  -453.68003398    0.00E+00   0.84E-01   36  39 1  0.15E-01*  0.16   0.00    SX    NO    0:00:13
        2   6   27    0  -453.69605458   -0.16E-01*  0.65E-01   36  39 1  0.10E-01*  0.15   0.00    SX    NO    0:00:07
        3   3   10    0  -453.69913252   -0.31E-02*  0.41E-01   36  39 1  0.65E-02*  0.15   0.00    SX    NO    0:00:06
        4   5   11    0  -453.70073219   -0.16E-02* -0.27E-01   36  39 1  0.43E-02*  0.15   0.00    SX    NO    0:00:06
        5   4   10    0  -453.70125716   -0.52E-03* -0.62E-01   36  39 1  0.30E-02*  0.16   1.68    QN   YES    0:00:06
        6   7   10    0  -453.70174598   -0.49E-03* -0.16E-02   21  97 1 -0.21E-02*  0.15   0.86    QN   YES    0:00:06
        7   6   10    0  -453.70177491   -0.29E-04*  0.58E-02   21  97 1  0.19E-02*  0.15   0.59    QN   YES    0:00:06
        8   5    9    0  -453.70180334   -0.28E-04*  0.85E-02   21  97 1  0.37E-03*  0.15   2.50    LS   YES    0:00:06
        9   5    9    0  -453.70180866   -0.53E-05*  0.13E-02   21  97 1 -0.72E-03*  0.15   0.65    QN   YES    0:00:06
       10   5    8    0  -453.70181554   -0.69E-05* -0.12E-02   21  97 1  0.26E-03*  0.15   0.90    QN   YES    0:00:06
       11   3    8    0  -453.70181650   -0.96E-06* -0.17E-02   21  97 1 -0.60E-04   0.15   2.50    LS   YES    0:00:06
       12   6    8    0  -453.70181607    0.43E-06* -0.80E-03   21  97 1 -0.31E-03*  0.15   0.33    LS   YES    0:00:06
       13   5    8    0  -453.70181655   -0.48E-06* -0.52E-03   21  97 1 -0.14E-03*  0.15   1.49    QN   YES    0:00:06
       14   5    7    0  -453.70181676   -0.21E-06* -0.26E-03   21  97 1 -0.49E-04   0.15   1.22    QN   YES    0:00:06
       15   4    6    0  -453.70181683   -0.69E-07* -0.87E-04   21  97 1 -0.17E-04   0.15   1.08    QN   YES    0:00:06
       16   2    6    0  -453.70181684   -0.11E-07* -0.91E-04   21  97 1 -0.11E-04   0.15   1.22    QN   YES    0:00:06
       17   2    6    0  -453.70181684   -0.27E-08   0.25E-04   21  97 1  0.11E-04   0.15   0.70    QN   YES    0:00:06
      Convergence after 17 iterations
       18   1    6    0  -453.70181685   -0.16E-08   0.25E-04   21  97 1 -0.28E-05   0.15   0.70    QN   YES    0:00:06
 
      ************************************************************************************************************************
                                                      Wave function printout:
                       occupation of active orbitals, and spin coupling of open shells (u,d: Spin up or down)
      ************************************************************************************************************************
 
      Note: transformation to natural orbitals
      has been made, which may change the order of the CSFs.
 
      printout of CI-coefficients larger than  0.05 for root  1
      energy=    -453.952385
      conf/sym  11111111     Coeff  Weight
             1  22222200  -0.95846 0.91864
             6  22220220   0.08603 0.00740
             7  22222u0d   0.15707 0.02467
            15  22222002   0.07367 0.00543
            64  2u22220d   0.07697 0.00592
            73  2u222d02   0.06938 0.00481
            81  u22222d0   0.08197 0.00672
            83  u222d220  -0.06084 0.00370
           175  20222202   0.09568 0.00915
           191  02222220   0.07950 0.00632
 
      printout of CI-coefficients larger than  0.05 for root  2
      energy=    -453.746183
      conf/sym  11111111     Coeff  Weight
             7  22222u0d  -0.07485 0.00560
            21  222u22d0   0.08219 0.00676
            24  222u220d   0.95406 0.91022
            32  222u022d  -0.08352 0.00698
            33  222u2d02   0.08819 0.00778
           115  22ud2202   0.09412 0.00886
           125  2u2d2202   0.18013 0.03245
           213  u22u22dd   0.06553 0.00429
           269  022u222d   0.07833 0.00614
 
      printout of CI-coefficients larger than  0.05 for root  3
      energy=    -453.740060
      conf/sym  11111111     Coeff  Weight
             2  22222ud0   0.39877 0.15902
            41  22u222d0  -0.85722 0.73482
            43  22u2d220   0.17337 0.03006
            45  22u22dud   0.06337 0.00402
            47  22u22udd  -0.10172 0.01035
            55  22u220d2  -0.07966 0.00635
            61  2u2222d0   0.05299 0.00281
           161  u2d22220  -0.13402 0.01796
           219  2uu222dd   0.05284 0.00279
           222  2uu22dd2   0.05086 0.00259
           294  20u222d2   0.08290 0.00687
 
      printout of CI-coefficients larger than  0.05 for root  4
      energy=    -453.635974
      conf/sym  11111111     Coeff  Weight
             2  22222ud0   0.30278 0.09168
             3  2222u2d0  -0.86678 0.75131
             5  2222ud20   0.05476 0.00300
             6  22220220  -0.06351 0.00403
            10  2222udud   0.05622 0.00316
            12  2222uudd  -0.11913 0.01419
            18  2222u0d2  -0.07156 0.00512
            21  222u22d0  -0.09365 0.00877
            41  22u222d0   0.16059 0.02579
            67  2u222udd  -0.06511 0.00424
            68  2u22u2dd   0.06452 0.00416
            77  2u22udd2   0.05329 0.00284
            81  u22222d0  -0.08686 0.00754
            83  u222d220  -0.20136 0.04055
           177  2022u2d2   0.08475 0.00718
           191  02222220   0.07094 0.00503
 
      printout of CI-coefficients larger than  0.05 for root  5
      energy=    -453.626196
      conf/sym  11111111     Coeff  Weight
             1  22222200   0.08659 0.00750
             2  22222ud0   0.56189 0.31572
             3  2222u2d0   0.28555 0.08154
             7  22222u0d   0.53948 0.29104
            15  22222002  -0.11249 0.01265
            21  222u22d0  -0.30654 0.09397
            24  222u220d   0.07574 0.00574
            25  222u2dud  -0.09100 0.00828
            27  222u2udd   0.12117 0.01468
            41  22u222d0   0.25956 0.06737
            44  22u2220d   0.05172 0.00267
            65  2u222dud   0.10104 0.01021
            67  2u222udd  -0.12034 0.01448
            73  2u222d02   0.13720 0.01882
            83  u222d220   0.07707 0.00594
            87  u2222udd   0.06121 0.00375
           175  20222202   0.05822 0.00339
           176  20222ud2  -0.07402 0.00548
 
      printout of CI-coefficients larger than  0.05 for root  6
      energy=    -453.609945
      conf/sym  11111111     Coeff  Weight
             2  22222ud0  -0.51699 0.26728
             3  2222u2d0  -0.13806 0.01906
             7  22222u0d   0.26814 0.07190
            21  222u22d0  -0.64827 0.42026
            24  222u220d   0.07308 0.00534
            25  222u2dud  -0.17499 0.03062
            27  222u2udd   0.22792 0.05195
            41  22u222d0  -0.21059 0.04435
            65  2u222dud  -0.10644 0.01133
            67  2u222udd   0.13165 0.01733
            73  2u222d02   0.06604 0.00436
           112  22ud22ud   0.08169 0.00667
           176  20222ud2   0.07701 0.00593
           201  22uu22dd   0.08442 0.00713
           210  2u2u2dd2  -0.05225 0.00273
           262  202u22d2   0.05899 0.00348
 
      printout of CI-coefficients larger than  0.05 for root  7
      energy=    -453.601975
      conf/sym  11111111     Coeff  Weight
             1  22222200   0.10376 0.01077
             2  22222ud0  -0.25427 0.06465
             3  2222u2d0  -0.15613 0.02438
             6  22220220  -0.05688 0.00323
             7  22222u0d   0.67186 0.45140
            14  22220u2d   0.06164 0.00380
            15  22222002  -0.15225 0.02318
            21  222u22d0   0.50924 0.25933
            25  222u2dud   0.13704 0.01878
            27  222u2udd  -0.17948 0.03221
            41  22u222d0  -0.11278 0.01272
            44  22u2220d   0.05796 0.00336
            64  2u22220d  -0.05288 0.00280
            65  2u222dud  -0.05300 0.00281
            67  2u222udd   0.06740 0.00454
            73  2u222d02   0.16405 0.02691
            81  u22222d0  -0.10488 0.01100
            90  u222du2d  -0.05013 0.00251
           112  22ud22ud  -0.05338 0.00285
           175  20222202   0.07421 0.00551
           193  02222u2d   0.05654 0.00320
           201  22uu22dd  -0.05280 0.00279
 
      Natural orbitals and occupation numbers for root  1
      sym 1:   1.964356   1.996771   1.999772   1.999691   1.996289   1.949278   0.039780   0.054064
 
      Natural orbitals and occupation numbers for root  2
      sym 1:   1.966799   1.999549   1.998348   1.005806   1.996140   1.999708   0.038712   0.994939
 
      Natural orbitals and occupation numbers for root  3
      sym 1:   1.999921   1.993367   1.008670   1.997995   1.997300   1.950711   0.997539   0.054496
 
      Natural orbitals and occupation numbers for root  4
      sym 1:   1.992652   1.967958   1.997738   1.997181   0.905023   1.940224   1.136484   0.062740
 
      Natural orbitals and occupation numbers for root  5
      sym 1:   1.993868   1.969927   1.985501   1.857771   1.934367   1.198763   0.831490   0.228313
 
      Natural orbitals and occupation numbers for root  6
      sym 1:   1.999009   1.952837   1.976974   1.144903   1.988321   1.877249   0.900445   0.160261
 
      Natural orbitals and occupation numbers for root  7
      sym 1:   1.994421   1.954482   1.988227   1.739414   1.971936   1.299842   0.324823   0.726854
 
      ************************************************************************************************************************
      *                                                                                                                      *
      *                                                    Final results                                                     *
      *                                                                                                                      *
      ************************************************************************************************************************
 
 
++    Wave function specifications:
      -----------------------------
 
      Number of closed shell electrons          58
      Number of electrons in active shells      12
      Max number of holes in RAS1 space          0
      Max nr of electrons in RAS3 space          0
      Number of inactive orbitals               29
      Number of active orbitals                  8
      Number of secondary orbitals             172
      Spin quantum number                      0.0
      State symmetry                             1
--
 
++    Orbital specifications:
      -----------------------
 
      Symmetry species                           1
                                                 a
      Frozen orbitals                            0
      Inactive orbitals                         29
      Active orbitals                            8
      RAS1 orbitals                              0
      RAS2 orbitals                              8
      RAS3 orbitals                              0
      Secondary orbitals                       172
      Deleted orbitals                           3
      Number of basis functions                212
--
 
++    CI expansion specifications:
      ----------------------------
 
      Number of CSFs                           336
      Number of determinants                   406
      Number of root(s) required                 7
      CI roots used                              1     2     3     4     5     6     7
      weights                                0.143 0.143 0.143 0.143 0.143 0.143 0.143
      highest root included in the CI            7
      Root passed to geometry opt.               7
--
 
++    Final optimization conditions:
      ------------------------------
 
      Average CI energy                            -453.70181685
      RASSCF energy for state  7                   -453.60197453
      Super-CI energy                                -0.00000000
      RASSCF energy change                            0.00000000
      Max change in MO coefficients               0.353E-04
      Max non-diagonal density matrix element     0.251E-04
      Maximum BLB matrix element                 -0.278E-05
      (orbital pair  21,  97 in symmetry   1)
      Norm of electronic gradient            0.175E+00
--
 
 
      Final state energy(ies):
      ------------------------
 
::    RASSCF root number  1 Total energy:   -453.95238532
::    RASSCF root number  2 Total energy:   -453.74618256
::    RASSCF root number  3 Total energy:   -453.74006012
::    RASSCF root number  4 Total energy:   -453.63597395
::    RASSCF root number  5 Total energy:   -453.62619611
::    RASSCF root number  6 Total energy:   -453.60994534
::    RASSCF root number  7 Total energy:   -453.60197453
 
++    Molecular orbitals:
      -------------------
 
      Pseudonatural active orbitals and approximate occupation numbers
 
 
 
 
      Molecular orbitals for symmetry species 1: a  
 
 
      Orbital                 1         2         3         4         5         6         7         8         9        10
      Energy           -20.5922  -20.5157  -15.6380  -15.5817  -11.3380  -11.2881  -11.2865  -11.2607  -11.2588   -1.4199
      Occ. No.           2.0000    2.0000    2.0000    2.0000    2.0000    2.0000    2.0000    2.0000    2.0000    2.0000
 
     1 C1     1s         0.0003   -0.0001    0.0002    0.0000    0.9999    0.0000   -0.0001   -0.0001    0.0039    0.0390
     2 C1     2s         0.0008   -0.0005    0.0009    0.0001    0.0019   -0.0012   -0.0007   -0.0005    0.0004   -0.3600
     3 C1     3s        -0.0006   -0.0004    0.0003   -0.0000   -0.0004   -0.0010   -0.0005   -0.0003    0.0007    0.0033
     4 C1     4s        -0.0004   -0.0001    0.0000   -0.0001    0.0012   -0.0003   -0.0001   -0.0001    0.0002   -0.0039
     5 C1     2px       -0.0009   -0.0006    0.0017   -0.0004    0.0014   -0.0001   -0.0000   -0.0002    0.0004    0.0357
     6 C1     3px       -0.0006   -0.0007    0.0013   -0.0007    0.0015   -0.0005    0.0000   -0.0003   -0.0001   -0.0170
     7 C1     4px        0.0001   -0.0000   -0.0001   -0.0002    0.0006   -0.0003    0.0000   -0.0001   -0.0002    0.0114
     8 C1     2py        0.0030   -0.0005   -0.0000   -0.0004    0.0008    0.0002   -0.0000   -0.0000    0.0006   -0.1017
     9 C1     3py        0.0021   -0.0006    0.0000   -0.0004    0.0007   -0.0001   -0.0000   -0.0000   -0.0001    0.0700
    10 C1     4py       -0.0003   -0.0001    0.0000   -0.0000    0.0007   -0.0003   -0.0000   -0.0000   -0.0003   -0.0237
    11 C1     2pz        0.0005    0.0000   -0.0002    0.0000   -0.0000    0.0001    0.0002    0.0001    0.0000   -0.0222
    12 C1     3pz        0.0003   -0.0000   -0.0000    0.0001   -0.0002    0.0000    0.0002    0.0002    0.0000    0.0141
    13 C1     4pz       -0.0001   -0.0000    0.0001    0.0000   -0.0000   -0.0000    0.0001    0.0001    0.0000   -0.0055
    14 C1     3d2-       0.0001    0.0000    0.0001    0.0000   -0.0003    0.0000   -0.0001    0.0000   -0.0001    0.0291
    15 C1     3d1-      -0.0000    0.0000   -0.0000   -0.0000    0.0002   -0.0000   -0.0000    0.0000    0.0000   -0.0144
    16 C1     3d0       -0.0000    0.0000    0.0001    0.0000   -0.0004   -0.0001    0.0000    0.0000   -0.0001    0.0252
    17 C1     3d1+      -0.0000    0.0000    0.0001   -0.0000   -0.0001   -0.0000    0.0000    0.0000   -0.0000    0.0091
    18 C1     3d2+       0.0001   -0.0000   -0.0002    0.0000   -0.0001    0.0000   -0.0000    0.0000    0.0000    0.0167
    19 C3     1s         0.0002    0.0001    0.0004    0.0000   -0.0001    0.9843   -0.1738    0.0001   -0.0001    0.0102
    20 C3     2s         0.0016    0.0006    0.0021    0.0003    0.0005   -0.0013   -0.0001    0.0009   -0.0007   -0.0094
    21 C3     3s         0.0010    0.0005    0.0012    0.0003    0.0004   -0.0026    0.0000    0.0005   -0.0004    0.0239
    22 C3     4s         0.0002    0.0001    0.0003    0.0000    0.0000    0.0007   -0.0002    0.0001   -0.0001    0.0034
    23 C3     2px       -0.0008    0.0003   -0.0009   -0.0006    0.0001   -0.0001   -0.0003    0.0003   -0.0002    0.0159
    24 C3     3px       -0.0007    0.0003   -0.0004   -0.0005    0.0004   -0.0002   -0.0003    0.0003   -0.0003   -0.0004
    25 C3     4px        0.0001   -0.0000    0.0002    0.0001    0.0002   -0.0006    0.0000    0.0000   -0.0001    0.0035
    26 C3     2py        0.0003   -0.0009   -0.0005    0.0003    0.0001   -0.0007    0.0006   -0.0003    0.0003    0.0133
    27 C3     3py        0.0003   -0.0010   -0.0001    0.0003    0.0001   -0.0005    0.0002   -0.0005    0.0003   -0.0009
    28 C3     4py        0.0000   -0.0001    0.0001   -0.0000   -0.0001   -0.0007    0.0000   -0.0002    0.0000    0.0024
    29 C3     2pz        0.0004   -0.0002   -0.0005    0.0001   -0.0005    0.0003   -0.0001   -0.0004    0.0002   -0.0060
    30 C3     3pz        0.0004    0.0000   -0.0006    0.0001   -0.0007    0.0002    0.0003   -0.0003    0.0002   -0.0072
    31 C3     4pz        0.0000    0.0002   -0.0001    0.0001   -0.0002   -0.0002    0.0001    0.0001    0.0000   -0.0017
    32 C3     3d2-       0.0000    0.0000   -0.0000   -0.0000    0.0000   -0.0001    0.0000   -0.0000   -0.0000   -0.0040
    33 C3     3d1-       0.0000    0.0000   -0.0000    0.0000    0.0000    0.0001   -0.0000   -0.0001    0.0000    0.0006
    34 C3     3d0        0.0000    0.0001    0.0001    0.0000   -0.0000   -0.0000   -0.0000    0.0000    0.0000    0.0020
    35 C3     3d1+      -0.0000   -0.0001    0.0000   -0.0000   -0.0000   -0.0000    0.0001    0.0000   -0.0000    0.0002
    36 C3     3d2+      -0.0000    0.0000    0.0000   -0.0001    0.0000    0.0001   -0.0000    0.0000   -0.0000    0.0003
    37 C4     1s        -0.0001    0.0004   -0.0001    0.0003   -0.0002    0.1739    0.9847    0.0003    0.0001   -0.0001
    38 C4     2s        -0.0005    0.0013   -0.0006    0.0011   -0.0012    0.0013    0.0021   -0.0005    0.0005   -0.0372
    39 C4     3s        -0.0004   -0.0002   -0.0002    0.0005   -0.0010    0.0003   -0.0001   -0.0005    0.0004   -0.0137
    40 C4     4s        -0.0001   -0.0003   -0.0000    0.0001   -0.0003    0.0003    0.0013   -0.0002    0.0001   -0.0046
    41 C4     2px        0.0004   -0.0014    0.0006    0.0006    0.0001    0.0002    0.0003   -0.0002    0.0000    0.0080
    42 C4     3px        0.0004   -0.0010    0.0003    0.0004    0.0000    0.0003   -0.0000   -0.0003   -0.0000    0.0038
    43 C4     4px        0.0000    0.0001   -0.0002   -0.0000   -0.0000    0.0001   -0.0000   -0.0000   -0.0000    0.0000
    44 C4     2py       -0.0001    0.0029   -0.0004   -0.0006    0.0001   -0.0004   -0.0002    0.0003   -0.0003    0.0032
    45 C4     3py       -0.0001    0.0021   -0.0003   -0.0005    0.0002    0.0001   -0.0003    0.0001   -0.0003    0.0067
    46 C4     4py        0.0000   -0.0003    0.0001    0.0000    0.0000    0.0003    0.0000   -0.0001   -0.0001    0.0014
    47 C4     2pz       -0.0003   -0.0003   -0.0000   -0.0013    0.0003    0.0014   -0.0009    0.0002   -0.0000   -0.0051
    48 C4     3pz       -0.0003   -0.0001    0.0004   -0.0008    0.0005    0.0011   -0.0005    0.0009   -0.0000   -0.0020
    49 C4     4pz       -0.0000    0.0001    0.0003    0.0002    0.0002   -0.0000   -0.0004    0.0005   -0.0000    0.0001
    50 C4     3d2-       0.0000    0.0001    0.0001    0.0001    0.0000    0.0000   -0.0004   -0.0000   -0.0000    0.0019
    51 C4     3d1-       0.0000   -0.0000    0.0001   -0.0001    0.0000   -0.0001    0.0001    0.0000   -0.0000    0.0009
    52 C4     3d0       -0.0000    0.0002    0.0001    0.0000   -0.0000   -0.0000   -0.0002    0.0001    0.0000    0.0005
    53 C4     3d1+       0.0000   -0.0001    0.0000    0.0001    0.0000   -0.0000   -0.0001   -0.0001   -0.0000    0.0011
    54 C4     3d2+      -0.0000    0.0000    0.0000    0.0000    0.0000   -0.0000   -0.0002   -0.0000   -0.0000    0.0013
    55 C6     1s         0.0000    0.0001   -0.0001    0.0003   -0.0001    0.0000   -0.0004    0.9997    0.0000   -0.0007
    56 C6     2s         0.0000    0.0008   -0.0008    0.0015   -0.0005    0.0003   -0.0005    0.0000    0.0002   -0.0086
    57 C6     3s         0.0000    0.0006   -0.0006    0.0004   -0.0004    0.0002   -0.0005   -0.0016    0.0001   -0.0060
    58 C6     4s         0.0000    0.0001   -0.0002   -0.0001   -0.0001    0.0000   -0.0003    0.0009    0.0000   -0.0021
    59 C6     2px       -0.0000   -0.0000   -0.0002    0.0001   -0.0003   -0.0002    0.0001    0.0001    0.0001   -0.0053
    60 C6     3px       -0.0001    0.0000   -0.0002    0.0001   -0.0002   -0.0002    0.0002   -0.0001    0.0001   -0.0051
    61 C6     4px       -0.0000    0.0000    0.0000    0.0000    0.0000   -0.0000    0.0001   -0.0000   -0.0000    0.0001
    62 C6     2py       -0.0001    0.0002    0.0001   -0.0003    0.0001   -0.0001   -0.0001   -0.0002   -0.0000    0.0026
    63 C6     3py       -0.0001    0.0001    0.0001   -0.0000    0.0001   -0.0001   -0.0001    0.0001   -0.0000    0.0015
    64 C6     4py       -0.0000   -0.0001   -0.0000    0.0001    0.0000   -0.0000   -0.0001   -0.0002    0.0000   -0.0005
    65 C6     2pz        0.0000    0.0004   -0.0001    0.0004   -0.0001    0.0002   -0.0005   -0.0001    0.0001   -0.0043
    66 C6     3pz        0.0000    0.0003   -0.0001   -0.0002   -0.0001    0.0000   -0.0006   -0.0002    0.0001   -0.0043
    67 C6     4pz        0.0000   -0.0000   -0.0000   -0.0002   -0.0001   -0.0001   -0.0001    0.0006    0.0000   -0.0012
    68 C6     3d2-      -0.0000   -0.0000   -0.0000    0.0001   -0.0000   -0.0000   -0.0000    0.0000    0.0000   -0.0002
    69 C6     3d1-      -0.0000   -0.0000    0.0000    0.0001    0.0000   -0.0000    0.0000    0.0001   -0.0000    0.0003
    70 C6     3d0       -0.0000    0.0000    0.0000   -0.0001    0.0000    0.0000    0.0000   -0.0001    0.0000   -0.0002
    71 C6     3d1+       0.0000   -0.0000   -0.0000   -0.0000   -0.0000   -0.0000   -0.0000   -0.0000   -0.0000    0.0001
    72 C6     3d2+      -0.0000   -0.0000   -0.0000    0.0001   -0.0000   -0.0000    0.0000    0.0000    0.0000   -0.0003
    73 C19    1s         0.0002   -0.0001   -0.0000   -0.0000    0.0038    0.0002    0.0000    0.0000   -0.9999    0.0146
    74 C19    2s         0.0011   -0.0005   -0.0002   -0.0002    0.0005    0.0007    0.0005    0.0001   -0.0019    0.0121
    75 C19    3s         0.0007   -0.0005   -0.0001   -0.0002    0.0001    0.0004    0.0003    0.0000    0.0005    0.0397
    76 C19    4s         0.0001   -0.0001   -0.0001   -0.0001    0.0001   -0.0000    0.0001   -0.0000   -0.0012    0.0039
    77 C19    2px        0.0008   -0.0002   -0.0004    0.0000   -0.0002    0.0003    0.0001    0.0000    0.0002    0.0073
    78 C19    3px        0.0006   -0.0001   -0.0003    0.0001   -0.0004    0.0002    0.0000    0.0000    0.0001    0.0078
    79 C19    4px       -0.0002    0.0000   -0.0000    0.0000   -0.0000   -0.0000   -0.0000   -0.0000   -0.0002   -0.0083
    80 C19    2py       -0.0002   -0.0002    0.0004   -0.0002    0.0004    0.0002    0.0001   -0.0001    0.0003   -0.0213
    81 C19    3py       -0.0003   -0.0001    0.0003   -0.0002   -0.0000    0.0000    0.0001   -0.0001    0.0000    0.0060
    82 C19    4py       -0.0001    0.0000   -0.0001   -0.0000   -0.0001   -0.0001   -0.0000   -0.0000   -0.0003   -0.0046
    83 C19    2pz       -0.0001   -0.0001    0.0002   -0.0002    0.0003    0.0002   -0.0000   -0.0000   -0.0000   -0.0031
    84 C19    3pz       -0.0001   -0.0001    0.0002   -0.0002    0.0003    0.0001   -0.0001   -0.0001   -0.0001    0.0008
    85 C19    4pz        0.0000   -0.0000   -0.0000   -0.0000    0.0000   -0.0000   -0.0000   -0.0000   -0.0000    0.0005
    86 C19    3d2-       0.0000   -0.0000   -0.0000   -0.0000    0.0000    0.0001    0.0000   -0.0000    0.0001   -0.0019
    87 C19    3d1-      -0.0000    0.0000    0.0000   -0.0000   -0.0000   -0.0000    0.0000    0.0000    0.0000   -0.0007
    88 C19    3d0       -0.0001    0.0000   -0.0001    0.0000    0.0001   -0.0000   -0.0000   -0.0000   -0.0001   -0.0014
    89 C19    3d1+      -0.0000    0.0000   -0.0000    0.0000    0.0000   -0.0000   -0.0000   -0.0000    0.0000   -0.0016
    90 C19    3d2+       0.0001    0.0000   -0.0000    0.0000   -0.0001   -0.0000   -0.0000   -0.0000   -0.0001    0.0066
    91 N2     1s         0.0000    0.0000    0.9998   -0.0000   -0.0003    0.0001    0.0000    0.0000   -0.0001    0.0169
    92 N2     2s         0.0001    0.0004   -0.0001   -0.0002   -0.0005    0.0018    0.0002    0.0000   -0.0005   -0.1223
    93 N2     3s         0.0001    0.0003   -0.0015   -0.0002   -0.0006    0.0010    0.0003    0.0000   -0.0004    0.0440
    94 N2     4s         0.0000    0.0001    0.0004   -0.0000   -0.0000    0.0003    0.0001    0.0000   -0.0001    0.0106
    95 N2     2px        0.0001   -0.0006    0.0003    0.0001   -0.0002    0.0005    0.0001   -0.0002    0.0004    0.0253
    96 N2     3px        0.0000   -0.0009    0.0002    0.0001   -0.0001    0.0001    0.0001   -0.0003    0.0004   -0.0186
    97 N2     4px        0.0000   -0.0001   -0.0002    0.0000   -0.0002   -0.0001    0.0000   -0.0000   -0.0001    0.0063
    98 N2     2py       -0.0017    0.0001   -0.0010   -0.0000    0.0003    0.0006    0.0002   -0.0000    0.0002   -0.0371
    99 N2     3py       -0.0020    0.0001   -0.0003   -0.0001    0.0003    0.0006    0.0003   -0.0000    0.0001   -0.0108
   100 N2     4py        0.0000   -0.0000    0.0005   -0.0000    0.0000    0.0002   -0.0001   -0.0000   -0.0001    0.0059
   101 N2     2pz       -0.0003    0.0001   -0.0003    0.0002   -0.0000   -0.0002    0.0001   -0.0000    0.0001   -0.0114
   102 N2     3pz       -0.0003    0.0001   -0.0002    0.0003   -0.0002   -0.0002   -0.0000   -0.0000    0.0001   -0.0058
   103 N2     4pz        0.0000    0.0000   -0.0002    0.0000   -0.0001    0.0000    0.0000   -0.0000    0.0000   -0.0012
   104 N2     3d2-       0.0001    0.0000   -0.0002    0.0000   -0.0001   -0.0000    0.0000    0.0000    0.0000    0.0037
   105 N2     3d1-       0.0000    0.0000    0.0001    0.0000   -0.0000   -0.0000   -0.0000    0.0000   -0.0000   -0.0001
   106 N2     3d0       -0.0000    0.0000   -0.0000    0.0000    0.0001    0.0001   -0.0000   -0.0000    0.0001    0.0023
   107 N2     3d1+       0.0000    0.0000   -0.0000    0.0000    0.0000    0.0000   -0.0000    0.0000    0.0000    0.0020
   108 N2     3d2+      -0.0000   -0.0000   -0.0001   -0.0000    0.0001   -0.0000    0.0000   -0.0000   -0.0000   -0.0039
   109 N5     1s        -0.0000    0.0001   -0.0001    0.9999    0.0001   -0.0000   -0.0002    0.0001   -0.0000    0.0018
   110 N5     2s        -0.0001    0.0008   -0.0005    0.0005    0.0004    0.0001   -0.0001    0.0017   -0.0003   -0.0009
   111 N5     3s        -0.0000    0.0006   -0.0003   -0.0011    0.0003    0.0001   -0.0003    0.0010   -0.0002    0.0060
   112 N5     4s         0.0000    0.0001   -0.0001    0.0006    0.0001    0.0000    0.0000    0.0004   -0.0001    0.0014
   113 N5     2px       -0.0002    0.0005    0.0002    0.0004    0.0001   -0.0001   -0.0001    0.0000   -0.0000    0.0037
   114 N5     3px       -0.0002    0.0005    0.0002    0.0001    0.0002   -0.0001   -0.0000   -0.0001   -0.0000    0.0034
   115 N5     4px       -0.0000    0.0000    0.0000   -0.0003    0.0000    0.0000   -0.0001   -0.0001   -0.0000    0.0010
   116 N5     2py        0.0000   -0.0014    0.0003   -0.0009    0.0002    0.0002    0.0005    0.0003   -0.0001    0.0003
   117 N5     3py        0.0000   -0.0017    0.0005   -0.0005    0.0004    0.0002    0.0003    0.0005   -0.0001    0.0027
   118 N5     4py       -0.0000   -0.0000    0.0001    0.0003    0.0001    0.0000    0.0000    0.0002   -0.0000    0.0008
   119 N5     2pz        0.0001    0.0009   -0.0009    0.0003   -0.0005    0.0001   -0.0002   -0.0009    0.0001   -0.0093
   120 N5     3pz        0.0002    0.0012   -0.0012    0.0002   -0.0009    0.0000   -0.0003   -0.0007    0.0003   -0.0138
   121 N5     4pz        0.0000    0.0000   -0.0001   -0.0001   -0.0002   -0.0001    0.0002   -0.0001    0.0001   -0.0033
   122 N5     3d2-       0.0000   -0.0000    0.0000   -0.0000    0.0000   -0.0000    0.0001    0.0000   -0.0000    0.0002
   123 N5     3d1-       0.0000   -0.0001   -0.0000    0.0000   -0.0000    0.0000    0.0001    0.0000   -0.0000   -0.0001
   124 N5     3d0        0.0000    0.0001   -0.0000   -0.0002   -0.0000   -0.0000   -0.0001   -0.0001   -0.0000   -0.0002
   125 N5     3d1+      -0.0000   -0.0000    0.0000    0.0000    0.0000   -0.0000    0.0001    0.0000    0.0000    0.0003
   126 N5     3d2+       0.0000   -0.0000    0.0000   -0.0000    0.0000   -0.0000    0.0001    0.0000   -0.0000   -0.0000
   127 O7     1s         0.9997    0.0000    0.0000    0.0000   -0.0003   -0.0000    0.0000    0.0000   -0.0001    0.0247
   128 O7     2s        -0.0014    0.0001    0.0001    0.0002    0.0004   -0.0002    0.0000    0.0000   -0.0004   -0.6846
   129 O7     3s        -0.0013    0.0000    0.0000    0.0001   -0.0000   -0.0001    0.0000    0.0000   -0.0003    0.0369
   130 O7     4s         0.0001   -0.0000   -0.0001    0.0001    0.0000    0.0000    0.0000    0.0000   -0.0001    0.0145
   131 O7     2px        0.0001    0.0000   -0.0004    0.0001    0.0003   -0.0001   -0.0001    0.0000   -0.0001   -0.0712
   132 O7     3px       -0.0002    0.0000   -0.0005    0.0002   -0.0002   -0.0000   -0.0001    0.0001   -0.0001    0.0211
   133 O7     4px        0.0007   -0.0000   -0.0001    0.0000    0.0000    0.0000   -0.0000    0.0000    0.0000    0.0009
   134 O7     2py       -0.0003    0.0001   -0.0002    0.0000   -0.0007   -0.0000   -0.0000   -0.0000    0.0002    0.1292
   135 O7     3py        0.0005    0.0001   -0.0002    0.0001   -0.0004   -0.0001   -0.0000   -0.0000    0.0001   -0.0404
   136 O7     4py       -0.0012    0.0000    0.0000    0.0000   -0.0003   -0.0000    0.0000   -0.0000   -0.0000   -0.0002
   137 O7     2pz       -0.0001    0.0001    0.0000   -0.0000   -0.0001    0.0000    0.0000   -0.0000    0.0000    0.0260
   138 O7     3pz        0.0001    0.0001    0.0000   -0.0001   -0.0000    0.0000   -0.0000   -0.0000    0.0000   -0.0099
   139 O7     4pz       -0.0003    0.0001    0.0000   -0.0000   -0.0001   -0.0000   -0.0000   -0.0000   -0.0000   -0.0001
   140 O7     3d2-       0.0001   -0.0000    0.0000   -0.0000   -0.0002    0.0000   -0.0000   -0.0000   -0.0000    0.0157
   141 O7     3d1-      -0.0000    0.0000    0.0000   -0.0000    0.0001    0.0000   -0.0000    0.0000   -0.0000   -0.0065
   142 O7     3d0       -0.0000    0.0000   -0.0000    0.0000   -0.0001   -0.0000    0.0000   -0.0000    0.0000    0.0095
   143 O7     3d1+      -0.0000    0.0000    0.0000   -0.0000   -0.0000   -0.0000    0.0000    0.0000    0.0000    0.0033
   144 O7     3d2+       0.0000    0.0000   -0.0001   -0.0000   -0.0001    0.0000   -0.0000    0.0000    0.0000    0.0101
   145 O8     1s         0.0000    0.9997    0.0001    0.0000    0.0000   -0.0000   -0.0002   -0.0000   -0.0000    0.0018
   146 O8     2s         0.0003   -0.0014    0.0005    0.0001    0.0002    0.0003    0.0005   -0.0003   -0.0000   -0.0177
   147 O8     3s         0.0002   -0.0014    0.0003    0.0001    0.0001    0.0002    0.0000   -0.0002   -0.0000    0.0045
   148 O8     4s         0.0000    0.0001    0.0000   -0.0000    0.0000    0.0000    0.0000   -0.0000   -0.0000    0.0011
   149 O8     2px       -0.0000    0.0001    0.0000   -0.0001    0.0001    0.0001    0.0005   -0.0000    0.0000   -0.0010
   150 O8     3px       -0.0001   -0.0003   -0.0000   -0.0001    0.0001   -0.0000    0.0001   -0.0000    0.0000   -0.0001
   151 O8     4px       -0.0000    0.0006   -0.0000   -0.0000    0.0000   -0.0000    0.0001    0.0000    0.0000   -0.0006
   152 O8     2py       -0.0000   -0.0003   -0.0001    0.0000   -0.0000   -0.0002   -0.0006    0.0001    0.0000    0.0042
   153 O8     3py        0.0000    0.0004   -0.0000    0.0001    0.0000   -0.0002   -0.0001    0.0000    0.0001   -0.0025
   154 O8     4py        0.0000   -0.0013    0.0001    0.0001    0.0000   -0.0000   -0.0002   -0.0000    0.0000    0.0005
   155 O8     2pz        0.0000   -0.0000   -0.0001    0.0003   -0.0001   -0.0001    0.0000    0.0000   -0.0000   -0.0006
   156 O8     3pz        0.0001   -0.0001   -0.0001    0.0003   -0.0002   -0.0002    0.0001    0.0000   -0.0000   -0.0007
   157 O8     4pz        0.0000    0.0000   -0.0001    0.0000   -0.0000   -0.0001    0.0001   -0.0000    0.0000   -0.0004
   158 O8     3d2-       0.0000    0.0000   -0.0000   -0.0000   -0.0000   -0.0001   -0.0002    0.0000    0.0000    0.0004
   159 O8     3d1-      -0.0000   -0.0000    0.0000   -0.0001    0.0000   -0.0000   -0.0000   -0.0000    0.0000    0.0002
   160 O8     3d0        0.0000    0.0001   -0.0000    0.0000    0.0000   -0.0000   -0.0002    0.0000   -0.0000    0.0004
   161 O8     3d1+       0.0000   -0.0000    0.0000    0.0000    0.0000    0.0000    0.0000    0.0000   -0.0000    0.0001
   162 O8     3d2+      -0.0000    0.0000   -0.0000   -0.0000    0.0000   -0.0000   -0.0001    0.0000    0.0000    0.0004
   163 H9     1s         0.0002   -0.0002    0.0003   -0.0002    0.0002    0.0000    0.0000   -0.0000   -0.0003   -0.0136
   164 H9     2s         0.0001   -0.0001    0.0002   -0.0002    0.0002    0.0000    0.0000   -0.0000    0.0002   -0.0031
   165 H9     2px       -0.0000   -0.0000    0.0000   -0.0000    0.0001   -0.0000    0.0000   -0.0000    0.0000   -0.0010
   166 H9     2py       -0.0001    0.0000   -0.0000    0.0000    0.0000   -0.0000    0.0000    0.0000   -0.0000   -0.0010
   167 H9     2pz        0.0000   -0.0000    0.0000   -0.0000    0.0000   -0.0000    0.0000   -0.0000    0.0001   -0.0005
   168 H10    1s         0.0002   -0.0001   -0.0000    0.0000   -0.0001   -0.0003   -0.0001   -0.0001   -0.0002   -0.0149
   169 H10    2s         0.0001   -0.0001   -0.0000    0.0000   -0.0001   -0.0002   -0.0001   -0.0000    0.0003   -0.0033
   170 H10    2px       -0.0000   -0.0000    0.0000   -0.0000    0.0000   -0.0000   -0.0000   -0.0000    0.0000   -0.0009
   171 H10    2py       -0.0000   -0.0000   -0.0000   -0.0000    0.0001   -0.0000   -0.0000   -0.0000   -0.0000   -0.0010
   172 H10    2pz       -0.0000    0.0000    0.0000    0.0000   -0.0000    0.0000    0.0000    0.0000   -0.0001    0.0007
   173 H11    1s        -0.0005   -0.0001    0.0005   -0.0002    0.0003   -0.0000   -0.0000   -0.0001   -0.0003   -0.0203
   174 H11    2s        -0.0003   -0.0001    0.0004   -0.0002    0.0002   -0.0000   -0.0000   -0.0001    0.0002   -0.0057
   175 H11    2px       -0.0000    0.0000   -0.0001    0.0000   -0.0000    0.0000    0.0000    0.0000   -0.0001   -0.0001
   176 H11    2py       -0.0000   -0.0000    0.0000   -0.0000    0.0001    0.0000   -0.0000   -0.0000    0.0000   -0.0020
   177 H11    2pz        0.0000    0.0000    0.0000    0.0000   -0.0000   -0.0000   -0.0000    0.0000    0.0000    0.0002
   178 H12    1s        -0.0012    0.0002   -0.0011    0.0003    0.0002   -0.0004    0.0002    0.0000    0.0004   -0.0389
   179 H12    2s        -0.0007    0.0001   -0.0007    0.0002   -0.0000   -0.0002    0.0001   -0.0000    0.0002    0.0024
   180 H12    2px        0.0000    0.0000    0.0002   -0.0000   -0.0001    0.0001   -0.0000    0.0000   -0.0000    0.0030
   181 H12    2py       -0.0000    0.0000   -0.0005    0.0000    0.0000   -0.0000   -0.0000    0.0000    0.0000   -0.0053
   182 H12    2pz       -0.0000    0.0000   -0.0002   -0.0000    0.0001   -0.0000    0.0000   -0.0000    0.0000   -0.0013
   183 H13    1s        -0.0008    0.0005   -0.0005   -0.0001   -0.0006    0.0010   -0.0006    0.0001   -0.0002   -0.0146
   184 H13    2s        -0.0004    0.0003   -0.0002   -0.0000   -0.0003    0.0002   -0.0003    0.0001   -0.0001   -0.0006
   185 H13    2px        0.0001    0.0000    0.0000    0.0000    0.0000    0.0000    0.0000   -0.0000    0.0000    0.0010
   186 H13    2py        0.0001   -0.0001   -0.0000    0.0000    0.0000   -0.0001    0.0000   -0.0000    0.0000    0.0013
   187 H13    2pz        0.0000    0.0000   -0.0000   -0.0000    0.0001   -0.0001   -0.0000    0.0000    0.0000    0.0010
   188 H14    1s         0.0006   -0.0000   -0.0001    0.0004   -0.0001    0.0006    0.0001   -0.0004    0.0003   -0.0088
   189 H14    2s         0.0003    0.0000   -0.0000    0.0002   -0.0001   -0.0000    0.0002   -0.0003    0.0002   -0.0006
   190 H14    2px       -0.0001   -0.0000   -0.0000   -0.0001   -0.0000    0.0000   -0.0000    0.0000   -0.0000    0.0009
   191 H14    2py        0.0000    0.0001    0.0001    0.0000   -0.0000   -0.0000    0.0000   -0.0000    0.0000    0.0002
   192 H14    2pz       -0.0000    0.0000    0.0000    0.0001    0.0000   -0.0000   -0.0001    0.0000   -0.0000    0.0000
   193 H15    1s         0.0002   -0.0014    0.0003   -0.0010    0.0001    0.0001    0.0004   -0.0002   -0.0001   -0.0025
   194 H15    2s         0.0001   -0.0008    0.0002   -0.0007    0.0001    0.0001    0.0001   -0.0000   -0.0001   -0.0000
   195 H15    2px        0.0000    0.0000   -0.0000    0.0002    0.0000   -0.0000   -0.0001    0.0000    0.0000    0.0004
   196 H15    2py        0.0000   -0.0001    0.0000   -0.0005   -0.0000    0.0000    0.0001   -0.0000   -0.0000   -0.0005
   197 H15    2pz        0.0000    0.0000   -0.0000    0.0001    0.0000    0.0000    0.0001   -0.0000   -0.0000    0.0004
   198 H16    1s        -0.0001    0.0005   -0.0000   -0.0005   -0.0001   -0.0001   -0.0003    0.0005    0.0001   -0.0045
   199 H16    2s        -0.0001    0.0003   -0.0000   -0.0002   -0.0001   -0.0001   -0.0003   -0.0002    0.0001   -0.0032
   200 H16    2px        0.0000    0.0000    0.0000   -0.0000    0.0000    0.0000   -0.0000   -0.0000   -0.0000    0.0001
   201 H16    2py        0.0000    0.0000   -0.0000    0.0000   -0.0000    0.0000   -0.0000   -0.0000    0.0000   -0.0003
   202 H16    2pz       -0.0000    0.0000   -0.0000   -0.0001   -0.0000   -0.0000   -0.0000    0.0000    0.0000   -0.0002
   203 H17    1s         0.0000   -0.0001   -0.0001   -0.0001   -0.0002    0.0000    0.0000    0.0010    0.0001   -0.0063
   204 H17    2s         0.0000   -0.0000   -0.0001   -0.0000   -0.0001    0.0000    0.0001    0.0001    0.0001   -0.0037
   205 H17    2px        0.0000   -0.0000    0.0000    0.0000   -0.0000    0.0000   -0.0000    0.0001   -0.0000   -0.0001
   206 H17    2py        0.0000    0.0000    0.0000   -0.0000    0.0000   -0.0000    0.0000   -0.0001   -0.0000    0.0007
   207 H17    2pz        0.0000   -0.0000    0.0000    0.0000    0.0000    0.0000    0.0000    0.0000    0.0000    0.0001
   208 H18    1s         0.0001    0.0002    0.0002   -0.0005    0.0001    0.0001   -0.0004    0.0005   -0.0001    0.0013
   209 H18    2s         0.0001    0.0001    0.0001   -0.0002    0.0000    0.0001   -0.0003   -0.0001   -0.0000    0.0006
   210 H18    2px       -0.0000   -0.0000   -0.0000    0.0000   -0.0000   -0.0000    0.0001    0.0000    0.0000   -0.0001
   211 H18    2py        0.0000   -0.0000    0.0000    0.0000    0.0000    0.0000    0.0000   -0.0000   -0.0000   -0.0000
   212 H18    2pz        0.0000    0.0000   -0.0000   -0.0000   -0.0000    0.0000   -0.0000    0.0000   -0.0000   -0.0000
 
 
      Orbital                11        12        13        14        15        16        17        18        19        20
      Energy            -1.3577   -1.2547   -1.2086   -1.0268   -0.9688   -0.9145   -0.8181   -0.7727   -0.7101   -0.6959
      Occ. No.           2.0000    2.0000    2.0000    2.0000    2.0000    2.0000    2.0000    2.0000    2.0000    2.0000
 
     1 C1     1s         0.0045   -0.0060    0.0036   -0.0153   -0.0012    0.0082    0.0148   -0.0019   -0.0053    0.0055
     2 C1     2s         0.0102    0.1359   -0.0168    0.2694   -0.0313   -0.0521   -0.3885    0.0308    0.1998   -0.1873
     3 C1     3s         0.0198    0.0100    0.0124   -0.0164   -0.0081    0.0225    0.0043   -0.0071   -0.0031    0.0165
     4 C1     4s         0.0059    0.0027    0.0040   -0.0048   -0.0035    0.0067    0.0026   -0.0021   -0.0029    0.0041
     5 C1     2px        0.0322    0.1334   -0.0054   -0.0236    0.1116   -0.0765   -0.1465    0.0016   -0.1152    0.2586
     6 C1     3px        0.0251   -0.0447    0.0356   -0.0351   -0.0287    0.0329    0.0282   -0.0121    0.0533   -0.0693
     7 C1     4px        0.0071    0.0226    0.0025   -0.0102    0.0134   -0.0065   -0.0117   -0.0009   -0.0012    0.0145
     8 C1     2py        0.0091   -0.0501    0.0198   -0.1580    0.0365    0.0148   -0.0263    0.0286   -0.1003   -0.1037
     9 C1     3py        0.0280    0.0491    0.0062    0.0189   -0.0560    0.0323    0.0070   -0.0120    0.0258    0.0472
    10 C1     4py        0.0024   -0.0093    0.0048   -0.0239    0.0031    0.0025   -0.0041    0.0020    0.0008   -0.0093
    11 C1     2pz       -0.0049   -0.0327   -0.0008   -0.0162   -0.0101    0.0052    0.0167    0.0121   -0.0018   -0.0627
    12 C1     3pz       -0.0019    0.0089   -0.0116    0.0107   -0.0048   -0.0105   -0.0035    0.0082   -0.0024    0.0165
    13 C1     4pz       -0.0016   -0.0053   -0.0017   -0.0006   -0.0016   -0.0003    0.0010    0.0031   -0.0010   -0.0045
    14 C1     3d2-       0.0019    0.0081   -0.0013    0.0083   -0.0127    0.0085   -0.0090    0.0066   -0.0129    0.0041
    15 C1     3d1-      -0.0011   -0.0041    0.0006    0.0011    0.0000   -0.0011   -0.0002   -0.0007    0.0053   -0.0052
    16 C1     3d0        0.0003   -0.0059    0.0011   -0.0108   -0.0002    0.0035    0.0137   -0.0012   -0.0029    0.0042
    17 C1     3d1+      -0.0002   -0.0051    0.0008   -0.0017   -0.0031    0.0031    0.0038    0.0016   -0.0028   -0.0026
    18 C1     3d2+       0.0028    0.0291   -0.0053    0.0028    0.0129   -0.0092   -0.0140    0.0018   -0.0160    0.0218
    19 C3     1s        -0.0143   -0.0304   -0.0012    0.0314    0.0252   -0.0211    0.0031   -0.0057   -0.0023    0.0034
    20 C3     2s         0.0149    0.1642   -0.0100   -0.2920   -0.2848    0.3188   -0.0779    0.0756    0.0554   -0.0037
    21 C3     3s        -0.0412   -0.0578   -0.0083    0.0525    0.0365   -0.0167    0.0088   -0.0097   -0.0071    0.0040
    22 C3     4s        -0.0065   -0.0132   -0.0002    0.0155    0.0098   -0.0057    0.0034   -0.0032   -0.0033   -0.0005
    23 C3     2px       -0.0057   -0.0441    0.0271   -0.0206   -0.0581    0.0022    0.0341   -0.0324    0.2099   -0.0728
    24 C3     3px        0.0106    0.0279    0.0088   -0.0472   -0.0231    0.0065   -0.0131    0.0075   -0.0238   -0.0051
    25 C3     4px        0.0044    0.0007    0.0025   -0.0124   -0.0086    0.0086    0.0018    0.0026    0.0095   -0.0012
    26 C3     2py        0.0278   -0.0939    0.0160    0.0194   -0.0179    0.0157   -0.1626   -0.0432    0.1526    0.2145
    27 C3     3py        0.0135    0.0004    0.0127   -0.0014    0.0460    0.0224   -0.0053    0.0017   -0.0391   -0.0178
    28 C3     4py        0.0030   -0.0054    0.0067   -0.0025   -0.0030    0.0078   -0.0132   -0.0026    0.0009    0.0061
    29 C3     2pz       -0.0027    0.0186   -0.0304    0.0152    0.0435    0.0556   -0.0004    0.1262   -0.1429   -0.0813
    30 C3     3pz        0.0166    0.0292   -0.0053   -0.0129   -0.0265    0.0191   -0.0107   -0.0170    0.0117    0.0179
    31 C3     4pz       -0.0076    0.0099   -0.0022   -0.0102   -0.0083    0.0169   -0.0032    0.0071    0.0005   -0.0000
    32 C3     3d2-       0.0011    0.0196   -0.0005   -0.0035    0.0067   -0.0017    0.0032    0.0020   -0.0283   -0.0052
    33 C3     3d1-      -0.0046   -0.0023    0.0007    0.0038    0.0063    0.0014    0.0019    0.0079   -0.0067   -0.0036
    34 C3     3d0       -0.0020   -0.0082    0.0059    0.0009   -0.0094   -0.0049   -0.0119   -0.0107    0.0160    0.0172
    35 C3     3d1+       0.0028   -0.0010   -0.0011    0.0009   -0.0006   -0.0007    0.0041   -0.0037    0.0079   -0.0008
    36 C3     3d2+      -0.0027   -0.0059    0.0025    0.0028   -0.0015   -0.0021   -0.0125    0.0013    0.0013    0.0017
    37 C4     1s        -0.0405    0.0057   -0.0058    0.0079    0.0124    0.0094    0.0057    0.0152   -0.0019   -0.0033
    38 C4     2s         0.3609    0.0536    0.1042   -0.0928   -0.2293   -0.0622   -0.1134   -0.3861    0.0775    0.1082
    39 C4     3s        -0.0093    0.0265    0.0030    0.0216    0.0076    0.0202    0.0089    0.0064    0.0002   -0.0040
    40 C4     4s         0.0017    0.0064    0.0008    0.0078    0.0034    0.0057    0.0035    0.0039   -0.0019   -0.0026
    41 C4     2px       -0.0336    0.0020    0.0855   -0.0090   -0.0420   -0.0456   -0.0115   -0.0720    0.0031   -0.0136
    42 C4     3px        0.0319   -0.0136   -0.0191    0.0093    0.0217    0.0148    0.0018    0.0058    0.0078    0.0178
    43 C4     4px       -0.0092    0.0042    0.0162   -0.0025   -0.0038   -0.0028   -0.0004   -0.0044    0.0012   -0.0017
    44 C4     2py        0.0967   -0.0471   -0.0941    0.0392    0.0971    0.0497    0.0189    0.0560   -0.0259   -0.0094
    45 C4     3py       -0.0552    0.0189    0.0595   -0.0407   -0.0239    0.0217   -0.0111   -0.0142    0.0130   -0.0043
    46 C4     4py        0.0254   -0.0073   -0.0149    0.0011    0.0104    0.0089   -0.0005    0.0006    0.0015    0.0012
    47 C4     2pz       -0.0381    0.0124   -0.1182   -0.0513   -0.0769    0.0469   -0.0183    0.0989    0.1740    0.1345
    48 C4     3pz       -0.0057   -0.0133   -0.0360    0.0226   -0.0240   -0.1282    0.0482   -0.0187   -0.0616   -0.0550
    49 C4     4pz       -0.0101   -0.0035   -0.0274   -0.0057   -0.0112   -0.0096    0.0041    0.0078    0.0059    0.0037
    50 C4     3d2-      -0.0330    0.0028    0.0025   -0.0000    0.0044    0.0088   -0.0021    0.0035   -0.0045   -0.0007
    51 C4     3d1-      -0.0023   -0.0017    0.0167    0.0063    0.0015   -0.0177    0.0028   -0.0012   -0.0086   -0.0052
    52 C4     3d0       -0.0160    0.0056    0.0182   -0.0059   -0.0099    0.0034   -0.0093   -0.0169   -0.0053   -0.0009
    53 C4     3d1+      -0.0026   -0.0033   -0.0156   -0.0001    0.0040    0.0111    0.0018    0.0100    0.0126    0.0037
    54 C4     3d2+      -0.0236    0.0015    0.0082    0.0009    0.0022    0.0003   -0.0004    0.0004   -0.0036   -0.0027
    55 C6     1s        -0.0098    0.0003   -0.0351   -0.0146   -0.0347   -0.0434    0.0021    0.0086   -0.0074   -0.0026
    56 C6     2s         0.0255    0.0292    0.1611    0.0691    0.2367    0.3878   -0.0549   -0.0984    0.0406    0.0273
    57 C6     3s        -0.0163    0.0114   -0.0610   -0.0288   -0.0650   -0.0683    0.0017    0.0201   -0.0215   -0.0069
    58 C6     4s        -0.0011    0.0041   -0.0101   -0.0053   -0.0142   -0.0138    0.0012    0.0056   -0.0052   -0.0020
    59 C6     2px       -0.0070    0.0102   -0.0008    0.0067    0.0044    0.0137    0.0044    0.0631    0.0523    0.0395
    60 C6     3px       -0.0035    0.0082    0.0010    0.0059    0.0044    0.0116   -0.0026   -0.0026   -0.0036   -0.0034
    61 C6     4px       -0.0004   -0.0008    0.0015   -0.0005    0.0015    0.0009   -0.0008    0.0041    0.0028    0.0018
    62 C6     2py       -0.0046   -0.0095   -0.0377   -0.0096   -0.0102    0.0062   -0.0187   -0.1387   -0.0306   -0.0402
    63 C6     3py        0.0011   -0.0049    0.0076    0.0010    0.0027   -0.0057    0.0014    0.0050    0.0006    0.0017
    64 C6     4py       -0.0011   -0.0001   -0.0026    0.0018    0.0042    0.0064   -0.0014   -0.0095   -0.0018   -0.0021
    65 C6     2pz        0.0241    0.0154    0.0999    0.0185    0.0091   -0.0355    0.0202    0.0545   -0.1316   -0.0804
    66 C6     3pz       -0.0038    0.0087   -0.0201   -0.0055   -0.0234   -0.0061    0.0010   -0.0023    0.0182    0.0112
    67 C6     4pz        0.0034    0.0023   -0.0005   -0.0025   -0.0138   -0.0196    0.0035    0.0066   -0.0062   -0.0038
    68 C6     3d2-      -0.0003    0.0004    0.0001   -0.0005   -0.0016   -0.0017    0.0001    0.0018    0.0029    0.0026
    69 C6     3d1-      -0.0027   -0.0020   -0.0154   -0.0032   -0.0042    0.0010   -0.0035   -0.0166    0.0044    0.0019
    70 C6     3d0        0.0045    0.0012    0.0183    0.0035    0.0040   -0.0030    0.0015    0.0031   -0.0135   -0.0075
    71 C6     3d1+      -0.0001    0.0001    0.0008   -0.0001    0.0001    0.0000    0.0006    0.0073    0.0031    0.0028
    72 C6     3d2+      -0.0009    0.0003   -0.0033   -0.0006   -0.0019   -0.0004   -0.0007   -0.0021    0.0035    0.0026
    73 C19    1s         0.0013   -0.0095    0.0023   -0.0578    0.0413   -0.0184   -0.0135   -0.0014    0.0091   -0.0023
    74 C19    2s         0.0072    0.0028   -0.0016    0.3094   -0.2816    0.1377    0.0882    0.0172   -0.0903    0.0345
    75 C19    3s         0.0098   -0.0264    0.0102   -0.1142    0.0735   -0.0312   -0.0341   -0.0030    0.0193    0.0008
    76 C19    4s         0.0038   -0.0033    0.0032   -0.0243    0.0163   -0.0069   -0.0096   -0.0013    0.0058    0.0001
    77 C19    2px        0.0025    0.0260   -0.0068    0.0586    0.0013   -0.0223   -0.0556   -0.0201    0.1165    0.0547
    78 C19    3px        0.0006    0.0002   -0.0017    0.0009    0.0054    0.0007    0.0057   -0.0005   -0.0175    0.0003
    79 C19    4px       -0.0009    0.0008   -0.0004   -0.0097    0.0140   -0.0083   -0.0042   -0.0022    0.0075   -0.0002
    80 C19    2py        0.0056    0.0046    0.0055    0.0413   -0.0081   -0.0117   -0.0664   -0.0093    0.1885   -0.1637
    81 C19    3py        0.0074   -0.0042    0.0094   -0.0287    0.0172   -0.0013    0.0102   -0.0035   -0.0179    0.0220
    82 C19    4py        0.0004    0.0005    0.0009   -0.0121    0.0134   -0.0071   -0.0129    0.0004    0.0068   -0.0054
    83 C19    2pz        0.0039   -0.0064    0.0045   -0.0032   -0.0026    0.0031   -0.0023   -0.0001    0.0056   -0.0357
    84 C19    3pz        0.0048   -0.0037    0.0046   -0.0046   -0.0002    0.0019   -0.0010   -0.0041   -0.0009    0.0026
    85 C19    4pz        0.0005   -0.0001    0.0003   -0.0002   -0.0001    0.0004   -0.0010   -0.0005   -0.0005   -0.0008
    86 C19    3d2-       0.0002    0.0053   -0.0011    0.0120   -0.0027   -0.0018   -0.0090   -0.0007    0.0161   -0.0107
    87 C19    3d1-      -0.0000   -0.0010    0.0002    0.0008   -0.0008    0.0005    0.0002   -0.0003    0.0014   -0.0009
    88 C19    3d0       -0.0001   -0.0010    0.0004   -0.0088    0.0033    0.0004    0.0040    0.0017   -0.0106   -0.0024
    89 C19    3d1+      -0.0002    0.0004   -0.0000    0.0003   -0.0000   -0.0001   -0.0008   -0.0000    0.0010   -0.0009
    90 C19    3d2+       0.0004    0.0033   -0.0005   -0.0049    0.0040   -0.0014    0.0016    0.0005   -0.0091    0.0086
    91 N2     1s        -0.0029   -0.0394    0.0051   -0.0039   -0.0046    0.0027   -0.0057    0.0011   -0.0046    0.0006
    92 N2     2s         0.0361    0.5939   -0.1015   -0.0294    0.2094   -0.0921    0.1167   -0.0157   -0.1562    0.0224
    93 N2     3s        -0.0047   -0.0704    0.0092   -0.0118   -0.0005    0.0036   -0.0134    0.0007   -0.0169    0.0045
    94 N2     4s        -0.0014   -0.0236    0.0035   -0.0012   -0.0029    0.0020   -0.0040   -0.0005   -0.0007    0.0002
    95 N2     2px        0.0149   -0.0283    0.0142   -0.1472   -0.0476    0.1228    0.3544   -0.0139   -0.0148   -0.2702
    96 N2     3px        0.0121   -0.0128    0.0020    0.0326    0.0587   -0.0411   -0.0968   -0.0077    0.0129    0.0491
    97 N2     4px        0.0014    0.0002    0.0008   -0.0050    0.0088   -0.0038   -0.0002   -0.0024    0.0044    0.0059
    98 N2     2py        0.0042   -0.0078    0.0185   -0.1090   -0.0594    0.0965   -0.2233    0.1553   -0.3537   -0.0508
    99 N2     3py       -0.0054   -0.0480    0.0175    0.0348    0.0514   -0.0541    0.0383   -0.0344    0.0735   -0.0005
   100 N2     4py       -0.0004   -0.0158    0.0016    0.0002    0.0040   -0.0041   -0.0095   -0.0008    0.0019    0.0017
   101 N2     2pz       -0.0081   -0.0053   -0.0017    0.0266    0.0160   -0.0008   -0.0863    0.0465   -0.0962   -0.0029
   102 N2     3pz       -0.0079    0.0067    0.0012    0.0125    0.0017    0.0036    0.0264   -0.0127    0.0105   -0.0021
   103 N2     4pz       -0.0012   -0.0004    0.0001    0.0036    0.0002    0.0021   -0.0016   -0.0010   -0.0001    0.0010
   104 N2     3d2-       0.0009    0.0067   -0.0003   -0.0041   -0.0089    0.0096    0.0001    0.0060   -0.0104   -0.0040
   105 N2     3d1-      -0.0008    0.0012   -0.0013    0.0009    0.0035   -0.0017    0.0058   -0.0008    0.0034   -0.0018
   106 N2     3d0       -0.0011   -0.0150    0.0029    0.0015   -0.0033    0.0007    0.0012   -0.0007    0.0027   -0.0009
   107 N2     3d1+      -0.0010   -0.0053    0.0007    0.0002   -0.0019    0.0023    0.0005    0.0015   -0.0014   -0.0009
   108 N2     3d2+       0.0004    0.0058   -0.0004    0.0091    0.0045   -0.0067   -0.0217    0.0030   -0.0013    0.0078
   109 N5     1s        -0.0194   -0.0061   -0.0413   -0.0031    0.0006    0.0033   -0.0010   -0.0040   -0.0034   -0.0031
   110 N5     2s         0.1380    0.0457    0.5796    0.0314   -0.0255   -0.2199    0.0496    0.1559   -0.1130   -0.0643
   111 N5     3s        -0.0478   -0.0123   -0.0752   -0.0112   -0.0057   -0.0114    0.0011   -0.0006   -0.0164   -0.0130
   112 N5     4s        -0.0114   -0.0030   -0.0253   -0.0039   -0.0024   -0.0007   -0.0004   -0.0015   -0.0018   -0.0016
   113 N5     2px       -0.0190   -0.0136   -0.0062    0.0063    0.0269    0.0214    0.0131    0.2058    0.0960    0.0770
   114 N5     3px        0.0067   -0.0122    0.0173   -0.0056    0.0044   -0.0030   -0.0147   -0.0468   -0.0214   -0.0122
   115 N5     4px       -0.0006   -0.0013    0.0058   -0.0002    0.0031   -0.0011    0.0012    0.0036    0.0008   -0.0005
   116 N5     2py        0.0417   -0.0083   -0.0029    0.0162    0.0205    0.0245   -0.0349   -0.3166   -0.1840   -0.1289
   117 N5     3py        0.0013   -0.0085   -0.0356    0.0020   -0.0157   -0.0503    0.0276    0.0708    0.0393    0.0201
   118 N5     4py       -0.0025   -0.0041   -0.0109   -0.0006   -0.0012   -0.0030   -0.0020   -0.0076   -0.0021   -0.0008
   119 N5     2pz        0.0018    0.0309    0.0088   -0.0609   -0.1676   -0.1635   -0.0266   -0.1676    0.0136    0.0025
   120 N5     3pz       -0.0248    0.0376    0.0117    0.0151    0.0391    0.0937   -0.0061    0.0539   -0.0206   -0.0016
   121 N5     4pz        0.0064    0.0063   -0.0003   -0.0004   -0.0046    0.0053   -0.0014    0.0041   -0.0016    0.0010
   122 N5     3d2-      -0.0037   -0.0001   -0.0080   -0.0009    0.0014    0.0064   -0.0010   -0.0028    0.0009    0.0003
   123 N5     3d1-       0.0046   -0.0003   -0.0005   -0.0023   -0.0077   -0.0095   -0.0017   -0.0134   -0.0018   -0.0010
   124 N5     3d0        0.0006    0.0027    0.0141    0.0003    0.0013    0.0056   -0.0024   -0.0088   -0.0028   -0.0020
   125 N5     3d1+      -0.0032   -0.0016   -0.0083    0.0013    0.0044    0.0056    0.0012    0.0101    0.0028    0.0017
   126 N5     3d2+      -0.0008    0.0003   -0.0043   -0.0011   -0.0010    0.0017   -0.0011   -0.0082   -0.0020   -0.0013
   127 O7     1s         0.0008    0.0030   -0.0006   -0.0040    0.0023    0.0001    0.0129   -0.0028   -0.0072    0.0237
   128 O7     2s        -0.0560   -0.2975    0.0453   -0.2042    0.0541    0.0185    0.3418   -0.0749   -0.1143    0.3970
   129 O7     3s        -0.0009   -0.0063    0.0002   -0.0195    0.0100    0.0000    0.0408   -0.0087   -0.0195    0.0665
   130 O7     4s         0.0004    0.0009   -0.0003   -0.0035    0.0024   -0.0003    0.0076   -0.0018   -0.0037    0.0136
   131 O7     2px       -0.0049    0.0053   -0.0047   -0.0096    0.0266   -0.0233   -0.1426    0.0387    0.0069   -0.1696
   132 O7     3px       -0.0003    0.0043   -0.0042   -0.0090   -0.0028    0.0026    0.0195   -0.0042    0.0050    0.0102
   133 O7     4px        0.0002    0.0008   -0.0009   -0.0019   -0.0016    0.0012    0.0015   -0.0001    0.0008   -0.0002
   134 O7     2py        0.0093    0.0439   -0.0053   -0.0288    0.0183    0.0041    0.1552   -0.0420   -0.1337    0.4430
   135 O7     3py       -0.0032    0.0015    0.0002    0.0115   -0.0030   -0.0007   -0.0266    0.0074    0.0209   -0.0536
   136 O7     4py       -0.0005   -0.0010    0.0003   -0.0010   -0.0003    0.0006   -0.0025    0.0016    0.0026   -0.0072
   137 O7     2pz        0.0002    0.0046    0.0010   -0.0029    0.0004    0.0052    0.0474   -0.0122   -0.0209    0.0948
   138 O7     3pz       -0.0020   -0.0003    0.0023    0.0024    0.0018    0.0010   -0.0065    0.0005    0.0017   -0.0076
   139 O7     4pz       -0.0006    0.0000    0.0008   -0.0001    0.0008    0.0005   -0.0008    0.0001    0.0001   -0.0008
   140 O7     3d2-       0.0010    0.0024   -0.0001    0.0015   -0.0030    0.0024    0.0109   -0.0026   -0.0013    0.0139
   141 O7     3d1-      -0.0005   -0.0023    0.0003   -0.0004   -0.0003   -0.0001   -0.0028    0.0008    0.0021   -0.0075
   142 O7     3d0        0.0006    0.0039   -0.0007    0.0014    0.0004   -0.0003    0.0037   -0.0014   -0.0023    0.0111
   143 O7     3d1+      -0.0001    0.0005   -0.0001    0.0010   -0.0009    0.0005    0.0025   -0.0005    0.0002    0.0024
   144 O7     3d2+       0.0008    0.0055   -0.0009   -0.0022    0.0037   -0.0019    0.0012   -0.0006   -0.0082    0.0181
   145 O8     1s        -0.0243    0.0017    0.0043    0.0007    0.0027    0.0000    0.0030    0.0112   -0.0015   -0.0044
   146 O8     2s         0.6682   -0.1359   -0.3103    0.0928    0.1611    0.0127    0.1123    0.3242   -0.0155   -0.0954
   147 O8     3s        -0.0306   -0.0024   -0.0070    0.0042    0.0136   -0.0011    0.0119    0.0399   -0.0047   -0.0143
[...]
AIVX     1  Mu1.0001  In1.022 Se1.039               0.25906938      0.00078117     -0.00140968     -0.00000110
AIVX     1  Mu1.0001  In1.023 Se1.039               0.23319080     -0.00077188      0.00200506     -0.00000155
AIVX     1  Mu1.0001  In1.024 Se1.039               0.21180243      0.00020938     -0.00020436     -0.00000004
AIVX     1  Mu1.0001  In1.025 Se1.039               0.21029665     -0.00005367      0.00002493     -0.00000000
AIVX     1  Mu1.0001  In1.026 Se1.039               0.20314780      0.00073828     -0.00113222     -0.00000084
AIVX     1  Mu1.0001  In1.027 Se1.039               0.20629214      0.00085751     -0.00142382     -0.00000122
AIVX     1  Mu1.0001  In1.028 Se1.039               0.19340587      0.00110832     -0.00200993     -0.00000223
AIVX     1  Mu1.0001  In1.029 Se1.039               0.15361464      0.00011699     -0.00022123     -0.00000003
AIVX     1  Mu1.0001  In1.022 Se1.040               0.26490320     -0.00117554      0.00221516     -0.00000260
AIVX     1  Mu1.0001  In1.023 Se1.040               0.23902463     -0.00013958     -0.00054371      0.00000008
AIVX     1  Mu1.0001  In1.024 Se1.040               0.21763625      0.00016580     -0.00044905     -0.00000007
AIVX     1  Mu1.0001  In1.025 Se1.040               0.21613047     -0.00032780      0.00085400     -0.00000028
AIVX     1  Mu1.0001  In1.026 Se1.040               0.20898163     -0.00098149      0.00086618     -0.00000085
AIVX     1  Mu1.0001  In1.027 Se1.040               0.21212596     -0.00070895      0.00097307     -0.00000069
AIVX     1  Mu1.0001  In1.028 Se1.040               0.19923969      0.00091426     -0.00100618     -0.00000092
AIVX     1  Mu1.0001  In1.029 Se1.040               0.15944846      0.00026775     -0.00035875     -0.00000010
AIVX     1  Mu1.0001  In1.022 Se1.041               0.28032050      0.00087235     -0.00133783     -0.00000117
AIVX     1  Mu1.0001  In1.023 Se1.041               0.25444193     -0.00364612      0.00547249     -0.00001995
AIVX     1  Mu1.0001  In1.024 Se1.041               0.23305355     -0.00022583      0.00029644     -0.00000007
AIVX     1  Mu1.0001  In1.025 Se1.041               0.23154777     -0.00021265      0.00011898     -0.00000003
AIVX     1  Mu1.0001  In1.026 Se1.041               0.22439893     -0.00105745      0.00164291     -0.00000174
AIVX     1  Mu1.0001  In1.027 Se1.041               0.22754326     -0.00139157      0.00238977     -0.00000333
AIVX     1  Mu1.0001  In1.028 Se1.041               0.21465699      0.00143505     -0.00257642     -0.00000370
AIVX     1  Mu1.0001  In1.029 Se1.041               0.17486576     -0.00011753      0.00018781     -0.00000002
AIVX     1  Mu1.0001  In1.022 Se1.042               0.29352382     -0.00037465      0.00062683     -0.00000023
AIVX     1  Mu1.0001  In1.023 Se1.042               0.26764524      0.00241042     -0.00410463     -0.00000989
AIVX     1  Mu1.0001  In1.024 Se1.042               0.24625687     -0.00036170      0.00048175     -0.00000017
AIVX     1  Mu1.0001  In1.025 Se1.042               0.24475109     -0.00012966      0.00067820     -0.00000009
AIVX     1  Mu1.0001  In1.026 Se1.042               0.23760224     -0.00114919      0.00135152     -0.00000155
AIVX     1  Mu1.0001  In1.027 Se1.042               0.24074658     -0.00075922      0.00106179     -0.00000081
AIVX     1  Mu1.0001  In1.028 Se1.042               0.22786031      0.00221199     -0.00316871     -0.00000701
AIVX     1  Mu1.0001  In1.029 Se1.042               0.18806908      0.00006999      0.00000901      0.00000000
AIVX     1  Mu1.0001  In1.023 Se1.043               0.27569504      0.00286028     -0.00407143     -0.00001165
AIVX     1  Mu1.0001  In1.024 Se1.043               0.25430667      0.00224314     -0.00377993     -0.00000848
AIVX     1  Mu1.0001  In1.025 Se1.043               0.25280089     -0.00026441      0.00044936     -0.00000012
AIVX     1  Mu1.0001  In1.026 Se1.043               0.24565204      0.00078575     -0.00105931     -0.00000083
AIVX     1  Mu1.0001  In1.027 Se1.043               0.24879638      0.00278911     -0.00450440     -0.00001256
AIVX     1  Mu1.0001  In1.028 Se1.043               0.23591011     -0.00079999      0.00131008     -0.00000105
AIVX     1  Mu1.0001  In1.029 Se1.043               0.19611888     -0.00000455     -0.00000245      0.00000000
AIVX     1  Mu1.0001  In1.023 Se1.044               0.28433571      0.00433687     -0.00657480     -0.00002851
AIVX     1  Mu1.0001  In1.024 Se1.044               0.26294733      0.00065851     -0.00119754     -0.00000079
AIVX     1  Mu1.0001  In1.025 Se1.044               0.26144155      0.00020125     -0.00000422     -0.00000000
AIVX     1  Mu1.0001  In1.026 Se1.044               0.25429271      0.00021932     -0.00027972     -0.00000006
AIVX     1  Mu1.0001  In1.027 Se1.044               0.25743704      0.00082558     -0.00124389     -0.00000103
AIVX     1  Mu1.0001  In1.028 Se1.044               0.24455078     -0.00028970      0.00042034     -0.00000012
AIVX     1  Mu1.0001  In1.029 Se1.044               0.20475954     -0.00080477      0.00142519     -0.00000115
AIVX     1  Mu1.0001  In1.023 Se1.045               0.29647072     -0.00161469      0.00212511     -0.00000343
AIVX     1  Mu1.0001  In1.024 Se1.045               0.27508235      0.00081899     -0.00137307     -0.00000112
AIVX     1  Mu1.0001  In1.025 Se1.045               0.27357657     -0.00023451      0.00067220     -0.00000016
AIVX     1  Mu1.0001  In1.026 Se1.045               0.26642772     -0.00047908      0.00060722     -0.00000029
AIVX     1  Mu1.0001  In1.027 Se1.045               0.26957206     -0.00077950      0.00117094     -0.00000091
AIVX     1  Mu1.0001  In1.028 Se1.045               0.25668579     -0.00124739      0.00201733     -0.00000252
AIVX     1  Mu1.0001  In1.029 Se1.045               0.21689456     -0.00054361      0.00104023     -0.00000057
AIVX     1  Mu1.0001  In1.024 Se1.046               0.28681359     -0.00000077     -0.00001852      0.00000000
AIVX     1  Mu1.0001  In1.025 Se1.046               0.28530781      0.00019109     -0.00079791     -0.00000015
AIVX     1  Mu1.0001  In1.026 Se1.046               0.27815897      0.00096061     -0.00099413     -0.00000095
AIVX     1  Mu1.0001  In1.027 Se1.046               0.28130330     -0.00340278      0.00561988     -0.00001912
AIVX     1  Mu1.0001  In1.028 Se1.046               0.26841704      0.00038109     -0.00080268     -0.00000031
AIVX     1  Mu1.0001  In1.029 Se1.046               0.22862581     -0.00030593      0.00041546     -0.00000013
AIVX     1  Mu1.0001  In1.024 Se1.047               0.29635799     -0.00079028      0.00129539     -0.00000102
AIVX     1  Mu1.0001  In1.025 Se1.047               0.29485221     -0.00115154      0.00187213     -0.00000216
AIVX     1  Mu1.0001  In1.026 Se1.047               0.28770337      0.00080218     -0.00103727     -0.00000083
AIVX     1  Mu1.0001  In1.027 Se1.047               0.29084770      0.00126482     -0.00195175     -0.00000247
AIVX     1  Mu1.0001  In1.028 Se1.047               0.27796143     -0.00146858      0.00216349     -0.00000318
AIVX     1  Mu1.0001  In1.029 Se1.047               0.23817020     -0.00089470      0.00151992     -0.00000136
AIVX     1  Mu1.0001  In1.028 Se1.048               0.29832449     -0.00429614      0.00672629     -0.00002890
AIVX     1  Mu1.0001  In1.029 Se1.048               0.25853326     -0.00030667      0.00051797     -0.00000016
AIVX     1  Mu1.0001  In1.029 Se1.049               0.26875926     -0.00118789      0.00207822     -0.00000247
AIVX     1  Mu1.0001  In1.029 Se1.050               0.28295227      0.00023546     -0.00034712     -0.00000008
AIVX     1  Mu1.0001  In1.029 Se1.051               0.29270989     -0.00000008     -0.00000435      0.00000000
--
 
   (Skipping property calculation,
    use PROP keyword to activate)
--
 
  Total CASPT2 energies:
::    CASPT2 Root  1     Total energy:   -455.37063760
::    CASPT2 Root  2     Total energy:   -455.16275721
::    CASPT2 Root  3     Total energy:   -455.17401371
::    CASPT2 Root  4     Total energy:   -455.12505636
::    CASPT2 Root  5     Total energy:   -455.11397906
::    CASPT2 Root  6     Total energy:   -455.08363871
::    CASPT2 Root  7     Total energy:   -455.10909930
 
++ Multi-State CASPT2 section:
********************************************************************************
  MULTI-STATE CASPT2 SECTION
--------------------------------------------------------------------------------
 
  Output diagonal energies have been shifted. Add   -455.000000000000     
 
  Effective Hamiltonian matrix (Symmetric):
 
                1               2               3               4               5
   1        -0.37063760
   2        -0.00069238     -0.16275721
   3         0.00104822      0.00058799     -0.17401371
   4         0.00944767      0.00070147     -0.00169327     -0.12505636
   5         0.01468230      0.00437412     -0.00459609      0.00335193     -0.11397906
   6         0.01108925      0.00046082      0.00303654     -0.00252136     -0.00506258
   7         0.02262786      0.00291702      0.00243051     -0.00466529     -0.02088619
 
                6               7
   6        -0.08363871
   7        -0.01431407     -0.10909930
 
       Total MS-CASPT2 energies:
::    MS-CASPT2 Root  1     Total energy:   -455.37456590
::    MS-CASPT2 Root  2     Total energy:   -455.17455071
::    MS-CASPT2 Root  3     Total energy:   -455.16353699
::    MS-CASPT2 Root  4     Total energy:   -455.13186363
::    MS-CASPT2 Root  5     Total energy:   -455.12573990
::    MS-CASPT2 Root  6     Total energy:   -455.09232751
::    MS-CASPT2 Root  7     Total energy:   -455.07659731
 
       Eigenvectors:
           -0.99189035      0.00766254     -0.02439781      0.11559220      0.04079535
           -0.00607543     -0.06938463      0.98438922      0.16041917      0.00892170
            0.00520877      0.99421331      0.07412310     -0.01578144     -0.01103301
            0.03892684      0.02539937     -0.01263779      0.01617781      0.98212467
            0.06385444      0.06749048     -0.11727365      0.68980150     -0.14364247
            0.04376932     -0.03251460     -0.03087343      0.24008145      0.06355921
            0.09263393     -0.02024002     -0.10011182      0.65339739      0.09430069
 
            0.02141481      0.00389212
           -0.01728153     -0.00376313
            0.07474207      0.00783373
           -0.18086913      0.01164623
           -0.67719792      0.15019407
            0.42937850      0.86604221
            0.56389700     -0.47664067
 
--
 
  THE ORIGINAL CI ARRAYS ARE NOW MIXED AS LINEAR
  COMBINATIONS, GIVEN BY THE EIGENVECTORS.
  A NEW JOBIPH FILE NAMED 'JOBMIX' IS PREPARED.
********************************************************************************
 
++ Mixed CI coefficients:
  The CI coefficients for the MIXED state nr.   1
--------------------------------------------------------------------------------
 CI COEFFICIENTS LARGER THAN  0.50D-01
  Occupation of active orbitals, and spin coupling
  of open shells. (u,d: Spin up or down).
  SGUGA info is (Midvert:IsyUp:UpperWalk/LowerWalk)
        Conf  SGUGA info        Occupation    Coefficient         Weight
           1  ( 1:1:   1/   1)   22222200        0.968488       0.937970
           6  ( 1:1:   6/   1)   22220220       -0.093820       0.008802
          15  ( 1:1:  15/   1)   22222002       -0.096803       0.009371
          64  ( 2:1:   4/   3)   2u22220d       -0.082970       0.006884
          81  ( 2:1:   1/   4)   u22222d0       -0.097366       0.009480
          83  ( 2:1:   3/   4)   u222d220        0.054651       0.002987
         175  ( 3:1:   5/   8)   20222202       -0.083311       0.006941
         191  ( 3:1:   1/  10)   02222220       -0.076867       0.005909
 
  The CI coefficients for the MIXED state nr.   2
--------------------------------------------------------------------------------
 CI COEFFICIENTS LARGER THAN  0.50D-01
  Occupation of active orbitals, and spin coupling
  of open shells. (u,d: Spin up or down).
  SGUGA info is (Midvert:IsyUp:UpperWalk/LowerWalk)
        Conf  SGUGA info        Occupation    Coefficient         Weight
           2  ( 1:1:   2/   1)   22222ud0        0.465704       0.216880
          41  ( 2:1:   1/   2)   22u222d0       -0.823731       0.678533
          43  ( 2:1:   3/   2)   22u2d220        0.169207       0.028631
          45  ( 2:1:   5/   2)   22u22dud        0.059581       0.003550
          47  ( 2:1:   7/   2)   22u22udd       -0.103725       0.010759
          55  ( 2:1:  15/   2)   22u220d2       -0.077851       0.006061
          67  ( 2:1:   7/   3)   2u222udd       -0.053724       0.002886
         161  ( 3:1:   1/   7)   u2d22220       -0.130965       0.017152
         219  ( 4:1:   1/   4)   2uu222dd        0.050312       0.002531
         294  ( 5:1:   2/  15)   20u222d2        0.079096       0.006256
 
  The CI coefficients for the MIXED state nr.   3
--------------------------------------------------------------------------------
 CI COEFFICIENTS LARGER THAN  0.50D-01
  Occupation of active orbitals, and spin coupling
  of open shells. (u,d: Spin up or down).
  SGUGA info is (Midvert:IsyUp:UpperWalk/LowerWalk)
        Conf  SGUGA info        Occupation    Coefficient         Weight
           7  ( 1:1:   7/   1)   22222u0d       -0.216086       0.046693
          21  ( 2:1:   1/   1)   222u22d0        0.085820       0.007365
          24  ( 2:1:   4/   1)   222u220d        0.930008       0.864915
          32  ( 2:1:  12/   1)   222u022d       -0.081437       0.006632
          33  ( 2:1:  13/   1)   222u2d02        0.087247       0.007612
          73  ( 2:1:  13/   3)   2u222d02       -0.051884       0.002692
         115  ( 3:1:   5/   2)   22ud2202        0.091887       0.008443
         125  ( 3:1:   5/   3)   2u2d2202        0.174828       0.030565
         213  ( 4:1:   1/   3)   u22u22dd        0.063947       0.004089
         269  ( 5:1:   1/   9)   022u222d        0.076339       0.005828
 
  The CI coefficients for the MIXED state nr.   4
--------------------------------------------------------------------------------
 CI COEFFICIENTS LARGER THAN  0.50D-01
  Occupation of active orbitals, and spin coupling
  of open shells. (u,d: Spin up or down).
  SGUGA info is (Midvert:IsyUp:UpperWalk/LowerWalk)
        Conf  SGUGA info        Occupation    Coefficient         Weight
           2  ( 1:1:   2/   1)   22222ud0        0.093597       0.008760
           7  ( 1:1:   7/   1)   22222u0d        0.881656       0.777317
          14  ( 1:1:  14/   1)   22220u2d        0.079517       0.006323
          15  ( 1:1:  15/   1)   22222002       -0.180466       0.032568
          24  ( 2:1:   4/   1)   222u220d        0.227568       0.051787
          41  ( 2:1:   1/   2)   22u222d0        0.074578       0.005562
          44  ( 2:1:   4/   2)   22u2220d        0.064623       0.004176
          73  ( 2:1:  13/   3)   2u222d02        0.223037       0.049745
          81  ( 2:1:   1/   4)   u22222d0       -0.087230       0.007609
          87  ( 2:1:   7/   4)   u2222udd        0.071279       0.005081
          90  ( 2:1:  10/   4)   u222du2d       -0.054136       0.002931
         155  ( 3:1:   5/   6)   2ud22202        0.059517       0.003542
         175  ( 3:1:   5/   8)   20222202        0.104742       0.010971
         193  ( 3:1:   3/  10)   02222u2d        0.071841       0.005161
 
  The CI coefficients for the MIXED state nr.   5
--------------------------------------------------------------------------------
 CI COEFFICIENTS LARGER THAN  0.50D-01
  Occupation of active orbitals, and spin coupling
  of open shells. (u,d: Spin up or down).
  SGUGA info is (Midvert:IsyUp:UpperWalk/LowerWalk)
        Conf  SGUGA info        Occupation    Coefficient         Weight
           2  ( 1:1:   2/   1)   22222ud0        0.155683       0.024237
           3  ( 1:1:   3/   1)   2222u2d0       -0.915838       0.838760
           6  ( 1:1:   6/   1)   22220220       -0.060560       0.003668
          10  ( 1:1:  10/   1)   2222udud        0.060007       0.003601
          12  ( 1:1:  12/   1)   2222uudd       -0.123030       0.015136
          18  ( 1:1:  18/   1)   2222u0d2       -0.075251       0.005663
          41  ( 2:1:   1/   2)   22u222d0        0.105707       0.011174
          68  ( 2:1:   8/   3)   2u22u2dd        0.068179       0.004648
          77  ( 2:1:  17/   3)   2u22udd2        0.055853       0.003120
          81  ( 2:1:   1/   4)   u22222d0       -0.088060       0.007755
          83  ( 2:1:   3/   4)   u222d220       -0.214929       0.046195
         177  ( 3:1:   7/   8)   2022u2d2        0.089673       0.008041
         191  ( 3:1:   1/  10)   02222220        0.078355       0.006140
 
  The CI coefficients for the MIXED state nr.   6
--------------------------------------------------------------------------------
 CI COEFFICIENTS LARGER THAN  0.50D-01
  Occupation of active orbitals, and spin coupling
  of open shells. (u,d: Spin up or down).
  SGUGA info is (Midvert:IsyUp:UpperWalk/LowerWalk)
        Conf  SGUGA info        Occupation    Coefficient         Weight
           2  ( 1:1:   2/   1)   22222ud0       -0.770195       0.593201
           3  ( 1:1:   3/   1)   2222u2d0       -0.185845       0.034538
           5  ( 1:1:   5/   1)   2222ud20       -0.079993       0.006399
           7  ( 1:1:   7/   1)   22222u0d        0.132905       0.017664
          21  ( 2:1:   1/   1)   222u22d0        0.230637       0.053193
          25  ( 2:1:   5/   1)   222u2dud        0.067306       0.004530
          27  ( 2:1:   7/   1)   222u2udd       -0.089965       0.008094
          41  ( 2:1:   1/   2)   22u222d0       -0.423672       0.179498
          43  ( 2:1:   3/   2)   22u2d220        0.057337       0.003288
          45  ( 2:1:   5/   2)   22u22dud        0.057947       0.003358
          65  ( 2:1:   5/   3)   2u222dud       -0.151745       0.023026
          67  ( 2:1:   7/   3)   2u222udd        0.184830       0.034162
         176  ( 3:1:   6/   8)   20222ud2        0.110631       0.012239
 
  The CI coefficients for the MIXED state nr.   7
--------------------------------------------------------------------------------
 CI COEFFICIENTS LARGER THAN  0.50D-01
  Occupation of active orbitals, and spin coupling
  of open shells. (u,d: Spin up or down).
  SGUGA info is (Midvert:IsyUp:UpperWalk/LowerWalk)
        Conf  SGUGA info        Occupation    Coefficient         Weight
           2  ( 1:1:   2/   1)   22222ud0       -0.235371       0.055399
          21  ( 2:1:   1/   1)   222u22d0       -0.851733       0.725449
          24  ( 2:1:   4/   1)   222u220d        0.068482       0.004690
          25  ( 2:1:   5/   1)   222u2dud       -0.230823       0.053279
          27  ( 2:1:   7/   1)   222u2udd        0.301508       0.090907
          41  ( 2:1:   1/   2)   22u222d0       -0.094640       0.008957
          65  ( 2:1:   5/   3)   2u222dud       -0.051085       0.002610
          67  ( 2:1:   7/   3)   2u222udd        0.062734       0.003936
         112  ( 3:1:   2/   2)   22ud22ud        0.101506       0.010303
         201  ( 4:1:   1/   1)   22uu22dd        0.104090       0.010835
         210  ( 4:1:   4/   2)   2u2u2dd2       -0.069385       0.004814
         262  ( 5:1:   2/   7)   202u22d2        0.074716       0.005582
 
--
 
--- Stop Module: caspt2 at Tue Jun 10 20:08:58 2025 /rc=_RC_ALL_IS_WELL_ ---
*** files: xmldump
    saved to directory /home/pcaah4/diamide_project
--- Module caspt2 spent 6 minutes 57 seconds ---

.##################.
.# Happy landing! #.
.##################.

    Timing: Wall=704.80 User=614.18 System=80.47
******************************************************
*** WorkDir at /srv/COMMUNAL_SCRATCH/12442 cleaned ***
******************************************************
