   This run of MOLCAS is using the pymolcas driver

                             OPE
                             OPE          NMOL  CASOP  ENMOLC A   SO
                 OPE        NMOLC        AS  OP EN  MO LC     AS  OP
                OPENM       OL CA        SO  PE NM  OL CA     SOP EN
                OP EN      MO   LC       AS  OP ENMOL  CASO   PENMOL
                OP  EN     MO   LC       AS  OP EN     MO     LC ASO
               OP   E  NMOL  C  AS       OP  EN MO     LC     AS  OP
               OP  E   NMO   LC AS        OPEN  MO     LCASOP EN   M
               O  PEN   MO  LCA  SO
            OPE   NMO   L   CAS    OP
        OPENMOL  CASOP     ENMOL   CASOPE
     OPENMOLCA   SOPENMOLCASOPEN   MOLCASOPE
    OPENMOLCAS   OP           EN   MOL    CAS
    OPENMOLCAS       OP  ENM        O     LCA
    OPENMOLCAS    OPEN  MOLCASO     P  E  NMO
    OPENMOLCAS     OP               E  N  MOL
    OPENMOLCA   SO           PENM   O  L  CAS    OPEN    MO    LCAS
    OPENMOLCA   SOP           ENM   O  L  CAS   OP  EN  MOLC  AS   O
    OPENMOLCA   SOPE           NM      O  LCA   S      OP  EN MO
    OPENMOLC                AS         O  PEN   M      OL  CA  SOPE
    OPENMO        LCASOPE  NMOL        C  ASO   P      ENMOLC     AS
    OPE     NMO      LCA  SO     P     E   NM   OL  CA SO  PE N   MO
          OPENMOLCA            SOPE   NMO        LCAS  O    P  ENMO
     OPENMOLCASOPENMOLCASOPENMOLCASOPENMOLCA
        OPENMOLCASOPENMOLCASOPENMOLCASOPE
            OPENMOLCASOPENMOLCASOPENM
               OPENMOLCASOPENMOLCA        version: v23.06
                   OPENMOLCASO
                       OPE                tag:

 OpenMolcas is free software; you can redistribute it and/or modify it
 under the terms of the GNU Lesser General Public License version 2.1.
 OpenMolcas is distributed in the hope that it will be useful, but it
 is provided "as is" and without any express or implied warranties.
 For more details see the full text of the license in the file
 LICENSE or in <http://www.gnu.org/licenses/>.

                 Copyright (C) The OpenMolcas Authors
           For the author list and the recommended citation,
                   consult the file CONTRIBUTORS.md

           *************************************************
           * pymolcas version py2.24                       *
           *   build 4567b286dd94b1984b333a4ddf893180      *
           *   (after the EMIL interpreter by V. Veryazov) *
           *************************************************

configuration info
------------------
Host name: loginchem01.nottingham.ac.uk (Linux)
C Compiler ID: Intel
C flags: -std=gnu99 -gcc-sys -qopenmp
Fortran Compiler ID: Intel
Fortran flags: -fpp -i8 -heap-arrays -qopenmp
Definitions: _MOLCAS_;_I8_;_LINUX_
Parallel: OFF (GA=OFF)


   ----------------------------------------------------------------------------------------------------
  |
  |              Project: orca_geometry_optimisation_315_175_BP86_def2-SVP_def2J_scf_cas1_ras12i11_cas8
  |       Submitted from: /home/pcaah4/diamide_project
  |         Scratch area: /srv/COMMUNAL_SCRATCH/12471
  |      Save outputs to: /home/pcaah4/diamide_project
  |               Molcas: /software/chemistry/openmolcas/openmolcas-23.06-openmp
  |
  | Scratch area is empty
  |
  |       MOLCAS_DRIVER = /software/chemistry/openmolcas/openmolcas-23.06-openmp/sbin/pymolcas
  | MOLCAS_KEEP_WORKDIR = NO
  |       MOLCAS_NPROCS = 1
  |       MOLCAS_SOURCE = /software/chemistry/openmolcas/openmolcas-23.06-openmp
  |    MOLCAS_STRUCTURE = 0
  |
   ----------------------------------------------------------------------------------------------------

++ ---------   Input file   ---------

&SEWARD
TITLE
orca_geometry_optimisation_315_175_BP86_def2-SVP_def2J_scf_cas1_ras12i11
MULTIPOLES
2
SDIPOLE
ANGMOM
0 0 0
BASIS SET
C.ANO-S...4S3P1D.
C1           -0.000208   -0.043621    0.328508 /Angstrom
C3            2.027891    1.311473    0.148571 /Angstrom
C4            1.389377    2.170566   -0.975332 /Angstrom
C6            1.474386    4.395191   -2.058587 /Angstrom
C19          -0.588713   -1.367582   -0.138431 /Angstrom
END OF BASIS
BASIS SET
N.ANO-S...4S3P1D.
N2            1.396910    0.017334    0.317224 /Angstrom
N5            1.915414    3.436108   -1.061851 /Angstrom
END OF BASIS
BASIS SET
O.ANO-S...4S3P1D.
O7           -0.677852    0.890940    0.737888 /Angstrom
O8            0.596023    1.708121   -1.789500 /Angstrom
END OF BASIS
BASIS SET
H.ANO-S...2S1P.
H9           -0.725324   -1.320294   -1.239164 /Angstrom
H10          -1.581006   -1.504888    0.328059 /Angstrom
H11           0.059130   -2.236648    0.095660 /Angstrom
H12           1.837447   -0.728466   -0.228419 /Angstrom
H13           1.980988    1.885965    1.100714 /Angstrom
H14           3.102351    1.158633   -0.080801 /Angstrom
H15           2.510475    3.765741   -0.299641 /Angstrom
H16           0.819564    3.851830   -2.765762 /Angstrom
H17           0.892992    5.229462   -1.609383 /Angstrom
H18           2.334183    4.823402   -2.615954 /Angstrom
END OF BASIS
END OF INPUT

&RASSCF
TITLE
orca_geometry_optimisation_315_175_BP86_def2-SVP_def2J_scf_cas1_ras12i11
LUMORB
SPIN
1
SYMMETRY
1
NACTEL
12  0  0
INACTIVE
29
DELETED  ! delete Rydberg orbitals from an initial CAS(12,11) if done
3
FROZEN
0
RAS2
8
ITERATIONS
64 25
CIROOT
7 7
1 2 3 4 5 6 7
1 1 1 1 1 1 1
LEVSHFT
0.3
CIMX
20
FILEorb = /home/pcaah4/diamide_project/cas/ras12i11/ras_orb/orca_geometry_optimisation_315_175_BP86_def2-SVP_def2J_scf_cas1_ras12i11.RasOrb
ALTEr
1
 1 37 38
END OF INPUT

&RASSI
NROF JOBIPH
    1 7
    1 2 3 5 4 6 7
TOFILE
TRDI
TDMN
1.0D-6
END OF INPUT

&CASPT2
TITLE
orca_geometry_optimisation_315_175_BP86_def2-SVP_def2J_scf_cas1_ras12i11
MULTISTATE
7 1 2 3 4 5 6 7
SHIFT
0.35
MAXITER
50
END OF INPUT

-- ----------------------------------

--- Start Module: seward at Tue Jun 10 21:15:19 2025 ---
 
()()()()()()()()()()()()()()()()()()()()()()()()()()()()()()()()()()()()()()()()()()()()()()()()()()

                                              &SEWARD

                                   only a single process is used
                       available to each process: 2.0 GB of memory, 1 thread
                                            pid: 3140279
()()()()()()()()()()()()()()()()()()()()()()()()()()()()()()()()()()()()()()()()()()()()()()()()()()
 
               SEWARD will generate:
                  Multipole Moment integrals up to order  2
                  Kinetic Energy integrals
                  Nuclear Attraction integrals (point charge)
                  One-Electron Hamiltonian integrals
                  Velocity integrals
                  Orbital angular momentum around ( 0.0000  0.0000  0.0000 )
                  Velocity quadrupole around ( 1.5694  2.6523 -0.9728 )
                  Two-Electron Repulsion integrals
 
 Title:
            orca_geometry_optimisation_315_175_BP86_def2-SVP_def2J_scf_cas1_ras12i11    
 
 
                   Integrals are discarded if absolute value <: 0.10E-13
                   Integral cutoff threshold is set to       <: 0.10E-15
 
++    Symmetry information:
      ---------------------
 
                    Character Table for C1 
 
                             E  
                    a        1  x, y, xy, Rz, z, xz, Ry, yz, Rx, I
--
 
 
++    Basis set information:
      ----------------------
 
 
      Basis set label: C.ANO-S...4S3P1D......
 
      Electronic valence basis set:
      ------------------
      Associated Effective Charge   6.000000 au
      Associated Actual Charge      6.000000 au
      Nuclear Model: Point charge
 
      Shell  nPrim  nBasis  Cartesian Spherical Contaminant
         s      10       4        X                  
         p       6       3        X                  
         d       3       1                 X         
 
 
      Basis set label: N.ANO-S...4S3P1D......
 
      Electronic valence basis set:
      ------------------
      Associated Effective Charge   7.000000 au
      Associated Actual Charge      7.000000 au
      Nuclear Model: Point charge
 
      Shell  nPrim  nBasis  Cartesian Spherical Contaminant
         s      10       4        X                  
         p       6       3        X                  
         d       3       1                 X         
 
 
      Basis set label: O.ANO-S...4S3P1D......
 
      Electronic valence basis set:
      ------------------
      Associated Effective Charge   8.000000 au
      Associated Actual Charge      8.000000 au
      Nuclear Model: Point charge
 
      Shell  nPrim  nBasis  Cartesian Spherical Contaminant
         s      10       4        X                  
         p       6       3        X                  
         d       3       1                 X         
 
 
      Basis set label: H.ANO-S...2S1P......
 
      Electronic valence basis set:
      ------------------
      Associated Effective Charge   1.000000 au
      Associated Actual Charge      1.000000 au
      Nuclear Model: Point charge
 
      Shell  nPrim  nBasis  Cartesian Spherical Contaminant
         s       7       2        X                  
         p       3       1        X                  
--
 
 
++    Molecular structure info:
      -------------------------
 
                    ************************************************ 
                    **** Cartesian Coordinates / Bohr, Angstrom **** 
                    ************************************************ 
 
     Center  Label                x              y              z                     x              y              z
        1      C1              -0.000393      -0.082432       0.620790             -0.000208      -0.043621       0.328508
        2      C3               3.832159       2.478325       0.280759              2.027891       1.311473       0.148571
        3      C4               2.625542       4.101775      -1.843110              1.389377       2.170566      -0.975332
        4      C6               2.786186       8.305707      -3.890166              1.474386       4.395191      -2.058587
        5      C19             -1.112506      -2.584355      -0.261597             -0.588713      -1.367582      -0.138431
        6      N2               2.639777       0.032757       0.599466              1.396910       0.017334       0.317224
        7      N5               3.619608       6.493303      -2.006608              1.915414       3.436108      -1.061851
        8      O7              -1.280955       1.683633       1.394406             -0.677852       0.890940       0.737888
        9      O8               1.126320       3.227881      -3.381665              0.596023       1.708121      -1.789500
       10      H9              -1.370664      -2.494994      -2.341681             -0.725324      -1.320294      -1.239164
       11      H10             -2.987668      -2.843826       0.619942             -1.581006      -1.504888       0.328059
       12      H11              0.111740      -4.226652       0.180771              0.059130      -2.236648       0.095660
       13      H12              3.472272      -1.376601      -0.431649              1.837447      -0.728466      -0.228419
       14      H13              3.743525       3.563957       2.080048              1.980988       1.885965       1.100714
       15      H14              5.862594       2.189499      -0.152692              3.102351       1.158633      -0.080801
       16      H15              4.744110       7.116219      -0.566239              2.510475       3.765741      -0.299641
       17      H16              1.548752       7.278904      -5.226533              0.819564       3.851830      -2.765762
       18      H17              1.687510       9.882251      -3.041293              0.892992       5.229462      -1.609383
       19      H18              4.410967       9.114909      -4.943437              2.334183       4.823402      -2.615954
 
                    ************************************************* 
                    **** InterNuclear Distances / Bohr, Angstrom **** 
                    ************************************************* 
 
     Atom centers         Bohr        Angstrom
   16 H15       7 N5      1.930593        1.021626
   13 H12       6 N2      1.934563        1.023727
   11 H10       5 C19     2.088221        1.105039
   17 H16       4 C6      2.090800        1.106404
   12 H11       5 C19     2.095616        1.108952
   15 H14       2 C3      2.096179        1.109250
   10 H9        5 C19     2.097947        1.110186
   19 H18       4 C6      2.098595        1.110528
   18 H17       4 C6      2.100753        1.111671
   14 H13       2 C3      2.103306        1.113022
    8 O7        1 C1      2.314585        1.224826
    9 O8        3 C4      2.319161        1.227247
    7 N5        3 C4      2.595054        1.373243
    6 N2        1 C1      2.642768        1.398493
    6 N2        2 C3      2.739371        1.449613
    7 N5        4 C6      2.743573        1.451836
    5 C19       1 C1      2.876634        1.522249
    3 C4        2 C3      2.932974        1.552063
   15 H14      14 H13     3.371159        1.783941
   11 H10      10 H9      3.392285        1.795120
   12 H11      10 H9      3.399841        1.799119
   18 H17      17 H16     3.401756        1.800132
   19 H18      18 H17     3.409425        1.804190
   19 H18      17 H16     3.412233        1.805676
   12 H11      11 H10     3.422193        1.810947
   13 H12       1 C1      3.852519        2.038665
   16 H15       3 C4      3.899436        2.063493
   17 H16       7 N5      3.908137        2.068097
   13 H12       2 C3      3.936686        2.083205
   15 H14       6 N2      3.950168        2.090339
   14 H13       6 N2      3.984942        2.108740
   19 H18       7 N5      4.015474        2.124897
   18 H17       7 N5      4.035907        2.135710
   16 H15       4 C6      4.036934        2.136253
   10 H9        1 C1      4.058858        2.147855
   11 H10       1 C1      4.068060        2.152725
   14 H13       3 C4      4.114645        2.177376
   15 H14       3 C4      4.122235        2.181393
   12 H11       1 C1      4.169023        2.206152
   15 H14      13 H12     4.302154        2.276602
    8 O7        6 N2      4.327755        2.290149
    9 O8        7 N5      4.332464        2.292641
   13 H12      12 H11     4.448711        2.354156
   17 H16       9 O8      4.471328        2.366125
   16 H15      14 H13     4.541208        2.403104
    8 O7        5 C19     4.581096        2.424212
    9 O8        2 C3      4.614839        2.442068
    2 C3        1 C1      4.621855        2.445781
    7 N5        2 C3      4.625719        2.447825
    6 N2        5 C19     4.655141        2.463395
    4 C6        3 C4      4.678599        2.475808
   13 H12       5 C19     4.744236        2.510542
    6 N2        3 C4      4.745872        2.511407
   17 H16       3 C4      4.764574        2.521304
   16 H15       2 C3      4.801992        2.541105
   18 H17      16 H15     4.808287        2.544436
   19 H18      16 H15     4.823443        2.552456
   11 H10       8 O7      4.900056        2.592998
   12 H11       6 N2      4.970799        2.630434
   14 H13       7 N5      5.029630        2.661565
   16 H15      15 H14     5.068984        2.682391
   15 H14       7 N5      5.195259        2.749213
    8 O7        2 C3      5.292983        2.800926
    9 O8        1 C1      5.314819        2.812481
    9 O8        6 N2      5.324357        2.817528
   13 H12      10 H9      5.324758        2.817740
    9 O8        4 C6      5.366381        2.839767
   14 H13       8 O7      5.408430        2.862018
   14 H13       1 C1      5.426095        2.871366
    3 C4        1 C1      5.520320        2.921227
   14 H13      13 H12     5.548993        2.936401
    9 O8        8 O7      5.566914        2.945884
   10 H9        6 N2      5.578845        2.952197
   10 H9        8 O7      5.606007        2.966571
    8 O7        3 C4      5.620467        2.974223
   17 H16      16 H15     5.652886        2.991378
--
 
 
            Nuclear Potential Energy            463.93384592 au
 
 
      Basis set specifications :
      Symmetry species         a  
      Basis functions          212
 
 
      Input file to MOLDEN was generated!
 
--- Stop Module: seward at Tue Jun 10 21:17:10 2025 /rc=_RC_ALL_IS_WELL_ ---
*** files: orca_geometry_optimisation_315_175_BP86_def2-SVP_def2J_scf_cas1_ras12i11_cas8.GssOrb
           orca_geometry_optimisation_315_175_BP86_def2-SVP_def2J_scf_cas1_ras12i11_cas8.guessorb.molden xmldump
    saved to directory /home/pcaah4/diamide_project
--- Module seward spent 1 minute 50 seconds ---

*** symbolic link created: INPORB -> orca_geometry_optimisation_315_175_BP86_def2-SVP_def2J_scf_cas1_ras12i11_cas8.GssOrb
--- Start Module: rasscf at Tue Jun 10 21:17:10 2025 ---
 
()()()()()()()()()()()()()()()()()()()()()()()()()()()()()()()()()()()()()()()()()()()()()()()()()()

                                              &RASSCF

                                   only a single process is used
                       available to each process: 2.0 GB of memory, 1 thread
                                            pid: 3140309
()()()()()()()()()()()()()()()()()()()()()()()()()()()()()()()()()()()()()()()()()()()()()()()()()()
 
 
      Header of the ONEINT file:
      --------------------------
      orca_geometry_optimisation_315_175_BP86_def2-SVP_def2J_scf_cas1_ras12i11
      Integrals generated by Gateway/Seward, Tue Jun 10 21:15:20 2025
 
 
      OrdInt status: non-squared
 
 
      Cartesian coordinates in Angstrom:
      -----------------------------------------------------
      No.  Label        X            Y            Z        
      -----------------------------------------------------
       1   C1        -0.00020800  -0.04362100   0.32850800
       2   C3         2.02789100   1.31147300   0.14857100
       3   C4         1.38937700   2.17056600  -0.97533200
       4   C6         1.47438600   4.39519100  -2.05858700
       5   C19       -0.58871300  -1.36758200  -0.13843100
       6   N2         1.39691000   0.01733400   0.31722400
       7   N5         1.91541400   3.43610800  -1.06185100
       8   O7        -0.67785200   0.89094000   0.73788800
       9   O8         0.59602300   1.70812100  -1.78950000
      10   H9        -0.72532400  -1.32029400  -1.23916400
      11   H10       -1.58100600  -1.50488800   0.32805900
      12   H11        0.05913000  -2.23664800   0.09566000
      13   H12        1.83744700  -0.72846600  -0.22841900
      14   H13        1.98098800   1.88596500   1.10071400
      15   H14        3.10235100   1.15863300  -0.08080100
      16   H15        2.51047500   3.76574100  -0.29964100
      17   H16        0.81956400   3.85183000  -2.76576200
      18   H17        0.89299200   5.22946200  -1.60938300
      19   H18        2.33418300   4.82340200  -2.61595400
      -----------------------------------------------------
      Nuclear repulsion energy =  463.93384592
 
++    Wave function specifications:
      -----------------------------
 
      Number of closed shell electrons          58
      Number of electrons in active shells      12
      Max number of holes in RAS1 space          0
      Max nr of electrons in RAS3 space          0
      Number of inactive orbitals               29
      Number of active orbitals                  8
      Number of secondary orbitals             172
      Spin quantum number                      0.0
      State symmetry                             1
--
 
++    Orbital specifications:
      -----------------------
 
      Symmetry species                           1
                                                 a
      Frozen orbitals                            0
      Inactive orbitals                         29
      Active orbitals                            8
      RAS1 orbitals                              0
      RAS2 orbitals                              8
      RAS3 orbitals                              0
      Secondary orbitals                       172
      Deleted orbitals                           3
      Number of basis functions                212
--
 
++    CI expansion specifications:
      ----------------------------
 
      Number of CSFs                           336
      Number of determinants                   406
      Number of root(s) required                 7
      Root chosen for geometry opt.              7
      CI roots used                              1     2     3     4     5     6     7
      weights                                0.143 0.143 0.143 0.143 0.143 0.143 0.143
      highest root included in the CI            7
      max. size of the explicit Hamiltonian    200
--
 
++    Optimization specifications:
      ----------------------------
 
      RASSCF algorithm: Conventional
      Maximum number of macro iterations        64
      Maximum number of SX iterations           25
      Threshold for RASSCF energy            0.100E-07
      Threshold for max MO rotation          0.100E+00
      Threshold for max BLB element          0.100E-03
      Level shift parameter                  0.300E+00
      Make Quasi-Newton update
--
 
      The MO-coefficients are taken from the file:
      /home/pcaah4/diamide_project/cas/ras12i11/ras_orb/orca_geometry_optimisation_315_175_BP86_def2-SVP_def2J_scf_cas1_ras12i11.RasOrb                                                                                                                               
      Title: RASSCF average (pseudo-natural) orbitals                                      
 
      Total molecular charge    0.00
 
      Molecular orbitals exchanged:
        In symmetry  1 :  37  38
 
 
      ************************************************************************************************************************
      *                                                                                                                      *
      *                                            Wave function control section                                             *
      *                                                                                                                      *
      ************************************************************************************************************************
 
 
                                         RASSCF iterations: Energy and convergence statistics
                                         ----------------------------------------------------
 
      Iter CI   SX   CI       RASSCF       Energy    max ROT     max BLB   max BLB  Level Ln srch  Step   QN   Walltime
          iter iter root      energy       change     param      element    value   shift minimum  type update hh:mm:ss
 Nr of preliminary CI iterations:   4
        1   1   19    0  -453.69592507    0.00E+00   0.49E-01   33  40 1  0.25E-01*  0.17   0.00    SX    NO    0:00:13
        2   5   11    0  -453.70387435   -0.79E-02*  0.25E-01   36  38 1  0.81E-02*  0.18   0.00    SX    NO    0:00:06
        3   1   11    0  -453.70481050   -0.94E-03* -0.12E-01   33  40 1  0.38E-02*  0.18   0.00    SX    NO    0:00:06
        4   7   11    0  -453.70551707   -0.71E-03*  0.77E-02   34  39 1 -0.30E-02*  0.19   0.00    SX    NO    0:00:06
        5   4   11    0  -453.70567632   -0.16E-03*  0.17E-01   36  38 1  0.14E-02*  0.19   1.56    QN   YES    0:00:06
        6   5   11    0  -453.70579925   -0.12E-03*  0.50E-02   34  39 1  0.24E-02*  0.19   0.75    QN   YES    0:00:06
        7   4   10    0  -453.70581736   -0.18E-04* -0.81E-03   10  83 1  0.14E-02*  0.19   0.59    SX   YES    0:00:06
        8   5    9    0  -453.70584018   -0.23E-04*  0.73E-03   34  39 1  0.55E-03*  0.19   0.77    QN   YES    0:00:06
        9   3    9    0  -453.70584236   -0.22E-05*  0.66E-03   10  83 1  0.21E-03*  0.19   0.80    QN   YES    0:00:06
       10   4    8    0  -453.70584342   -0.11E-05*  0.98E-03   34  39 1 -0.12E-03*  0.19   2.50    LS   YES    0:00:06
       11   4    9    0  -453.70584295    0.47E-06*  0.46E-03   34  39 1 -0.41E-03*  0.19   0.34    LS   YES    0:00:06
       12   4    8    0  -453.70584348   -0.53E-06* -0.27E-03   34  39 1 -0.27E-03*  0.19   1.49    QN   YES    0:00:06
       13   4    7    0  -453.70584390   -0.42E-06*  0.14E-03   34  39 1 -0.58E-04   0.19   1.21    QN   YES    0:00:06
       14   3    7    0  -453.70584394   -0.42E-07*  0.23E-03   37  41 1  0.16E-04   0.19   1.35    QN   YES    0:00:06
       15   3    6    0  -453.70584396   -0.22E-07* -0.78E-04   34  39 1  0.21E-04   0.19   1.06    QN   YES    0:00:06
       16   1    6    0  -453.70584397   -0.41E-08  -0.98E-04   34  39 1  0.92E-05   0.19   1.48    QN   YES    0:00:06
      Convergence after 16 iterations
       17   1    6    0  -453.70584397   -0.10E-08  -0.98E-04   36  39 1  0.38E-05   0.19   1.48    QN   YES    0:00:06
 
      ************************************************************************************************************************
                                                      Wave function printout:
                       occupation of active orbitals, and spin coupling of open shells (u,d: Spin up or down)
      ************************************************************************************************************************
 
      Note: transformation to natural orbitals
      has been made, which may change the order of the CSFs.
 
      printout of CI-coefficients larger than  0.05 for root  1
      energy=    -453.958302
      conf/sym  11111111     Coeff  Weight
             1  22222200   0.95388 0.90988
             2  22222ud0  -0.15108 0.02283
             3  2222u2d0  -0.07805 0.00609
             4  22222020  -0.07480 0.00559
            61  2u2222d0   0.07515 0.00565
            62  2u222d20   0.08185 0.00670
            84  u222220d  -0.10049 0.01010
           145  22022202  -0.08170 0.00667
           165  u2d22202   0.05736 0.00329
           171  20222220  -0.09891 0.00978
           195  02222202  -0.08077 0.00652
 
      printout of CI-coefficients larger than  0.05 for root  2
      energy=    -453.754782
      conf/sym  11111111     Coeff  Weight
             2  22222ud0  -0.09883 0.00977
            21  222u22d0  -0.94868 0.90000
            22  222u2d20  -0.09853 0.00971
            23  222ud220   0.09228 0.00851
           121  2u2d2220   0.18768 0.03523
           132  u22d22ud   0.05079 0.00258
           213  u22u22dd   0.09203 0.00847
           250  220u22d2   0.08271 0.00684
           258  u2du22d2  -0.05967 0.00356
           270  022u22d2   0.08103 0.00657
 
      printout of CI-coefficients larger than  0.05 for root  3
      energy=    -453.739769
      conf/sym  11111111     Coeff  Weight
             7  22222u0d   0.34132 0.11650
             8  2222u20d   0.85837 0.73679
            10  2222udud  -0.08190 0.00671
            11  222202ud  -0.06712 0.00450
            12  2222uudd  -0.10023 0.01005
            13  2222u02d  -0.07778 0.00605
            44  22u2220d   0.20070 0.04028
            54  22u2d202  -0.14987 0.02246
            68  2u22u2dd  -0.07178 0.00515
            71  2u22ud2d  -0.06227 0.00388
            94  u222d202   0.12712 0.01616
           174  2022u22d   0.08720 0.00760
 
      printout of CI-coefficients larger than  0.05 for root  4
      energy=    -453.641062
      conf/sym  11111111     Coeff  Weight
             1  22222200  -0.05665 0.00321
             2  22222ud0  -0.06858 0.00470
             3  2222u2d0  -0.05583 0.00312
             7  22222u0d  -0.40629 0.16507
            24  222u220d  -0.18412 0.03390
            27  222u2udd  -0.05695 0.00324
            44  22u2220d   0.81512 0.66443
            45  22u22dud  -0.05453 0.00297
            47  22u22udd  -0.10334 0.01068
            49  22u2202d  -0.06549 0.00429
            65  2u222dud   0.06137 0.00377
            67  2u222udd   0.08366 0.00700
            84  u222220d   0.08303 0.00689
           165  u2d22202   0.20251 0.04101
           173  20222u2d  -0.05480 0.00300
           195  02222202  -0.05246 0.00275
           219  2uu222dd  -0.05489 0.00301
           220  2uu22d2d  -0.06036 0.00364
           293  20u2222d   0.08340 0.00696
 
      printout of CI-coefficients larger than  0.05 for root  5
      energy=    -453.628844
      conf/sym  11111111     Coeff  Weight
             1  22222200  -0.07421 0.00551
             2  22222ud0  -0.49689 0.24690
             4  22222020   0.07539 0.00568
             7  22222u0d  -0.30716 0.09435
             8  2222u20d   0.19146 0.03666
            10  2222udud  -0.05757 0.00331
            21  222u22d0   0.07187 0.00517
            24  222u220d  -0.58150 0.33815
            25  222u2dud  -0.14671 0.02153
            26  222ud2ud  -0.09590 0.00920
            27  222u2udd  -0.19255 0.03707
            28  222uu2dd  -0.10947 0.01198
            44  22u2220d  -0.33191 0.11017
            62  2u222d20   0.12947 0.01676
            65  2u222dud   0.05392 0.00291
            67  2u222udd   0.06360 0.00405
            87  u2222udd   0.06594 0.00435
           165  u2d22202  -0.07511 0.00564
           261  202u222d  -0.05449 0.00297
 
      printout of CI-coefficients larger than  0.05 for root  6
      energy=    -453.612996
      conf/sym  11111111     Coeff  Weight
             1  22222200   0.05255 0.00276
             2  22222ud0   0.28262 0.07987
             7  22222u0d  -0.71682 0.51383
             8  2222u20d   0.32921 0.10838
            10  2222udud  -0.12248 0.01500
            24  222u220d   0.31922 0.10190
            25  222u2dud   0.07958 0.00633
            26  222ud2ud   0.06800 0.00462
            27  222u2udd   0.10392 0.01080
            28  222uu2dd   0.07122 0.00507
            44  22u2220d  -0.22988 0.05285
            47  22u22udd   0.05258 0.00276
            62  2u222d20  -0.07042 0.00496
            65  2u222dud   0.13144 0.01728
            67  2u222udd   0.16958 0.02876
           173  20222u2d  -0.10229 0.01046
 
      printout of CI-coefficients larger than  0.05 for root  7
      energy=    -453.605153
      conf/sym  11111111     Coeff  Weight
             1  22222200  -0.09648 0.00931
             2  22222ud0  -0.69002 0.47612
             3  2222u2d0   0.15745 0.02479
             4  22222020   0.13994 0.01958
            21  222u22d0   0.05455 0.00298
            24  222u220d   0.53737 0.28876
            25  222u2dud   0.13930 0.01941
            26  222ud2ud   0.12112 0.01467
            27  222u2udd   0.17953 0.03223
            28  222uu2dd   0.13135 0.01725
            44  22u2220d   0.06013 0.00362
            61  2u2222d0  -0.09310 0.00867
            62  2u222d20   0.17556 0.03082
            84  u222220d   0.07376 0.00544
            87  u2222udd   0.06194 0.00384
           146  22022ud2   0.06115 0.00374
           171  20222220  -0.08011 0.00642
           196  02222ud2   0.06033 0.00364
 
      Natural orbitals and occupation numbers for root  1
      sym 1:   1.964187   1.997765   1.996094   1.999544   1.999656   1.946227   0.056069   0.040458
 
      Natural orbitals and occupation numbers for root  2
      sym 1:   1.962108   1.999849   1.996240   1.005197   1.999691   1.999610   0.995446   0.041860
 
      Natural orbitals and occupation numbers for root  3
      sym 1:   1.999977   1.996460   1.999050   1.999569   1.001791   1.942451   0.059803   1.000900
 
      Natural orbitals and occupation numbers for root  4
      sym 1:   1.976739   1.979237   1.047862   1.989767   1.993984   1.925062   0.088324   0.999025
 
      Natural orbitals and occupation numbers for root  5
      sym 1:   1.981607   1.941871   1.979969   1.359703   1.955132   1.716142   0.366185   0.699390
 
      Natural orbitals and occupation numbers for root  6
      sym 1:   1.994540   1.894428   1.988948   1.943182   1.982167   1.088857   0.155045   0.952833
 
      Natural orbitals and occupation numbers for root  7
      sym 1:   1.976728   1.965039   1.993155   1.676187   1.939827   1.353876   0.729580   0.365607
 
      ************************************************************************************************************************
      *                                                                                                                      *
      *                                                    Final results                                                     *
      *                                                                                                                      *
      ************************************************************************************************************************
 
 
++    Wave function specifications:
      -----------------------------
 
      Number of closed shell electrons          58
      Number of electrons in active shells      12
      Max number of holes in RAS1 space          0
      Max nr of electrons in RAS3 space          0
      Number of inactive orbitals               29
      Number of active orbitals                  8
      Number of secondary orbitals             172
      Spin quantum number                      0.0
      State symmetry                             1
--
 
++    Orbital specifications:
      -----------------------
 
      Symmetry species                           1
                                                 a
      Frozen orbitals                            0
      Inactive orbitals                         29
      Active orbitals                            8
      RAS1 orbitals                              0
      RAS2 orbitals                              8
      RAS3 orbitals                              0
      Secondary orbitals                       172
      Deleted orbitals                           3
      Number of basis functions                212
--
 
++    CI expansion specifications:
      ----------------------------
 
      Number of CSFs                           336
      Number of determinants                   406
      Number of root(s) required                 7
      CI roots used                              1     2     3     4     5     6     7
      weights                                0.143 0.143 0.143 0.143 0.143 0.143 0.143
      highest root included in the CI            7
      Root passed to geometry opt.               7
--
 
++    Final optimization conditions:
      ------------------------------
 
      Average CI energy                            -453.70584397
      RASSCF energy for state  7                   -453.60515290
      Super-CI energy                                -0.00000000
      RASSCF energy change                            0.00000000
      Max change in MO coefficients              -0.930E-04
      Max non-diagonal density matrix element    -0.981E-04
      Maximum BLB matrix element                  0.379E-05
      (orbital pair  36,  39 in symmetry   1)
      Norm of electronic gradient            0.184E+00
--
 
 
      Final state energy(ies):
      ------------------------
 
::    RASSCF root number  1 Total energy:   -453.95830214
::    RASSCF root number  2 Total energy:   -453.75478176
::    RASSCF root number  3 Total energy:   -453.73976946
::    RASSCF root number  4 Total energy:   -453.64106210
::    RASSCF root number  5 Total energy:   -453.62884377
::    RASSCF root number  6 Total energy:   -453.61299564
::    RASSCF root number  7 Total energy:   -453.60515290
 
++    Molecular orbitals:
      -------------------
 
      Pseudonatural active orbitals and approximate occupation numbers
 
 
 
 
      Molecular orbitals for symmetry species 1: a  
 
 
      Orbital                 1         2         3         4         5         6         7         8         9        10
      Energy           -20.5841  -20.5226  -15.6271  -15.5798  -11.3276  -11.2878  -11.2824  -11.2597  -11.2464   -1.4119
      Occ. No.           2.0000    2.0000    2.0000    2.0000    2.0000    2.0000    2.0000    2.0000    2.0000    2.0000
 
     1 C1     1s         0.0003    0.0001    0.0004   -0.0000    1.0000    0.0001   -0.0000    0.0000   -0.0037    0.0411
     2 C1     2s         0.0010    0.0007    0.0021   -0.0002    0.0027   -0.0008   -0.0002    0.0000    0.0007   -0.3338
     3 C1     3s        -0.0003    0.0004    0.0011   -0.0002    0.0003   -0.0007   -0.0001   -0.0000    0.0002    0.0212
     4 C1     4s        -0.0003    0.0000    0.0002   -0.0000    0.0014   -0.0002   -0.0000   -0.0000    0.0000    0.0015
     5 C1     2px       -0.0009    0.0001    0.0020   -0.0002    0.0009   -0.0003   -0.0001   -0.0001   -0.0003    0.0580
     6 C1     3px       -0.0004    0.0001    0.0014   -0.0002    0.0010   -0.0007   -0.0002   -0.0002    0.0003   -0.0123
     7 C1     4px        0.0002   -0.0000   -0.0002    0.0000    0.0004   -0.0003   -0.0001   -0.0001    0.0003    0.0166
     8 C1     2py        0.0030    0.0001    0.0002    0.0003    0.0010    0.0000   -0.0000   -0.0002   -0.0004   -0.0756
     9 C1     3py        0.0026   -0.0000    0.0000    0.0003    0.0010   -0.0004   -0.0001   -0.0002    0.0004    0.0800
    10 C1     4py       -0.0001   -0.0001   -0.0001    0.0000    0.0007   -0.0003   -0.0001   -0.0001    0.0004   -0.0174
    11 C1     2pz        0.0008   -0.0002   -0.0004    0.0000    0.0002   -0.0001   -0.0000   -0.0001   -0.0005   -0.0516
    12 C1     3pz        0.0003   -0.0004   -0.0003    0.0000   -0.0003   -0.0002   -0.0001   -0.0001   -0.0003    0.0156
    13 C1     4pz       -0.0002   -0.0001    0.0000   -0.0000    0.0001   -0.0001   -0.0000   -0.0000    0.0000   -0.0117
    14 C1     3d2-       0.0002   -0.0001    0.0001   -0.0000   -0.0003    0.0000   -0.0000   -0.0000    0.0000    0.0298
    15 C1     3d1-      -0.0000    0.0000    0.0000   -0.0000    0.0003   -0.0000   -0.0000    0.0000   -0.0000   -0.0216
    16 C1     3d0       -0.0001   -0.0000    0.0001   -0.0000   -0.0003   -0.0001   -0.0000   -0.0000    0.0000    0.0187
    17 C1     3d1+       0.0001    0.0000   -0.0001   -0.0000   -0.0002   -0.0000   -0.0000   -0.0000    0.0000    0.0142
    18 C1     3d2+       0.0001    0.0000   -0.0001   -0.0000   -0.0000    0.0000    0.0000    0.0000   -0.0000    0.0060
    19 C3     1s         0.0001   -0.0001    0.0006    0.0000   -0.0002    0.9984   -0.0504    0.0001   -0.0000    0.0092
    20 C3     2s         0.0005   -0.0010    0.0033    0.0003    0.0006   -0.0005    0.0007    0.0008   -0.0001   -0.0296
    21 C3     3s         0.0002   -0.0007    0.0018    0.0002    0.0003   -0.0020    0.0003    0.0004   -0.0001    0.0142
    22 C3     4s         0.0000   -0.0002    0.0003    0.0000   -0.0000    0.0008    0.0000    0.0000   -0.0001    0.0014
    23 C3     2px        0.0002   -0.0002   -0.0009    0.0000    0.0002    0.0001   -0.0001    0.0000    0.0002    0.0232
    24 C3     3px        0.0002   -0.0002   -0.0004    0.0001    0.0004   -0.0001    0.0000    0.0001    0.0002    0.0046
    25 C3     4px        0.0000   -0.0000    0.0003    0.0001    0.0002   -0.0005   -0.0000    0.0001    0.0000    0.0017
    26 C3     2py       -0.0004    0.0009   -0.0009   -0.0007    0.0002   -0.0012   -0.0003    0.0006   -0.0003    0.0119
    27 C3     3py       -0.0004    0.0007   -0.0004   -0.0009    0.0004   -0.0011   -0.0006    0.0006   -0.0003   -0.0101
    28 C3     4py       -0.0000   -0.0001    0.0001   -0.0002    0.0001   -0.0008   -0.0001    0.0000   -0.0001   -0.0003
    29 C3     2pz        0.0004    0.0004   -0.0002    0.0000    0.0001    0.0007   -0.0000   -0.0002    0.0001    0.0064
    30 C3     3pz        0.0003    0.0003   -0.0001    0.0002   -0.0001    0.0006    0.0004   -0.0000    0.0001    0.0035
    31 C3     4pz       -0.0000   -0.0000    0.0001    0.0002   -0.0001   -0.0000    0.0002    0.0001   -0.0000   -0.0011
    32 C3     3d2-       0.0000    0.0000    0.0000    0.0000    0.0001   -0.0000   -0.0000   -0.0000    0.0000   -0.0037
    33 C3     3d1-       0.0000   -0.0001    0.0000   -0.0000    0.0000    0.0001    0.0000   -0.0001    0.0000    0.0015
    34 C3     3d0        0.0000   -0.0000    0.0001   -0.0000   -0.0000   -0.0000    0.0001    0.0000   -0.0000    0.0021
    35 C3     3d1+      -0.0000   -0.0000    0.0001    0.0001   -0.0000   -0.0001   -0.0000    0.0000   -0.0000   -0.0006
    36 C3     3d2+      -0.0000   -0.0002    0.0000   -0.0000    0.0000    0.0001    0.0001   -0.0000    0.0000    0.0014
    37 C4     1s         0.0001    0.0003   -0.0003    0.0003   -0.0002    0.0506    0.9987    0.0003    0.0000    0.0045
    38 C4     2s         0.0003    0.0010   -0.0020    0.0014   -0.0011    0.0012    0.0025   -0.0008    0.0002   -0.0577
    39 C4     3s         0.0001   -0.0003   -0.0013    0.0006   -0.0008    0.0004    0.0001   -0.0006    0.0000   -0.0079
    40 C4     4s        -0.0000   -0.0003   -0.0003    0.0001   -0.0002    0.0001    0.0014   -0.0002   -0.0000   -0.0034
    41 C4     2px        0.0000   -0.0020   -0.0005    0.0007    0.0000    0.0003    0.0006   -0.0003    0.0003    0.0112
    42 C4     3px        0.0001   -0.0015   -0.0004    0.0007   -0.0000    0.0002    0.0001   -0.0001    0.0003    0.0024
    43 C4     4px        0.0000    0.0002    0.0000    0.0001   -0.0000    0.0000    0.0000    0.0001    0.0001    0.0020
    44 C4     2py       -0.0002   -0.0014    0.0005    0.0017    0.0000   -0.0008    0.0007   -0.0004    0.0004    0.0215
    45 C4     3py       -0.0002   -0.0011    0.0007    0.0013    0.0002   -0.0001    0.0006   -0.0010    0.0006    0.0174
    46 C4     4py        0.0000    0.0001    0.0002   -0.0001    0.0002    0.0004    0.0003   -0.0005    0.0002    0.0070
    47 C4     2pz        0.0002   -0.0020   -0.0008   -0.0002    0.0001    0.0008   -0.0004   -0.0001    0.0001    0.0081
    48 C4     3pz        0.0003   -0.0012   -0.0006   -0.0002    0.0000    0.0004    0.0001    0.0004    0.0000   -0.0027
    49 C4     4pz        0.0001    0.0003    0.0001   -0.0000   -0.0000   -0.0001   -0.0003    0.0004   -0.0001    0.0012
    50 C4     3d2-      -0.0000   -0.0001    0.0001   -0.0002   -0.0000   -0.0001    0.0004    0.0001   -0.0000   -0.0029
    51 C4     3d1-       0.0000   -0.0001    0.0001   -0.0000   -0.0000   -0.0000    0.0002   -0.0000    0.0000   -0.0010
    52 C4     3d0       -0.0000   -0.0000   -0.0000    0.0001    0.0000    0.0000   -0.0000   -0.0000   -0.0000   -0.0011
    53 C4     3d1+       0.0001   -0.0000    0.0001   -0.0000    0.0000    0.0000    0.0003    0.0000   -0.0000   -0.0038
    54 C4     3d2+       0.0000   -0.0001    0.0000    0.0001    0.0000    0.0000   -0.0000   -0.0001    0.0000   -0.0004
    55 C6     1s         0.0000    0.0001    0.0001    0.0003   -0.0001    0.0002   -0.0005    0.9997   -0.0000    0.0004
    56 C6     2s         0.0001    0.0005    0.0004    0.0015   -0.0004    0.0009   -0.0004   -0.0000   -0.0001   -0.0066
    57 C6     3s         0.0001    0.0003    0.0002    0.0004   -0.0004    0.0006   -0.0005   -0.0017   -0.0002   -0.0044
    58 C6     4s         0.0000    0.0000    0.0000   -0.0001   -0.0001    0.0001   -0.0003    0.0009   -0.0001   -0.0024
    59 C6     2px       -0.0001    0.0002    0.0002    0.0001    0.0001    0.0001   -0.0001    0.0001   -0.0000   -0.0010
    60 C6     3px       -0.0001    0.0002    0.0002   -0.0000    0.0001    0.0000    0.0000   -0.0001   -0.0000   -0.0011
    61 C6     4px        0.0000    0.0000   -0.0000   -0.0000   -0.0000   -0.0000    0.0001    0.0002   -0.0000   -0.0003
    62 C6     2py       -0.0000   -0.0003    0.0001   -0.0002    0.0001   -0.0001    0.0005    0.0001    0.0001    0.0054
    63 C6     3py       -0.0000   -0.0003    0.0001    0.0002    0.0001   -0.0001    0.0007    0.0001    0.0001    0.0039
    64 C6     4py       -0.0000    0.0000   -0.0000    0.0002   -0.0000    0.0000    0.0002   -0.0005    0.0000    0.0006
    65 C6     2pz        0.0001   -0.0001    0.0001    0.0005   -0.0001    0.0002   -0.0001    0.0001   -0.0001   -0.0034
    66 C6     3pz        0.0001   -0.0001    0.0001   -0.0000   -0.0001    0.0002   -0.0001   -0.0002   -0.0001   -0.0021
    67 C6     4pz       -0.0000    0.0000   -0.0000   -0.0002   -0.0000   -0.0000   -0.0000    0.0005   -0.0000   -0.0006
    68 C6     3d2-      -0.0000    0.0000   -0.0000    0.0000    0.0000   -0.0000    0.0000    0.0000    0.0000    0.0002
    69 C6     3d1-       0.0000   -0.0000    0.0000    0.0001    0.0000   -0.0000   -0.0000    0.0001    0.0000    0.0006
    70 C6     3d0        0.0000    0.0000    0.0000   -0.0000    0.0000    0.0000   -0.0000   -0.0001   -0.0000   -0.0001
    71 C6     3d1+       0.0000    0.0000    0.0000   -0.0001   -0.0000    0.0000   -0.0000   -0.0001   -0.0000   -0.0002
    72 C6     3d2+      -0.0000   -0.0000    0.0000    0.0000    0.0000    0.0000   -0.0001    0.0000    0.0000    0.0003
    73 C19    1s         0.0001   -0.0000   -0.0001   -0.0000    0.0037    0.0001   -0.0000   -0.0000    0.9998    0.0118
    74 C19    2s         0.0004   -0.0000   -0.0004   -0.0002   -0.0001   -0.0000   -0.0002   -0.0001    0.0012   -0.0048
    75 C19    3s         0.0003   -0.0001   -0.0003   -0.0002   -0.0003   -0.0002   -0.0003   -0.0002   -0.0009    0.0280
    76 C19    4s         0.0001   -0.0000   -0.0001   -0.0001   -0.0000   -0.0002   -0.0001   -0.0001    0.0012    0.0025
    77 C19    2px        0.0007   -0.0001   -0.0005   -0.0001   -0.0002   -0.0001   -0.0000   -0.0000   -0.0001    0.0108
    78 C19    3px        0.0005   -0.0001   -0.0004   -0.0001   -0.0004   -0.0000   -0.0000   -0.0000   -0.0001    0.0080
    79 C19    4px       -0.0001   -0.0000    0.0000    0.0000   -0.0000    0.0000    0.0000    0.0000    0.0002   -0.0070
    80 C19    2py       -0.0003   -0.0000    0.0002   -0.0001    0.0001    0.0000   -0.0000   -0.0000   -0.0005   -0.0202
    81 C19    3py       -0.0003   -0.0000    0.0001   -0.0001   -0.0003   -0.0001   -0.0001   -0.0000   -0.0001    0.0056
    82 C19    4py       -0.0001    0.0000   -0.0001   -0.0000   -0.0001   -0.0001   -0.0000    0.0000    0.0004   -0.0041
    83 C19    2pz        0.0004    0.0002    0.0002    0.0002    0.0004    0.0002    0.0001   -0.0000    0.0002    0.0002
    84 C19    3pz        0.0004    0.0002    0.0001    0.0001    0.0003    0.0001    0.0000   -0.0000    0.0002    0.0105
    85 C19    4pz       -0.0000   -0.0000   -0.0000   -0.0000   -0.0000   -0.0000   -0.0000   -0.0000    0.0001   -0.0012
    86 C19    3d2-       0.0001   -0.0000   -0.0000    0.0000   -0.0000    0.0000    0.0000    0.0000   -0.0001    0.0004
    87 C19    3d1-      -0.0000    0.0000    0.0000   -0.0000   -0.0000    0.0000    0.0000    0.0000   -0.0001   -0.0023
    88 C19    3d0       -0.0001   -0.0000   -0.0001   -0.0000    0.0001   -0.0000   -0.0000    0.0000    0.0000   -0.0020
    89 C19    3d1+       0.0000   -0.0000   -0.0000   -0.0000    0.0000   -0.0000   -0.0000   -0.0000   -0.0000    0.0005
    90 C19    3d2+       0.0001    0.0000    0.0000    0.0000   -0.0001   -0.0000   -0.0000    0.0000    0.0001    0.0061
    91 N2     1s        -0.0000    0.0000    0.9996    0.0000   -0.0003    0.0001   -0.0000    0.0000    0.0001    0.0161
    92 N2     2s        -0.0001    0.0001   -0.0015    0.0002   -0.0006    0.0014   -0.0002    0.0001    0.0004   -0.1277
    93 N2     3s        -0.0000    0.0001   -0.0024    0.0003   -0.0007    0.0007   -0.0001    0.0000    0.0003    0.0415
    94 N2     4s         0.0000    0.0000    0.0002    0.0001   -0.0001    0.0003   -0.0000    0.0000    0.0001    0.0103
    95 N2     2px        0.0000    0.0004    0.0004   -0.0004   -0.0002    0.0001   -0.0000    0.0001   -0.0003    0.0292
    96 N2     3px       -0.0002    0.0004    0.0002   -0.0006   -0.0000   -0.0005   -0.0002    0.0001   -0.0002   -0.0236
    97 N2     4px       -0.0001   -0.0000   -0.0005   -0.0001   -0.0002   -0.0002   -0.0001   -0.0000    0.0000    0.0013
    98 N2     2py       -0.0013    0.0001   -0.0008   -0.0002   -0.0001    0.0004   -0.0002    0.0000   -0.0001   -0.0336
    99 N2     3py       -0.0015    0.0001   -0.0003   -0.0002   -0.0002    0.0001   -0.0002   -0.0000   -0.0000   -0.0124
   100 N2     4py        0.0000    0.0000    0.0006   -0.0000   -0.0001    0.0001   -0.0000   -0.0000    0.0001    0.0054
   101 N2     2pz       -0.0005    0.0001   -0.0004   -0.0002    0.0001   -0.0003    0.0000    0.0001   -0.0003   -0.0171
   102 N2     3pz       -0.0006    0.0002    0.0002   -0.0003   -0.0002   -0.0004   -0.0001    0.0001   -0.0003   -0.0203
   103 N2     4pz        0.0000    0.0000   -0.0005   -0.0000   -0.0001   -0.0000   -0.0000    0.0000   -0.0000    0.0009
   104 N2     3d2-       0.0001    0.0000   -0.0001    0.0000   -0.0001   -0.0000    0.0000    0.0000   -0.0000    0.0024
   105 N2     3d1-       0.0001    0.0000    0.0002    0.0000   -0.0001    0.0000   -0.0000    0.0000    0.0000    0.0022
   106 N2     3d0       -0.0000   -0.0000    0.0001   -0.0000    0.0001    0.0001   -0.0000    0.0000   -0.0001    0.0031
   107 N2     3d1+       0.0000   -0.0000   -0.0000    0.0000   -0.0000    0.0000   -0.0000   -0.0000   -0.0000    0.0017
   108 N2     3d2+      -0.0000   -0.0000   -0.0000    0.0000    0.0001   -0.0000   -0.0000   -0.0000    0.0000   -0.0043
   109 N5     1s         0.0000    0.0002    0.0000    0.9999    0.0001   -0.0000   -0.0002    0.0001   -0.0000    0.0022
   110 N5     2s         0.0001    0.0010    0.0002    0.0003    0.0005   -0.0000   -0.0001    0.0018   -0.0001   -0.0110
   111 N5     3s         0.0001    0.0007    0.0002   -0.0013    0.0003   -0.0001   -0.0003    0.0011   -0.0001    0.0053
   112 N5     4s         0.0000    0.0001    0.0000    0.0005    0.0001   -0.0000    0.0000    0.0004   -0.0000    0.0008
   113 N5     2px        0.0000    0.0008    0.0001    0.0006   -0.0002   -0.0000    0.0001   -0.0003    0.0000    0.0016
   114 N5     3px        0.0000    0.0010    0.0001    0.0003   -0.0002    0.0002   -0.0001   -0.0004    0.0000    0.0006
   115 N5     4px        0.0000    0.0000    0.0000   -0.0004   -0.0000    0.0001   -0.0001   -0.0002   -0.0000    0.0001
   116 N5     2py       -0.0001   -0.0001   -0.0005    0.0002    0.0000   -0.0007   -0.0001    0.0007    0.0001    0.0032
   117 N5     3py       -0.0001   -0.0001   -0.0006   -0.0000    0.0001   -0.0008    0.0001    0.0005    0.0001   -0.0012
   118 N5     4py        0.0000    0.0001   -0.0000   -0.0001    0.0001    0.0000   -0.0002    0.0000    0.0000    0.0012
   119 N5     2pz        0.0000    0.0013    0.0003    0.0009   -0.0001    0.0003   -0.0006   -0.0007    0.0000    0.0046
   120 N5     3pz        0.0000    0.0014    0.0004    0.0004   -0.0002    0.0005   -0.0004   -0.0007    0.0001    0.0019
   121 N5     4pz        0.0000   -0.0000    0.0000   -0.0001   -0.0000    0.0001    0.0001   -0.0002    0.0000   -0.0010
   122 N5     3d2-       0.0000   -0.0000    0.0000    0.0001    0.0000    0.0000   -0.0000   -0.0000    0.0000    0.0000
   123 N5     3d1-       0.0000   -0.0001   -0.0000    0.0002   -0.0000   -0.0000    0.0001    0.0000    0.0000   -0.0002
   124 N5     3d0       -0.0000    0.0000   -0.0000    0.0000   -0.0000   -0.0000   -0.0000    0.0000   -0.0000    0.0003
   125 N5     3d1+      -0.0000    0.0000    0.0000    0.0000    0.0000   -0.0000   -0.0001   -0.0000    0.0000    0.0002
   126 N5     3d2+      -0.0000   -0.0000   -0.0000    0.0001    0.0000   -0.0000    0.0001    0.0000   -0.0000    0.0002
   127 O7     1s         0.9997   -0.0000    0.0000   -0.0000   -0.0003   -0.0000   -0.0000    0.0000    0.0000    0.0234
   128 O7     2s        -0.0015   -0.0004    0.0000   -0.0002    0.0002   -0.0001    0.0000    0.0000    0.0001   -0.6870
   129 O7     3s        -0.0014   -0.0003   -0.0000   -0.0001   -0.0002   -0.0000    0.0000    0.0000    0.0001    0.0317
   130 O7     4s         0.0001   -0.0001   -0.0000   -0.0000   -0.0000    0.0000    0.0000    0.0000    0.0000    0.0131
   131 O7     2px        0.0002   -0.0002   -0.0004   -0.0000    0.0004    0.0000   -0.0000    0.0000    0.0001   -0.0884
   132 O7     3px       -0.0003   -0.0001   -0.0005   -0.0000   -0.0000    0.0001    0.0001    0.0000    0.0001    0.0237
   133 O7     4px        0.0008    0.0000   -0.0001   -0.0000    0.0001    0.0000    0.0000    0.0000    0.0000    0.0007
   134 O7     2py       -0.0004   -0.0000   -0.0002    0.0001   -0.0007    0.0000   -0.0001    0.0000   -0.0001    0.1116
   135 O7     3py        0.0003   -0.0001   -0.0002    0.0001   -0.0004    0.0000   -0.0001   -0.0000   -0.0001   -0.0378
   136 O7     4py       -0.0010   -0.0001    0.0000   -0.0000   -0.0003    0.0000   -0.0000   -0.0000    0.0000   -0.0011
   137 O7     2pz       -0.0001    0.0002   -0.0001    0.0000   -0.0001    0.0000    0.0000    0.0000   -0.0000    0.0404
   138 O7     3pz        0.0001    0.0003    0.0000   -0.0000   -0.0001    0.0000    0.0000    0.0000   -0.0001   -0.0167
   139 O7     4pz       -0.0005    0.0001    0.0000   -0.0000   -0.0001   -0.0000    0.0000    0.0000   -0.0000   -0.0007
   140 O7     3d2-       0.0001    0.0000    0.0000    0.0000   -0.0002    0.0000   -0.0000    0.0000   -0.0000    0.0165
   141 O7     3d1-       0.0000    0.0000    0.0001   -0.0000    0.0001    0.0000   -0.0000   -0.0000    0.0000   -0.0091
   142 O7     3d0       -0.0000   -0.0000   -0.0000    0.0000   -0.0000   -0.0000   -0.0000    0.0000   -0.0000    0.0076
   143 O7     3d1+       0.0000    0.0000    0.0000   -0.0000   -0.0001   -0.0000   -0.0000    0.0000   -0.0000    0.0068
   144 O7     3d2+       0.0000    0.0000   -0.0001   -0.0000   -0.0001    0.0000   -0.0000    0.0000    0.0000    0.0044
   145 O8     1s        -0.0001    0.9997   -0.0001    0.0000    0.0000   -0.0000   -0.0002   -0.0000    0.0000    0.0036
   146 O8     2s        -0.0003   -0.0014   -0.0004    0.0003    0.0001   -0.0000    0.0006   -0.0003    0.0001   -0.0777
   147 O8     3s        -0.0003   -0.0014   -0.0003    0.0002    0.0001   -0.0000    0.0001   -0.0001    0.0000    0.0042
   148 O8     4s        -0.0001    0.0001   -0.0001    0.0000    0.0001   -0.0000    0.0001   -0.0000   -0.0000    0.0011
   149 O8     2px        0.0001    0.0002   -0.0000   -0.0000    0.0001    0.0000    0.0009   -0.0000    0.0001   -0.0093
   150 O8     3px        0.0002   -0.0003    0.0000   -0.0001    0.0002    0.0000    0.0002   -0.0000    0.0001    0.0084
   151 O8     4px        0.0001    0.0009    0.0000   -0.0001    0.0001    0.0000    0.0001    0.0000    0.0000    0.0015
   152 O8     2py        0.0001    0.0002    0.0001   -0.0003    0.0000    0.0001    0.0002   -0.0001    0.0001    0.0009
   153 O8     3py        0.0001    0.0000    0.0001   -0.0003    0.0001    0.0002    0.0001   -0.0000    0.0002    0.0092
   154 O8     4py        0.0000    0.0006    0.0000   -0.0000    0.0000    0.0001    0.0001    0.0000    0.0001    0.0022
   155 O8     2pz       -0.0003    0.0002   -0.0001    0.0001    0.0001   -0.0001    0.0002   -0.0000   -0.0001   -0.0158
   156 O8     3pz       -0.0003   -0.0003   -0.0001    0.0000    0.0001   -0.0001    0.0002    0.0000   -0.0002   -0.0033
   157 O8     4pz       -0.0000    0.0009    0.0000   -0.0001   -0.0000   -0.0000    0.0002    0.0000   -0.0000   -0.0022
   158 O8     3d2-      -0.0000   -0.0000   -0.0000   -0.0000    0.0000    0.0000    0.0001   -0.0000   -0.0000   -0.0012
   159 O8     3d1-       0.0000   -0.0001    0.0000   -0.0000   -0.0000    0.0000    0.0001   -0.0000    0.0000   -0.0005
   160 O8     3d0       -0.0000   -0.0000   -0.0000    0.0000    0.0000   -0.0000    0.0000    0.0000   -0.0000   -0.0008
   161 O8     3d1+       0.0000   -0.0000   -0.0000    0.0001    0.0000    0.0000    0.0002    0.0000   -0.0000   -0.0018
   162 O8     3d2+      -0.0000   -0.0001    0.0000    0.0000   -0.0000   -0.0000    0.0001   -0.0000    0.0000   -0.0008
   163 H9     1s         0.0008    0.0001    0.0001    0.0003    0.0004    0.0000    0.0001   -0.0001    0.0007   -0.0036
   164 H9     2s         0.0005    0.0001    0.0000    0.0002    0.0003   -0.0000    0.0001   -0.0000   -0.0000    0.0030
   165 H9     2px       -0.0000    0.0000   -0.0000    0.0000    0.0000   -0.0000   -0.0000   -0.0000    0.0000   -0.0014
   166 H9     2py       -0.0000   -0.0000   -0.0001   -0.0000    0.0000   -0.0000   -0.0000    0.0000    0.0000   -0.0008
   167 H9     2pz        0.0001    0.0000    0.0000    0.0000    0.0001   -0.0000    0.0000   -0.0000   -0.0000   -0.0000
   168 H10    1s         0.0003   -0.0001   -0.0001   -0.0001   -0.0001   -0.0004   -0.0001   -0.0001    0.0004   -0.0056
   169 H10    2s         0.0002   -0.0001   -0.0000   -0.0000   -0.0001   -0.0003   -0.0000   -0.0000   -0.0002    0.0041
   170 H10    2px        0.0000   -0.0000    0.0000   -0.0000    0.0000   -0.0001   -0.0000   -0.0000   -0.0000   -0.0005
   171 H10    2py       -0.0000   -0.0000    0.0000    0.0000    0.0000   -0.0000   -0.0000   -0.0000    0.0000   -0.0003
   172 H10    2pz       -0.0001   -0.0000    0.0000    0.0000   -0.0000    0.0000   -0.0000    0.0000    0.0000   -0.0002
   173 H11    1s        -0.0002   -0.0000    0.0004    0.0000    0.0001    0.0000    0.0000   -0.0000    0.0003   -0.0153
   174 H11    2s        -0.0001    0.0000    0.0003    0.0000    0.0001   -0.0000    0.0000   -0.0000   -0.0002   -0.0029
   175 H11    2px       -0.0000    0.0000   -0.0000    0.0000    0.0000    0.0000    0.0000    0.0000    0.0001   -0.0005
   176 H11    2py        0.0000   -0.0000    0.0000    0.0000    0.0001    0.0000   -0.0000   -0.0000   -0.0000   -0.0015
   177 H11    2pz        0.0000   -0.0000   -0.0000   -0.0000   -0.0000   -0.0000   -0.0000    0.0000    0.0000    0.0006
   178 H12    1s        -0.0009    0.0000   -0.0005   -0.0002    0.0001   -0.0007   -0.0002    0.0001   -0.0005   -0.0501
   179 H12    2s        -0.0005    0.0000   -0.0005   -0.0001   -0.0001   -0.0004   -0.0001    0.0000   -0.0003   -0.0036
   180 H12    2px        0.0000    0.0000    0.0002    0.0000   -0.0001    0.0001    0.0000   -0.0000   -0.0000    0.0038
   181 H12    2py       -0.0000   -0.0000   -0.0003   -0.0000    0.0000    0.0000   -0.0001    0.0000   -0.0001   -0.0054
   182 H12    2pz       -0.0001   -0.0000   -0.0003    0.0000    0.0001   -0.0000    0.0000   -0.0000   -0.0000   -0.0030
   183 H13    1s        -0.0003   -0.0001   -0.0005    0.0002   -0.0007    0.0008   -0.0002   -0.0003    0.0000   -0.0152
   184 H13    2s        -0.0002   -0.0000   -0.0002    0.0002   -0.0004    0.0001   -0.0001   -0.0002    0.0000   -0.0022
   185 H13    2px        0.0000   -0.0000    0.0001   -0.0000    0.0000   -0.0000    0.0000   -0.0000   -0.0000    0.0007
   186 H13    2py        0.0000   -0.0000    0.0000   -0.0001    0.0001   -0.0000    0.0000    0.0000    0.0000    0.0013
   187 H13    2pz        0.0000   -0.0000   -0.0000   -0.0000    0.0001    0.0000   -0.0001    0.0000    0.0000    0.0013
   188 H14    1s        -0.0001    0.0011   -0.0001   -0.0002   -0.0001    0.0008   -0.0004   -0.0001   -0.0002   -0.0129
   189 H14    2s        -0.0001    0.0007   -0.0000   -0.0001   -0.0001    0.0001   -0.0001   -0.0001   -0.0001   -0.0026
   190 H14    2px       -0.0000   -0.0001   -0.0000    0.0000   -0.0000    0.0000    0.0000    0.0000    0.0000    0.0011
   191 H14    2py        0.0000   -0.0000    0.0000   -0.0000   -0.0000   -0.0000    0.0001   -0.0000    0.0000    0.0002
   192 H14    2pz       -0.0000   -0.0000    0.0000    0.0000   -0.0000   -0.0000   -0.0000   -0.0000   -0.0000   -0.0005
   193 H15    1s         0.0000   -0.0013   -0.0001   -0.0008   -0.0001    0.0003    0.0004   -0.0001   -0.0001   -0.0092
   194 H15    2s         0.0000   -0.0007   -0.0000   -0.0006   -0.0000    0.0002    0.0002   -0.0000   -0.0001   -0.0031
   195 H15    2px       -0.0000    0.0000   -0.0000    0.0003    0.0000   -0.0000   -0.0001    0.0000    0.0000    0.0006
   196 H15    2py       -0.0000    0.0000    0.0000    0.0002    0.0000   -0.0000   -0.0002    0.0000    0.0000    0.0006
   197 H15    2pz       -0.0000    0.0001   -0.0000    0.0004    0.0000   -0.0001   -0.0000   -0.0000    0.0000    0.0009
   198 H16    1s        -0.0000   -0.0000    0.0000   -0.0002    0.0001    0.0000   -0.0000    0.0010   -0.0001   -0.0045
   199 H16    2s        -0.0000    0.0000   -0.0000   -0.0000    0.0001    0.0000    0.0001    0.0001   -0.0001   -0.0022
   200 H16    2px        0.0000   -0.0000    0.0000    0.0000   -0.0000    0.0000   -0.0000    0.0001   -0.0000   -0.0001
   201 H16    2py        0.0000    0.0000    0.0000    0.0000    0.0000    0.0000   -0.0000    0.0000    0.0000    0.0004
   202 H16    2pz       -0.0000    0.0000   -0.0000    0.0000    0.0000    0.0000   -0.0000    0.0001   -0.0000   -0.0003
   203 H17    1s        -0.0001    0.0006    0.0000   -0.0006    0.0000   -0.0001   -0.0003    0.0005   -0.0001   -0.0040
   204 H17    2s        -0.0001    0.0004    0.0000   -0.0003    0.0000   -0.0000   -0.0003   -0.0001   -0.0000   -0.0020
   205 H17    2px        0.0000    0.0000   -0.0000   -0.0000   -0.0000   -0.0000   -0.0000   -0.0000   -0.0000   -0.0003
   206 H17    2py        0.0000   -0.0001   -0.0000    0.0001   -0.0000    0.0000    0.0001   -0.0000    0.0000    0.0003
   207 H17    2pz       -0.0000    0.0000    0.0000   -0.0000   -0.0000    0.0000    0.0000    0.0000    0.0000    0.0002
   208 H18    1s         0.0002    0.0000   -0.0001   -0.0004   -0.0001    0.0000   -0.0004    0.0005   -0.0000   -0.0007
   209 H18    2s         0.0001    0.0000   -0.0001   -0.0001   -0.0001    0.0000   -0.0002   -0.0001    0.0000   -0.0004
   210 H18    2px       -0.0000    0.0000    0.0000    0.0000    0.0000   -0.0000    0.0001    0.0000    0.0000    0.0003
   211 H18    2py       -0.0000   -0.0000   -0.0000    0.0000    0.0000   -0.0000    0.0000   -0.0000   -0.0000   -0.0001
   212 H18    2pz        0.0000    0.0000   -0.0000   -0.0000   -0.0000   -0.0000   -0.0000    0.0000   -0.0000   -0.0002
 
 
      Orbital                11        12        13        14        15        16        17        18        19        20
      Energy            -1.3614   -1.2450   -1.2101   -1.0181   -0.9658   -0.9079   -0.8013   -0.7699   -0.7000   -0.6901
      Occ. No.           2.0000    2.0000    2.0000    2.0000    2.0000    2.0000    2.0000    2.0000    2.0000    2.0000
 
     1 C1     1s         0.0060    0.0077    0.0021   -0.0175    0.0016    0.0057    0.0167   -0.0023   -0.0037    0.0069
     2 C1     2s        -0.0260   -0.1157    0.0012    0.2515   -0.0537   -0.0800   -0.3707    0.0983    0.1507   -0.2156
     3 C1     3s         0.0143    0.0069    0.0106   -0.0308    0.0043    0.0079    0.0151    0.0037    0.0005    0.0166
     4 C1     4s         0.0039    0.0024    0.0036   -0.0093    0.0005    0.0032    0.0049    0.0008   -0.0016    0.0048
     5 C1     2px        0.0270   -0.1289   -0.0015   -0.0045    0.0975   -0.0978   -0.1344    0.0164   -0.0739    0.2586
     6 C1     3px        0.0050    0.0639    0.0158   -0.0448   -0.0095    0.0326    0.0187    0.0097    0.0323   -0.0761
     7 C1     4px        0.0077   -0.0204    0.0013   -0.0093    0.0135   -0.0080   -0.0113    0.0014   -0.0009    0.0151
     8 C1     2py        0.0027    0.0415    0.0147   -0.1606    0.0719    0.0013   -0.0318    0.0363   -0.1076   -0.0319
     9 C1     3py        0.0333   -0.0272    0.0142   -0.0067   -0.0355    0.0415    0.0181   -0.0090    0.0341    0.0146
    10 C1     4py        0.0010    0.0058    0.0045   -0.0296    0.0082    0.0033   -0.0048    0.0013   -0.0012   -0.0082
    11 C1     2pz       -0.0040    0.0248    0.0076   -0.0342    0.0140   -0.0007   -0.0282    0.0141   -0.0430   -0.0318
    12 C1     3pz        0.0130   -0.0176    0.0044    0.0274   -0.0266    0.0161   -0.0015   -0.0038    0.0064    0.0129
    13 C1     4pz        0.0005    0.0022    0.0009   -0.0027   -0.0003    0.0017   -0.0026    0.0017   -0.0029   -0.0042
    14 C1     3d2-       0.0061   -0.0148   -0.0010    0.0075   -0.0082    0.0061   -0.0091    0.0066   -0.0142    0.0118
    15 C1     3d1-      -0.0041    0.0057    0.0010    0.0051   -0.0047    0.0008   -0.0048    0.0014    0.0042   -0.0113
    16 C1     3d0        0.0023    0.0080    0.0003   -0.0091   -0.0011    0.0056    0.0125   -0.0019   -0.0013    0.0008
    17 C1     3d1+       0.0015   -0.0028   -0.0002    0.0037   -0.0025    0.0008   -0.0049    0.0028   -0.0079    0.0053
    18 C1     3d2+       0.0027   -0.0255   -0.0016    0.0015    0.0133   -0.0134   -0.0102    0.0001   -0.0083    0.0181
    19 C3     1s        -0.0119    0.0340   -0.0057    0.0360    0.0224   -0.0238    0.0008   -0.0067   -0.0001    0.0055
    20 C3     2s         0.0277   -0.1622    0.0120   -0.2801   -0.2425    0.3279   -0.0705    0.0881    0.0330   -0.0261
    21 C3     3s        -0.0290    0.0665   -0.0162    0.0672    0.0326   -0.0211   -0.0023   -0.0126   -0.0037    0.0116
    22 C3     4s        -0.0036    0.0142   -0.0018    0.0171    0.0085   -0.0056    0.0005   -0.0043   -0.0029    0.0017
    23 C3     2px       -0.0063    0.0386    0.0021   -0.0174   -0.0265    0.0237    0.0696    0.0086    0.1246   -0.1858
    24 C3     3px        0.0177   -0.0232   -0.0011   -0.0398   -0.0167    0.0006   -0.0107    0.0079   -0.0160    0.0165
    25 C3     4px        0.0022   -0.0037    0.0016   -0.0130   -0.0083    0.0111    0.0060    0.0048    0.0099   -0.0045
    26 C3     2py       -0.0216    0.1013    0.0255    0.0010   -0.0850   -0.0404   -0.1572   -0.0284    0.1940    0.1213
    27 C3     3py       -0.0165   -0.0067    0.0015   -0.0045    0.0146   -0.0321    0.0086    0.0225   -0.0387   -0.0095
    28 C3     4py        0.0102    0.0072    0.0064   -0.0026   -0.0066   -0.0042   -0.0090    0.0049    0.0017    0.0056
    29 C3     2pz       -0.0262    0.0004   -0.0157    0.0124    0.0321    0.0140    0.0178    0.1063   -0.2097   -0.0875
    30 C3     3pz       -0.0007    0.0034   -0.0085   -0.0060   -0.0198   -0.0001    0.0006   -0.0103    0.0213    0.0126
    31 C3     4pz       -0.0040   -0.0050   -0.0021   -0.0064   -0.0057    0.0092   -0.0022    0.0099   -0.0027   -0.0001
    32 C3     3d2-      -0.0002   -0.0164   -0.0021    0.0002    0.0104   -0.0006    0.0018    0.0091   -0.0265    0.0019
    33 C3     3d1-      -0.0015    0.0051   -0.0038    0.0057    0.0063    0.0014    0.0048    0.0066   -0.0007   -0.0082
    34 C3     3d0        0.0023    0.0115   -0.0009    0.0022   -0.0059   -0.0012   -0.0121   -0.0024    0.0096    0.0094
    35 C3     3d1+       0.0028   -0.0003   -0.0022   -0.0007   -0.0037   -0.0003   -0.0032   -0.0045    0.0122    0.0111
    36 C3     3d2+       0.0032    0.0144   -0.0033    0.0046   -0.0019    0.0005   -0.0118    0.0027    0.0125    0.0007
    37 C4     1s        -0.0391   -0.0068   -0.0058    0.0074    0.0141    0.0093    0.0074    0.0151   -0.0032   -0.0040
    38 C4     2s         0.3566   -0.0316    0.1257   -0.1188   -0.2214   -0.0360   -0.1539   -0.3651    0.0786    0.1162
    39 C4     3s        -0.0066   -0.0234    0.0086    0.0133    0.0142    0.0229    0.0099    0.0081   -0.0050   -0.0041
    40 C4     4s         0.0017   -0.0061    0.0024    0.0049    0.0052    0.0061    0.0042    0.0041   -0.0036   -0.0028
    41 C4     2px       -0.0506   -0.0218    0.0825   -0.0632   -0.0843   -0.0292   -0.0374   -0.0542    0.0513    0.0156
    42 C4     3px        0.0434    0.0149   -0.0402   -0.0076    0.0206   -0.0096    0.0072    0.0096   -0.0147    0.0012
    43 C4     4px       -0.0166   -0.0038    0.0136   -0.0105   -0.0088   -0.0045   -0.0007   -0.0011    0.0026   -0.0025
    44 C4     2py       -0.0109    0.0260    0.1571    0.0168    0.0201   -0.0688    0.0077   -0.1149   -0.1259   -0.1212
    45 C4     3py        0.0395    0.0220    0.0060   -0.0263    0.0527    0.0998   -0.0322    0.0289    0.0600    0.0481
    46 C4     4py       -0.0032    0.0074    0.0335   -0.0023    0.0103    0.0021   -0.0022   -0.0069   -0.0018   -0.0041
    47 C4     2pz       -0.0910   -0.0388    0.0138   -0.0696   -0.0871   -0.0027   -0.0330    0.0388    0.1097    0.0735
    48 C4     3pz        0.0380    0.0141   -0.0563    0.0120    0.0024   -0.0734    0.0334   -0.0095   -0.0393   -0.0289
    49 C4     4pz       -0.0234   -0.0046   -0.0025   -0.0066   -0.0128   -0.0104    0.0009    0.0037    0.0018    0.0007
    50 C4     3d2-       0.0220    0.0050    0.0083    0.0030   -0.0040   -0.0168    0.0007   -0.0063   -0.0067   -0.0011
    51 C4     3d1-       0.0152    0.0064   -0.0097    0.0065    0.0056   -0.0081    0.0070    0.0130    0.0052    0.0017
    52 C4     3d0        0.0043   -0.0002   -0.0149   -0.0016    0.0027    0.0111   -0.0046    0.0070    0.0027    0.0072
    53 C4     3d1+       0.0330    0.0038   -0.0114   -0.0044   -0.0066    0.0037   -0.0040   -0.0000    0.0128    0.0069
    54 C4     3d2+       0.0037    0.0036   -0.0190    0.0016    0.0056    0.0072    0.0023    0.0140    0.0116    0.0048
    55 C6     1s        -0.0088   -0.0022   -0.0351   -0.0130   -0.0382   -0.0416    0.0086    0.0050   -0.0069   -0.0041
    56 C6     2s         0.0272   -0.0083    0.1574    0.1095    0.2584    0.3592   -0.0763   -0.0943    0.0556    0.0323
    57 C6     3s        -0.0130   -0.0133   -0.0616   -0.0129   -0.0728   -0.0689    0.0214    0.0057   -0.0184   -0.0121
    58 C6     4s        -0.0004   -0.0046   -0.0101   -0.0013   -0.0157   -0.0141    0.0057    0.0017   -0.0049   -0.0033
    59 C6     2px       -0.0024   -0.0029    0.0327    0.0089    0.0139    0.0017    0.0306    0.0948    0.0221    0.0182
    60 C6     3px       -0.0045   -0.0029   -0.0025    0.0007    0.0011    0.0106   -0.0023   -0.0059    0.0031   -0.0021
    61 C6     4px        0.0009   -0.0001    0.0016   -0.0001   -0.0032   -0.0049    0.0026    0.0067    0.0013    0.0009
    62 C6     2py       -0.0192    0.0044   -0.0716   -0.0193   -0.0027    0.0352   -0.0285    0.0347    0.1589    0.1206
    63 C6     3py        0.0023    0.0077    0.0151    0.0019    0.0210    0.0095   -0.0012    0.0030   -0.0220   -0.0126
    64 C6     4py       -0.0023    0.0008    0.0010    0.0042    0.0107    0.0140   -0.0038   -0.0002    0.0078    0.0058
    65 C6     2pz        0.0158   -0.0040    0.0724    0.0172    0.0100   -0.0276    0.0516    0.1129   -0.0542   -0.0198
    66 C6     3pz       -0.0010   -0.0060   -0.0136   -0.0021   -0.0142    0.0011   -0.0016   -0.0038    0.0100    0.0071
    67 C6     4pz        0.0023   -0.0010    0.0019   -0.0027   -0.0099   -0.0128    0.0048    0.0088   -0.0028   -0.0008
    68 C6     3d2-      -0.0018    0.0001   -0.0086   -0.0011   -0.0012    0.0020   -0.0031   -0.0084    0.0026   -0.0001
    69 C6     3d1-      -0.0035    0.0001   -0.0188   -0.0041   -0.0045    0.0034   -0.0062   -0.0075    0.0125    0.0084
    70 C6     3d0        0.0005   -0.0000    0.0060    0.0015    0.0019   -0.0007    0.0036    0.0090   -0.0009   -0.0009
    71 C6     3d1+       0.0020    0.0001    0.0086    0.0028    0.0040    0.0003    0.0033    0.0059   -0.0079   -0.0054
    72 C6     3d2+      -0.0023   -0.0002   -0.0066   -0.0016   -0.0011    0.0018   -0.0002    0.0071    0.0104    0.0071
    73 C19    1s         0.0022    0.0072    0.0021   -0.0532    0.0403   -0.0194   -0.0138    0.0001    0.0080   -0.0041
    74 C19    2s         0.0068   -0.0206    0.0086    0.3161   -0.2928    0.1765    0.0903    0.0007   -0.0873    0.0582
    75 C19    3s         0.0107    0.0131    0.0126   -0.1020    0.0673   -0.0258   -0.0348    0.0008    0.0160   -0.0018
    76 C19    4s         0.0033    0.0007    0.0040   -0.0236    0.0157   -0.0060   -0.0097    0.0005    0.0051   -0.0009
    77 C19    2px        0.0046   -0.0351    0.0006    0.0415    0.0001   -0.0242   -0.0423   -0.0149    0.0956    0.0404
    78 C19    3px        0.0018   -0.0103    0.0021   -0.0082    0.0090   -0.0030    0.0116   -0.0062   -0.0074    0.0014
    79 C19    4px       -0.0014   -0.0004   -0.0005   -0.0075    0.0114   -0.0089   -0.0028   -0.0019    0.0071   -0.0015
    80 C19    2py       -0.0010   -0.0074    0.0034    0.0495   -0.0163   -0.0114   -0.0743    0.0116    0.1609   -0.1699
    81 C19    3py        0.0021    0.0035    0.0052   -0.0261    0.0160   -0.0027    0.0073   -0.0003   -0.0160    0.0248
    82 C19    4py       -0.0007   -0.0007    0.0002   -0.0140    0.0141   -0.0097   -0.0121    0.0026    0.0060   -0.0061
    83 C19    2pz       -0.0009    0.0037    0.0009    0.0106   -0.0044   -0.0030   -0.0275    0.0043    0.0536   -0.0698
    84 C19    3pz        0.0014    0.0071    0.0014   -0.0159    0.0062    0.0012    0.0024    0.0014   -0.0058    0.0069
    85 C19    4pz        0.0003    0.0002    0.0002   -0.0054    0.0051   -0.0037   -0.0044   -0.0001    0.0014   -0.0018
    86 C19    3d2-       0.0004   -0.0054   -0.0005    0.0104   -0.0030   -0.0020   -0.0077    0.0010    0.0107   -0.0087
    87 C19    3d1-      -0.0004    0.0008   -0.0001    0.0062   -0.0032    0.0001   -0.0033    0.0005    0.0089   -0.0100
    88 C19    3d0        0.0002    0.0009    0.0001   -0.0056    0.0029   -0.0003    0.0022    0.0004   -0.0068    0.0029
    89 C19    3d1+       0.0004   -0.0025   -0.0001    0.0038   -0.0005   -0.0014   -0.0038   -0.0001    0.0046    0.0023
    90 C19    3d2+       0.0010   -0.0016   -0.0002   -0.0062    0.0038   -0.0006    0.0040   -0.0007   -0.0099    0.0091
    91 N2     1s        -0.0038    0.0406    0.0018   -0.0028   -0.0053    0.0014   -0.0052    0.0015   -0.0036    0.0014
    92 N2     2s         0.0282   -0.5837   -0.0382    0.0038    0.2030   -0.1378    0.1150   -0.0364   -0.1412    0.0512
    93 N2     3s        -0.0088    0.0775    0.0015   -0.0044   -0.0026   -0.0037   -0.0127    0.0049   -0.0121    0.0083
    94 N2     4s        -0.0020    0.0252    0.0011    0.0002   -0.0031    0.0007   -0.0040    0.0016    0.0001    0.0009
    95 N2     2px        0.0005    0.0260    0.0096   -0.1230   -0.0212    0.1167    0.3694   -0.0634    0.0217   -0.2364
    96 N2     3px       -0.0058   -0.0066    0.0085    0.0311    0.0266   -0.0473   -0.0857    0.0110    0.0065    0.0384
    97 N2     4px        0.0017   -0.0067    0.0024   -0.0021    0.0052   -0.0034   -0.0007   -0.0023    0.0032    0.0054
    98 N2     2py       -0.0005   -0.0191    0.0035   -0.1301   -0.0489    0.1253   -0.1348    0.1566   -0.3460    0.0195
    99 N2     3py       -0.0128    0.0268    0.0021    0.0327    0.0343   -0.0471    0.0059   -0.0337    0.0677   -0.0017
   100 N2     4py        0.0005    0.0106    0.0013   -0.0014    0.0029   -0.0025   -0.0084    0.0001    0.0028    0.0028
   101 N2     2pz       -0.0089    0.0263    0.0045    0.0033   -0.0099    0.0023   -0.1081    0.0715   -0.1648    0.0069
   102 N2     3pz       -0.0057   -0.0305   -0.0015    0.0130   -0.0004   -0.0090    0.0317   -0.0228    0.0297   -0.0031
   103 N2     4pz       -0.0024    0.0037   -0.0007    0.0026   -0.0004   -0.0008   -0.0022   -0.0007    0.0018    0.0008
   104 N2     3d2-       0.0008   -0.0081   -0.0007   -0.0017   -0.0052    0.0080   -0.0003    0.0053   -0.0088   -0.0023
   105 N2     3d1-      -0.0004   -0.0014   -0.0003    0.0039    0.0041   -0.0054    0.0097   -0.0054    0.0094   -0.0040
   106 N2     3d0       -0.0004    0.0131    0.0009    0.0014   -0.0020    0.0003    0.0083   -0.0046    0.0095   -0.0030
   107 N2     3d1+       0.0003    0.0021    0.0001    0.0035   -0.0021    0.0001   -0.0091    0.0038   -0.0032    0.0054
   108 N2     3d2+      -0.0003   -0.0033   -0.0002    0.0113    0.0052   -0.0117   -0.0192    0.0023    0.0045    0.0064
   109 N5     1s        -0.0193    0.0002   -0.0425   -0.0014    0.0008    0.0030   -0.0009   -0.0038   -0.0032   -0.0026
   110 N5     2s         0.1264    0.0053    0.5779    0.0442   -0.0289   -0.2259    0.1138    0.1319   -0.1244   -0.0809
   111 N5     3s        -0.0487   -0.0009   -0.0792   -0.0013   -0.0073   -0.0124    0.0060   -0.0035   -0.0158   -0.0124
   112 N5     4s        -0.0114   -0.0010   -0.0262   -0.0009   -0.0030   -0.0008    0.0002   -0.0023   -0.0017   -0.0014
   113 N5     2px       -0.0184   -0.0051   -0.0117   -0.0046   -0.0179   -0.0203    0.0372    0.2164    0.1449    0.1230
   114 N5     3px        0.0027    0.0019    0.0253    0.0173    0.0177    0.0214   -0.0122   -0.0526   -0.0272   -0.0166
   115 N5     4px       -0.0000    0.0012    0.0067    0.0040    0.0027    0.0003    0.0022    0.0051    0.0012   -0.0002
   116 N5     2py       -0.0219    0.0066   -0.0142    0.0542    0.1536    0.1230    0.0693    0.3088    0.0537    0.0514
   117 N5     3py        0.0207    0.0103    0.0017   -0.0224   -0.0361   -0.0543   -0.0249   -0.0733   -0.0048   -0.0037
   118 N5     4py       -0.0056    0.0022    0.0046    0.0012    0.0036   -0.0032    0.0004    0.0020    0.0022    0.0004
   119 N5     2pz       -0.0307   -0.0136    0.0095   -0.0310   -0.0947   -0.0917    0.0414    0.1517    0.1714    0.1076
   120 N5     3pz       -0.0085   -0.0120    0.0266    0.0211    0.0364    0.0668   -0.0047   -0.0418   -0.0304   -0.0249
   121 N5     4pz        0.0059   -0.0023    0.0085    0.0010   -0.0007    0.0030    0.0028    0.0050    0.0012    0.0003
   122 N5     3d2-       0.0043    0.0011    0.0060   -0.0018   -0.0064   -0.0103   -0.0001   -0.0067   -0.0011   -0.0006
   123 N5     3d1-       0.0019    0.0009   -0.0103   -0.0010   -0.0039   -0.0072    0.0024    0.0039    0.0030    0.0027
   124 N5     3d0       -0.0034   -0.0005   -0.0030    0.0016    0.0042    0.0040    0.0028    0.0128    0.0030    0.0023
   125 N5     3d1+       0.0014    0.0005    0.0076    0.0022    0.0037   -0.0004    0.0037    0.0106    0.0006    0.0007
   126 N5     3d2+      -0.0028    0.0003   -0.0126    0.0014    0.0031    0.0018    0.0027    0.0089    0.0009    0.0010
   127 O7     1s         0.0030   -0.0040   -0.0004   -0.0032    0.0016    0.0006    0.0131   -0.0056   -0.0036    0.0221
   128 O7     2s        -0.1220    0.2876    0.0220   -0.1960    0.0638    0.0285    0.3429   -0.1302   -0.0472    0.3673
   129 O7     3s         0.0035    0.0025    0.0001   -0.0152    0.0071    0.0014    0.0405   -0.0171   -0.0095    0.0624
   130 O7     4s         0.0022   -0.0017   -0.0000   -0.0022    0.0014   -0.0002    0.0076   -0.0035   -0.0016    0.0128
   131 O7     2px       -0.0106   -0.0037    0.0002   -0.0026    0.0209   -0.0303   -0.1688    0.0649   -0.0132   -0.1942
   132 O7     3px        0.0059   -0.0068    0.0008   -0.0080   -0.0017    0.0046    0.0257   -0.0125    0.0068    0.0126
   133 O7     4px        0.0009   -0.0014    0.0004   -0.0013   -0.0012    0.0013    0.0028   -0.0013    0.0012    0.0002
   134 O7     2py        0.0216   -0.0411   -0.0019   -0.0284    0.0204   -0.0009    0.1429   -0.0702   -0.0675    0.3816
   135 O7     3py       -0.0017   -0.0028    0.0017    0.0105   -0.0079    0.0008   -0.0242    0.0062    0.0120   -0.0445
   136 O7     4py        0.0012   -0.0003    0.0008   -0.0008   -0.0020    0.0017   -0.0028    0.0002    0.0015   -0.0064
   137 O7     2pz        0.0029   -0.0136   -0.0022   -0.0078    0.0096    0.0000    0.0639   -0.0262   -0.0218    0.1592
   138 O7     3pz       -0.0075   -0.0006   -0.0017    0.0042    0.0018   -0.0020   -0.0076    0.0066    0.0044   -0.0157
   139 O7     4pz       -0.0017   -0.0005   -0.0004   -0.0001    0.0006    0.0000   -0.0007    0.0013    0.0003   -0.0022
   140 O7     3d2-       0.0027   -0.0033   -0.0003    0.0008   -0.0017    0.0021    0.0108   -0.0043   -0.0005    0.0156
   141 O7     3d1-      -0.0017    0.0042    0.0005   -0.0005   -0.0014    0.0012   -0.0024    0.0017    0.0022   -0.0120
   142 O7     3d0        0.0013   -0.0028   -0.0004    0.0013   -0.0004    0.0001    0.0037   -0.0017    0.0001    0.0069
   143 O7     3d1+       0.0006   -0.0014   -0.0002    0.0012   -0.0010    0.0007    0.0045   -0.0016    0.0000    0.0059
   144 O7     3d2+       0.0010   -0.0042   -0.0002   -0.0024    0.0037   -0.0027   -0.0013   -0.0004   -0.0054    0.0124
   145 O8     1s        -0.0234   -0.0024    0.0037    0.0005    0.0031   -0.0000    0.0040    0.0118   -0.0005   -0.0049
[...]
AIVX     1  Mu1.0001  In1.029 Se1.040               0.15746467     -0.00011484      0.00016561     -0.00000002
AIVX     1  Mu1.0001  In1.021 Se1.041               0.29808308     -0.00015800      0.00021889     -0.00000003
AIVX     1  Mu1.0001  In1.022 Se1.041               0.25791170      0.00040146     -0.00050348     -0.00000020
AIVX     1  Mu1.0001  In1.023 Se1.041               0.20682478      0.00282733     -0.00498584     -0.00001410
AIVX     1  Mu1.0001  In1.024 Se1.041               0.23955652      0.00186507     -0.00281046     -0.00000524
AIVX     1  Mu1.0001  In1.025 Se1.041               0.21904772     -0.00074138      0.00138316     -0.00000103
AIVX     1  Mu1.0001  In1.026 Se1.041               0.19625005     -0.00114705      0.00193198     -0.00000222
AIVX     1  Mu1.0001  In1.027 Se1.041               0.21779288     -0.00031865      0.00064812     -0.00000021
AIVX     1  Mu1.0001  In1.028 Se1.041               0.18658778      0.00119666     -0.00235458     -0.00000282
AIVX     1  Mu1.0001  In1.029 Se1.041               0.16653366     -0.00002246      0.00008608     -0.00000000
AIVX     1  Mu1.0001  In1.022 Se1.042               0.27024173      0.00290883     -0.00446533     -0.00001299
AIVX     1  Mu1.0001  In1.023 Se1.042               0.21915481      0.00090554     -0.00223487     -0.00000202
AIVX     1  Mu1.0001  In1.024 Se1.042               0.25188655      0.00294322     -0.00397174     -0.00001169
AIVX     1  Mu1.0001  In1.025 Se1.042               0.23137776     -0.00026939      0.00046510     -0.00000013
AIVX     1  Mu1.0001  In1.026 Se1.042               0.20858008     -0.00034527      0.00107790     -0.00000037
AIVX     1  Mu1.0001  In1.027 Se1.042               0.23012291      0.00049425     -0.00053945     -0.00000027
AIVX     1  Mu1.0001  In1.028 Se1.042               0.19891781     -0.00081776      0.00130544     -0.00000107
AIVX     1  Mu1.0001  In1.029 Se1.042               0.17886369      0.00011837     -0.00012466     -0.00000001
AIVX     1  Mu1.0001  In1.022 Se1.043               0.28625578     -0.00029929      0.00040425     -0.00000012
AIVX     1  Mu1.0001  In1.023 Se1.043               0.23516886      0.00140087     -0.00207404     -0.00000291
AIVX     1  Mu1.0001  In1.024 Se1.043               0.26790060     -0.00203886      0.00334140     -0.00000681
AIVX     1  Mu1.0001  In1.025 Se1.043               0.24739181     -0.00187308      0.00289364     -0.00000542
AIVX     1  Mu1.0001  In1.026 Se1.043               0.22459413     -0.00079291      0.00128168     -0.00000102
AIVX     1  Mu1.0001  In1.027 Se1.043               0.24613696     -0.00149690      0.00220888     -0.00000331
AIVX     1  Mu1.0001  In1.028 Se1.043               0.21493186      0.00008172     -0.00001992     -0.00000000
AIVX     1  Mu1.0001  In1.029 Se1.043               0.19487774     -0.00026846      0.00052680     -0.00000014
AIVX     1  Mu1.0001  In1.022 Se1.044               0.29410137      0.00120635     -0.00194821     -0.00000235
AIVX     1  Mu1.0001  In1.023 Se1.044               0.24301445      0.00210561     -0.00358271     -0.00000754
AIVX     1  Mu1.0001  In1.024 Se1.044               0.27574618      0.00098409     -0.00197386     -0.00000194
AIVX     1  Mu1.0001  In1.025 Se1.044               0.25523739      0.00042548     -0.00058849     -0.00000025
AIVX     1  Mu1.0001  In1.026 Se1.044               0.23243971     -0.00017647      0.00019834     -0.00000004
AIVX     1  Mu1.0001  In1.027 Se1.044               0.25398255     -0.00019821      0.00041323     -0.00000008
AIVX     1  Mu1.0001  In1.028 Se1.044               0.22277744      0.00003353     -0.00016019     -0.00000001
AIVX     1  Mu1.0001  In1.029 Se1.044               0.20272332     -0.00039185      0.00067816     -0.00000027
AIVX     1  Mu1.0001  In1.023 Se1.045               0.25140606      0.00443071     -0.00759146     -0.00003364
AIVX     1  Mu1.0001  In1.024 Se1.045               0.28413779      0.00275479     -0.00412413     -0.00001136
AIVX     1  Mu1.0001  In1.025 Se1.045               0.26362900     -0.00045834      0.00117342     -0.00000054
AIVX     1  Mu1.0001  In1.026 Se1.045               0.24083133     -0.00061301      0.00076165     -0.00000047
AIVX     1  Mu1.0001  In1.027 Se1.045               0.26237416      0.00040809     -0.00033363     -0.00000014
AIVX     1  Mu1.0001  In1.028 Se1.045               0.23116906      0.00080130     -0.00166253     -0.00000133
AIVX     1  Mu1.0001  In1.029 Se1.045               0.21111493     -0.00028291      0.00051139     -0.00000014
AIVX     1  Mu1.0001  In1.023 Se1.046               0.26176991      0.00166181     -0.00214758     -0.00000357
AIVX     1  Mu1.0001  In1.024 Se1.046               0.29450165     -0.00223241      0.00306656     -0.00000685
AIVX     1  Mu1.0001  In1.025 Se1.046               0.27399285     -0.00112548      0.00126231     -0.00000142
AIVX     1  Mu1.0001  In1.026 Se1.046               0.25119518     -0.00052081      0.00071619     -0.00000037
AIVX     1  Mu1.0001  In1.027 Se1.046               0.27273801     -0.00180713      0.00243152     -0.00000439
AIVX     1  Mu1.0001  In1.028 Se1.046               0.24153291      0.00136351     -0.00198931     -0.00000271
AIVX     1  Mu1.0001  In1.029 Se1.046               0.22147879      0.00041646     -0.00080434     -0.00000033
AIVX     1  Mu1.0001  In1.023 Se1.047               0.27039272      0.00145191     -0.00312699     -0.00000454
AIVX     1  Mu1.0001  In1.025 Se1.047               0.28261567     -0.00045440      0.00117474     -0.00000053
AIVX     1  Mu1.0001  In1.026 Se1.047               0.25981799     -0.00008655      0.00027250     -0.00000002
AIVX     1  Mu1.0001  In1.027 Se1.047               0.28136082      0.00193990     -0.00260076     -0.00000505
AIVX     1  Mu1.0001  In1.028 Se1.047               0.25015572      0.00022865     -0.00081839     -0.00000019
AIVX     1  Mu1.0001  In1.029 Se1.047               0.23010160      0.00043270     -0.00071253     -0.00000031
AIVX     1  Mu1.0001  In1.026 Se1.048               0.29110300      0.00050667     -0.00084163     -0.00000043
AIVX     1  Mu1.0001  In1.028 Se1.048               0.28144073     -0.00288784      0.00409805     -0.00001183
AIVX     1  Mu1.0001  In1.029 Se1.048               0.26138661      0.00065118     -0.00109736     -0.00000071
AIVX     1  Mu1.0001  In1.028 Se1.049               0.29057088      0.00355805     -0.00545692     -0.00001942
AIVX     1  Mu1.0001  In1.029 Se1.049               0.27051676     -0.00011934      0.00015440     -0.00000002
AIVX     1  Mu1.0001  In1.028 Se1.050               0.29912049     -0.00046622      0.00052906     -0.00000025
AIVX     1  Mu1.0001  In1.029 Se1.050               0.27906637      0.00064209     -0.00105441     -0.00000068
AIVX     1  Mu1.0001  In1.029 Se1.051               0.29325617     -0.00019008      0.00031278     -0.00000006
--
 
   (Skipping property calculation,
    use PROP keyword to activate)
--
 
  Total CASPT2 energies:
::    CASPT2 Root  1     Total energy:   -455.37604436
::    CASPT2 Root  2     Total energy:   -455.17107988
::    CASPT2 Root  3     Total energy:   -455.16478910
::    CASPT2 Root  4     Total energy:   -455.12633691
::    CASPT2 Root  5     Total energy:   -455.11300929
::    CASPT2 Root  6     Total energy:   -455.08540580
::    CASPT2 Root  7     Total energy:   -455.11190705
 
++ Multi-State CASPT2 section:
********************************************************************************
  MULTI-STATE CASPT2 SECTION
--------------------------------------------------------------------------------
 
  Output diagonal energies have been shifted. Add   -455.000000000000     
 
  Effective Hamiltonian matrix (Symmetric):
 
                1               2               3               4               5
   1        -0.37604436
   2         0.00043026     -0.17107988
   3         0.00039403      0.00009614     -0.16478910
   4         0.01394827     -0.00082125      0.00077699     -0.12633691
   5         0.01311198     -0.00382721      0.00220089      0.00610074     -0.11300929
   6        -0.01189050      0.00050296      0.00251823      0.00371710      0.00181339
   7         0.02266405     -0.00325290     -0.00001520     -0.00507969     -0.02337745
 
                6               7
   6        -0.08540580
   7         0.01638893     -0.11190705
 
       Total MS-CASPT2 energies:
::    MS-CASPT2 Root  1     Total energy:   -455.38023812
::    MS-CASPT2 Root  2     Total energy:   -455.17176868
::    MS-CASPT2 Root  3     Total energy:   -455.16495449
::    MS-CASPT2 Root  4     Total energy:   -455.13536974
::    MS-CASPT2 Root  5     Total energy:   -455.12749693
::    MS-CASPT2 Root  6     Total energy:   -455.09384342
::    MS-CASPT2 Root  7     Total energy:   -455.07490099
 
       Eigenvectors:
            0.99149303      0.02033791     -0.00028244      0.10017929      0.07893719
           -0.00482964      0.98986745      0.04291894     -0.13104806     -0.03064350
           -0.00158647     -0.03863594      0.99778516      0.02899515      0.00592630
           -0.05566523      0.01120419     -0.01083951     -0.16460867      0.95173510
           -0.05584367      0.09702355     -0.03966369      0.67551117     -0.07186639
            0.04619793     -0.02159473     -0.02915608     -0.20750372     -0.15280219
           -0.09254373      0.09083295     -0.00647126      0.66744337      0.24183010
 
           -0.01534748     -0.00503386
           -0.01344249     -0.00193619
            0.04299892      0.01430988
            0.25034863     -0.03298807
            0.65947075     -0.29918709
            0.55808231      0.78656670
           -0.43439944      0.53895996
 
--
 
  THE ORIGINAL CI ARRAYS ARE NOW MIXED AS LINEAR
  COMBINATIONS, GIVEN BY THE EIGENVECTORS.
  A NEW JOBIPH FILE NAMED 'JOBMIX' IS PREPARED.
********************************************************************************
 
++ Mixed CI coefficients:
  The CI coefficients for the MIXED state nr.   1
--------------------------------------------------------------------------------
 CI COEFFICIENTS LARGER THAN  0.50D-01
  Occupation of active orbitals, and spin coupling
  of open shells. (u,d: Spin up or down).
  SGUGA info is (Midvert:IsyUp:UpperWalk/LowerWalk)
        Conf  SGUGA info        Occupation    Coefficient         Weight
           1  ( 1:1:   1/   1)   22222200        0.964432       0.930129
           3  ( 1:1:   3/   1)   2222u2d0       -0.091722       0.008413
           4  ( 1:1:   4/   1)   22222020       -0.093391       0.008722
          61  ( 2:1:   1/   3)   2u2222d0        0.084204       0.007090
          62  ( 2:1:   2/   3)   2u222d20        0.053454       0.002857
          84  ( 2:1:   4/   4)   u222220d       -0.111509       0.012434
         145  ( 3:1:   5/   5)   22022202       -0.086287       0.007445
         171  ( 3:1:   1/   8)   20222220       -0.086516       0.007485
         195  ( 3:1:   5/  10)   02222202       -0.078367       0.006141
 
  The CI coefficients for the MIXED state nr.   2
--------------------------------------------------------------------------------
 CI COEFFICIENTS LARGER THAN  0.50D-01
  Occupation of active orbitals, and spin coupling
  of open shells. (u,d: Spin up or down).
  SGUGA info is (Midvert:IsyUp:UpperWalk/LowerWalk)
        Conf  SGUGA info        Occupation    Coefficient         Weight
           2  ( 1:1:   2/   1)   22222ud0       -0.218382       0.047691
          21  ( 2:1:   1/   1)   222u22d0       -0.925693       0.856907
          22  ( 2:1:   2/   1)   222u2d20       -0.096855       0.009381
          23  ( 2:1:   3/   1)   222ud220        0.090253       0.008146
          62  ( 2:1:   2/   3)   2u222d20        0.054380       0.002957
         121  ( 3:1:   1/   3)   2u2d2220        0.181552       0.032961
         213  ( 4:1:   1/   3)   u22u22dd        0.089983       0.008097
         250  ( 5:1:   2/   4)   220u22d2        0.080699       0.006512
         258  ( 5:1:   2/   6)   u2du22d2       -0.058308       0.003400
         270  ( 5:1:   2/   9)   022u22d2        0.079120       0.006260
 
  The CI coefficients for the MIXED state nr.   3
--------------------------------------------------------------------------------
 CI COEFFICIENTS LARGER THAN  0.50D-01
  Occupation of active orbitals, and spin coupling
  of open shells. (u,d: Spin up or down).
  SGUGA info is (Midvert:IsyUp:UpperWalk/LowerWalk)
        Conf  SGUGA info        Occupation    Coefficient         Weight
           7  ( 1:1:   7/   1)   22222u0d        0.377996       0.142881
           8  ( 1:1:   8/   1)   2222u20d        0.839510       0.704777
          10  ( 1:1:  10/   1)   2222udud       -0.075603       0.005716
          11  ( 1:1:  11/   1)   222202ud       -0.067867       0.004606
          12  ( 1:1:  12/   1)   2222uudd       -0.101182       0.010238
          13  ( 1:1:  13/   1)   2222u02d       -0.076403       0.005837
          44  ( 2:1:   4/   2)   22u2220d        0.210972       0.044509
          54  ( 2:1:  14/   2)   22u2d202       -0.148371       0.022014
          68  ( 2:1:   8/   3)   2u22u2dd       -0.070598       0.004984
          71  ( 2:1:  11/   3)   2u22ud2d       -0.060851       0.003703
          94  ( 2:1:  14/   4)   u222d202        0.125064       0.015641
         174  ( 3:1:   4/   8)   2022u22d        0.085025       0.007229
 
  The CI coefficients for the MIXED state nr.   4
--------------------------------------------------------------------------------
 CI COEFFICIENTS LARGER THAN  0.50D-01
  Occupation of active orbitals, and spin coupling
  of open shells. (u,d: Spin up or down).
  SGUGA info is (Midvert:IsyUp:UpperWalk/LowerWalk)
        Conf  SGUGA info        Occupation    Coefficient         Weight
           2  ( 1:1:   2/   1)   22222ud0       -0.845952       0.715636
           3  ( 1:1:   3/   1)   2222u2d0        0.136167       0.018541
           4  ( 1:1:   4/   1)   22222020        0.146114       0.021349
           8  ( 1:1:   8/   1)   2222u20d        0.088409       0.007816
          21  ( 2:1:   1/   1)   222u22d0        0.215345       0.046374
          24  ( 2:1:   4/   1)   222u220d       -0.066662       0.004444
          44  ( 2:1:   4/   2)   22u2220d       -0.262185       0.068741
          61  ( 2:1:   1/   3)   2u2222d0       -0.087532       0.007662
          62  ( 2:1:   2/   3)   2u222d20        0.221929       0.049252
          85  ( 2:1:   5/   4)   u2222dud        0.055296       0.003058
          87  ( 2:1:   7/   4)   u2222udd        0.089504       0.008011
         121  ( 3:1:   1/   3)   2u2d2220       -0.053895       0.002905
         146  ( 3:1:   6/   5)   22022ud2        0.075966       0.005771
         165  ( 3:1:   5/   7)   u2d22202       -0.068443       0.004684
         171  ( 3:1:   1/   8)   20222220       -0.101487       0.010300
         196  ( 3:1:   6/  10)   02222ud2        0.069328       0.004806
 
  The CI coefficients for the MIXED state nr.   5
--------------------------------------------------------------------------------
 CI COEFFICIENTS LARGER THAN  0.50D-01
  Occupation of active orbitals, and spin coupling
  of open shells. (u,d: Spin up or down).
  SGUGA info is (Midvert:IsyUp:UpperWalk/LowerWalk)
        Conf  SGUGA info        Occupation    Coefficient         Weight
           2  ( 1:1:   2/   1)   22222ud0       -0.248554       0.061779
           7  ( 1:1:   7/   1)   22222u0d       -0.262853       0.069091
           8  ( 1:1:   8/   1)   2222u20d       -0.093442       0.008731
          21  ( 2:1:   1/   1)   222u22d0        0.059928       0.003591
          24  ( 2:1:   4/   1)   222u220d       -0.051782       0.002681
          44  ( 2:1:   4/   2)   22u2220d        0.852644       0.727002
          45  ( 2:1:   5/   2)   22u22dud       -0.061723       0.003810
          47  ( 2:1:   7/   2)   22u22udd       -0.116902       0.013666
          49  ( 2:1:   9/   2)   22u2202d       -0.066115       0.004371
          62  ( 2:1:   2/   3)   2u222d20        0.064386       0.004146
          84  ( 2:1:   4/   4)   u222220d        0.096805       0.009371
         165  ( 3:1:   5/   7)   u2d22202        0.209810       0.044020
         195  ( 3:1:   5/  10)   02222202       -0.059323       0.003519
         219  ( 4:1:   1/   4)   2uu222dd       -0.056271       0.003166
         220  ( 4:1:   2/   4)   2uu22d2d       -0.064005       0.004097
         293  ( 5:1:   1/  15)   20u2222d        0.088298       0.007796
 
  The CI coefficients for the MIXED state nr.   6
--------------------------------------------------------------------------------
 CI COEFFICIENTS LARGER THAN  0.50D-01
  Occupation of active orbitals, and spin coupling
  of open shells. (u,d: Spin up or down).
  SGUGA info is (Midvert:IsyUp:UpperWalk/LowerWalk)
        Conf  SGUGA info        Occupation    Coefficient         Weight
           2  ( 1:1:   2/   1)   22222ud0        0.115946       0.013443
           3  ( 1:1:   3/   1)   2222u2d0       -0.058544       0.003427
           7  ( 1:1:   7/   1)   22222u0d       -0.672797       0.452655
           8  ( 1:1:   8/   1)   2222u20d        0.340435       0.115896
          10  ( 1:1:  10/   1)   2222udud       -0.122488       0.015003
          24  ( 2:1:   4/   1)   222u220d       -0.484368       0.234612
          25  ( 2:1:   5/   1)   222u2dud       -0.123896       0.015350
          26  ( 2:1:   6/   1)   222ud2ud       -0.085148       0.007250
          27  ( 2:1:   7/   1)   222u2udd       -0.161175       0.025977
          28  ( 2:1:   8/   1)   222uu2dd       -0.098100       0.009624
          44  ( 2:1:   4/   2)   22u2220d       -0.161061       0.025941
          65  ( 2:1:   5/   3)   2u222dud        0.115882       0.013429
          67  ( 2:1:   7/   3)   2u222udd        0.153545       0.023576
         173  ( 3:1:   3/   8)   20222u2d       -0.094125       0.008859
 
  The CI coefficients for the MIXED state nr.   7
--------------------------------------------------------------------------------
 CI COEFFICIENTS LARGER THAN  0.50D-01
  Occupation of active orbitals, and spin coupling
  of open shells. (u,d: Spin up or down).
  SGUGA info is (Midvert:IsyUp:UpperWalk/LowerWalk)
        Conf  SGUGA info        Occupation    Coefficient         Weight
           3  ( 1:1:   3/   1)   2222u2d0        0.066689       0.004447
           7  ( 1:1:   7/   1)   22222u0d       -0.474174       0.224841
           8  ( 1:1:   8/   1)   2222u20d        0.212546       0.045176
          10  ( 1:1:  10/   1)   2222udud       -0.073348       0.005380
          24  ( 2:1:   4/   1)   222u220d        0.720844       0.519616
          25  ( 2:1:   5/   1)   222u2dud        0.183030       0.033500
          26  ( 2:1:   6/   1)   222ud2ud        0.148501       0.022053
          27  ( 2:1:   7/   1)   222u2udd        0.237976       0.056633
          28  ( 2:1:   8/   1)   222uu2dd        0.160555       0.025778
          32  ( 2:1:  12/   1)   222u022d       -0.050254       0.002526
          44  ( 2:1:   4/   2)   22u2220d       -0.073269       0.005368
          65  ( 2:1:   5/   3)   2u222dud        0.094636       0.008956
          67  ( 2:1:   7/   3)   2u222udd        0.113833       0.012958
         117  ( 3:1:   7/   2)   22udu2d2       -0.055394       0.003069
         173  ( 3:1:   3/   8)   20222u2d       -0.068673       0.004716
         261  ( 5:1:   1/   7)   202u222d        0.063021       0.003972
 
--
 
--- Stop Module: caspt2 at Tue Jun 10 21:26:55 2025 /rc=_RC_ALL_IS_WELL_ ---
*** files: xmldump
    saved to directory /home/pcaah4/diamide_project
--- Module caspt2 spent 6 minutes 51 seconds ---

.##################.
.# Happy landing! #.
.##################.

    Timing: Wall=692.08 User=601.90 System=80.37
******************************************************
*** WorkDir at /srv/COMMUNAL_SCRATCH/12471 cleaned ***
******************************************************
