   This run of MOLCAS is using the pymolcas driver

                             OPE
                             OPE          NMOL  CASOP  ENMOLC A   SO
                 OPE        NMOLC        AS  OP EN  MO LC     AS  OP
                OPENM       OL CA        SO  PE NM  OL CA     SOP EN
                OP EN      MO   LC       AS  OP ENMOL  CASO   PENMOL
                OP  EN     MO   LC       AS  OP EN     MO     LC ASO
               OP   E  NMOL  C  AS       OP  EN MO     LC     AS  OP
               OP  E   NMO   LC AS        OPEN  MO     LCASOP EN   M
               O  PEN   MO  LCA  SO
            OPE   NMO   L   CAS    OP
        OPENMOL  CASOP     ENMOL   CASOPE
     OPENMOLCA   SOPENMOLCASOPEN   MOLCASOPE
    OPENMOLCAS   OP           EN   MOL    CAS
    OPENMOLCAS       OP  ENM        O     LCA
    OPENMOLCAS    OPEN  MOLCASO     P  E  NMO
    OPENMOLCAS     OP               E  N  MOL
    OPENMOLCA   SO           PENM   O  L  CAS    OPEN    MO    LCAS
    OPENMOLCA   SOP           ENM   O  L  CAS   OP  EN  MOLC  AS   O
    OPENMOLCA   SOPE           NM      O  LCA   S      OP  EN MO
    OPENMOLC                AS         O  PEN   M      OL  CA  SOPE
    OPENMO        LCASOPE  NMOL        C  ASO   P      ENMOLC     AS
    OPE     NMO      LCA  SO     P     E   NM   OL  CA SO  PE N   MO
          OPENMOLCA            SOPE   NMO        LCAS  O    P  ENMO
     OPENMOLCASOPENMOLCASOPENMOLCASOPENMOLCA
        OPENMOLCASOPENMOLCASOPENMOLCASOPE
            OPENMOLCASOPENMOLCASOPENM
               OPENMOLCASOPENMOLCA        version: v23.06
                   OPENMOLCASO
                       OPE                tag:

 OpenMolcas is free software; you can redistribute it and/or modify it
 under the terms of the GNU Lesser General Public License version 2.1.
 OpenMolcas is distributed in the hope that it will be useful, but it
 is provided "as is" and without any express or implied warranties.
 For more details see the full text of the license in the file
 LICENSE or in <http://www.gnu.org/licenses/>.

                 Copyright (C) The OpenMolcas Authors
           For the author list and the recommended citation,
                   consult the file CONTRIBUTORS.md

           *************************************************
           * pymolcas version py2.24                       *
           *   build 4567b286dd94b1984b333a4ddf893180      *
           *   (after the EMIL interpreter by V. Veryazov) *
           *************************************************

configuration info
------------------
Host name: loginchem01.nottingham.ac.uk (Linux)
C Compiler ID: Intel
C flags: -std=gnu99 -gcc-sys -qopenmp
Fortran Compiler ID: Intel
Fortran flags: -fpp -i8 -heap-arrays -qopenmp
Definitions: _MOLCAS_;_I8_;_LINUX_
Parallel: OFF (GA=OFF)


   ----------------------------------------------------------------------------------------------------
  |
  |              Project: orca_geometry_optimisation_330_315_BP86_def2-SVP_def2J_scf_cas1_ras12i11_cas8
  |       Submitted from: /home/pcaah4/diamide_project
  |         Scratch area: /srv/COMMUNAL_SCRATCH/12482
  |      Save outputs to: /home/pcaah4/diamide_project
  |               Molcas: /software/chemistry/openmolcas/openmolcas-23.06-openmp
  |
  | Scratch area is empty
  |
  |       MOLCAS_DRIVER = /software/chemistry/openmolcas/openmolcas-23.06-openmp/sbin/pymolcas
  | MOLCAS_KEEP_WORKDIR = NO
  |       MOLCAS_NPROCS = 1
  |       MOLCAS_SOURCE = /software/chemistry/openmolcas/openmolcas-23.06-openmp
  |    MOLCAS_STRUCTURE = 0
  |
   ----------------------------------------------------------------------------------------------------

++ ---------   Input file   ---------

&SEWARD
TITLE
orca_geometry_optimisation_330_315_BP86_def2-SVP_def2J_scf_cas1_ras12i11
MULTIPOLES
2
SDIPOLE
ANGMOM
0 0 0
BASIS SET
C.ANO-S...4S3P1D.
C1           -0.116059   -0.180571    0.098899 /Angstrom
C3            2.000749    1.180442   -0.147063 /Angstrom
C4            1.321661    2.357951   -0.884523 /Angstrom
C6           -0.109956    3.020819   -2.774979 /Angstrom
C19          -0.631761   -1.614020    0.221325 /Angstrom
END OF BASIS
BASIS SET
N.ANO-S...4S3P1D.
N2            1.255828   -0.066791    0.002481 /Angstrom
N5            0.673375    2.037386   -2.049693 /Angstrom
END OF BASIS
BASIS SET
O.ANO-S...4S3P1D.
O7           -0.871012    0.788506    0.117722 /Angstrom
O8            1.494298    3.505980   -0.485701 /Angstrom
END OF BASIS
BASIS SET
H.ANO-S...2S1P.
H9           -1.481423   -1.744087   -0.476537 /Angstrom
H10          -1.031978   -1.759607    1.245245 /Angstrom
H11           0.127596   -2.395998    0.021971 /Angstrom
H12           1.799153   -0.930799   -0.009415 /Angstrom
H13           2.283446    1.605967    0.839737 /Angstrom
H14           2.944549    0.950414   -0.685198 /Angstrom
H15           0.445590    1.052361   -2.192206 /Angstrom
H16          -1.196052    2.926842   -2.555284 /Angstrom
H17           0.227443    4.021432   -2.445952 /Angstrom
H18           0.045293    2.926509   -3.869700 /Angstrom
END OF BASIS
END OF INPUT

&RASSCF
TITLE
orca_geometry_optimisation_330_315_BP86_def2-SVP_def2J_scf_cas1_ras12i11
LUMORB
SPIN
1
SYMMETRY
1
NACTEL
12  0  0
INACTIVE
29
DELETED  ! delete Rydberg orbitals from an initial CAS(12,11) if done
3
FROZEN
0
RAS2
8
ITERATIONS
64 25
CIROOT
7 7
1 2 3 4 5 6 7
1 1 1 1 1 1 1
LEVSHFT
0.3
CIMX
20
FILEorb = /home/pcaah4/diamide_project/cas/ras12i11/ras_orb/orca_geometry_optimisation_330_315_BP86_def2-SVP_def2J_scf_cas1_ras12i11.RasOrb
ALTEr
2
 1 36 37
 1 37 39
END OF INPUT

&RASSI
NROF JOBIPH
    1 7
    1 2 3 5 4 6 7
TOFILE
TRDI
TDMN
1.0D-6
END OF INPUT

&CASPT2
TITLE
orca_geometry_optimisation_330_315_BP86_def2-SVP_def2J_scf_cas1_ras12i11
MULTISTATE
7 1 2 3 4 5 6 7
SHIFT
0.35
MAXITER
50
END OF INPUT

-- ----------------------------------

--- Start Module: seward at Tue Jun 10 21:39:17 2025 ---
 
()()()()()()()()()()()()()()()()()()()()()()()()()()()()()()()()()()()()()()()()()()()()()()()()()()

                                              &SEWARD

                                   only a single process is used
                       available to each process: 2.0 GB of memory, 1 thread
                                            pid: 3141086
()()()()()()()()()()()()()()()()()()()()()()()()()()()()()()()()()()()()()()()()()()()()()()()()()()
 
               SEWARD will generate:
                  Multipole Moment integrals up to order  2
                  Kinetic Energy integrals
                  Nuclear Attraction integrals (point charge)
                  One-Electron Hamiltonian integrals
                  Velocity integrals
                  Orbital angular momentum around ( 0.0000  0.0000  0.0000 )
                  Velocity quadrupole around ( 1.0279  2.3269 -1.2581 )
                  Two-Electron Repulsion integrals
 
 Title:
            orca_geometry_optimisation_330_315_BP86_def2-SVP_def2J_scf_cas1_ras12i11    
 
 
                   Integrals are discarded if absolute value <: 0.10E-13
                   Integral cutoff threshold is set to       <: 0.10E-15
 
++    Symmetry information:
      ---------------------
 
                    Character Table for C1 
 
                             E  
                    a        1  x, y, xy, Rz, z, xz, Ry, yz, Rx, I
--
 
 
++    Basis set information:
      ----------------------
 
 
      Basis set label: C.ANO-S...4S3P1D......
 
      Electronic valence basis set:
      ------------------
      Associated Effective Charge   6.000000 au
      Associated Actual Charge      6.000000 au
      Nuclear Model: Point charge
 
      Shell  nPrim  nBasis  Cartesian Spherical Contaminant
         s      10       4        X                  
         p       6       3        X                  
         d       3       1                 X         
 
 
      Basis set label: N.ANO-S...4S3P1D......
 
      Electronic valence basis set:
      ------------------
      Associated Effective Charge   7.000000 au
      Associated Actual Charge      7.000000 au
      Nuclear Model: Point charge
 
      Shell  nPrim  nBasis  Cartesian Spherical Contaminant
         s      10       4        X                  
         p       6       3        X                  
         d       3       1                 X         
 
 
      Basis set label: O.ANO-S...4S3P1D......
 
      Electronic valence basis set:
      ------------------
      Associated Effective Charge   8.000000 au
      Associated Actual Charge      8.000000 au
      Nuclear Model: Point charge
 
      Shell  nPrim  nBasis  Cartesian Spherical Contaminant
         s      10       4        X                  
         p       6       3        X                  
         d       3       1                 X         
 
 
      Basis set label: H.ANO-S...2S1P......
 
      Electronic valence basis set:
      ------------------
      Associated Effective Charge   1.000000 au
      Associated Actual Charge      1.000000 au
      Nuclear Model: Point charge
 
      Shell  nPrim  nBasis  Cartesian Spherical Contaminant
         s       7       2        X                  
         p       3       1        X                  
--
 
 
++    Molecular structure info:
      -------------------------
 
                    ************************************************ 
                    **** Cartesian Coordinates / Bohr, Angstrom **** 
                    ************************************************ 
 
     Center  Label                x              y              z                     x              y              z
        1      C1              -0.219320      -0.341230       0.186892             -0.116059      -0.180571       0.098899
        2      C3               3.780868       2.230712      -0.277909              2.000749       1.180442      -0.147063
        3      C4               2.497577       4.455882      -1.671506              1.321661       2.357951      -0.884523
        4      C6              -0.207787       5.708521      -5.243950             -0.109956       3.020819      -2.774979
        5      C19             -1.193855      -3.050056       0.418244             -0.631761      -1.614020       0.221325
        6      N2               2.373171      -0.126217       0.004688              1.255828      -0.066791       0.002481
        7      N5               1.272494       3.850102      -3.873358              0.673375       2.037386      -2.049693
        8      O7              -1.645974       1.490060       0.222462             -0.871012       0.788506       0.117722
        9      O8               2.823814       6.625342      -0.917842              1.494298       3.505980      -0.485701
       10      H9              -2.799484      -3.295847      -0.900524             -1.481423      -1.744087      -0.476537
       11      H10             -1.950156      -3.325175       2.353172             -1.031978      -1.759607       1.245245
       12      H11              0.241121      -4.527780       0.041519              0.127596      -2.395998       0.021971
       13      H12              3.399906      -1.758955      -0.017792              1.799153      -0.930799      -0.009415
       14      H13              4.315088       3.034838       1.586873              2.283446       1.605967       0.839737
       15      H14              5.564391       1.796022      -1.294837              2.944549       0.950414      -0.685198
       16      H15              0.842043       1.988674      -4.142669              0.445590       1.052361      -2.192206
       17      H16             -2.260211       5.530930      -4.828787             -1.196052       2.926842      -2.555284
       18      H17              0.429805       7.599405      -4.622179              0.227443       4.021432      -2.445952
       19      H18              0.085591       5.530301      -7.312673              0.045293       2.926509      -3.869700
 
                    ************************************************* 
                    **** InterNuclear Distances / Bohr, Angstrom **** 
                    ************************************************* 
 
     Atom centers         Bohr        Angstrom
   13 H12       6 N2      1.928867        1.020712
   16 H15       7 N5      1.929437        1.021014
   18 H17       4 C6      2.090112        1.106039
   10 H9        5 C19     2.092273        1.107183
   12 H11       5 C19     2.093979        1.108086
   11 H10       5 C19     2.095621        1.108955
   19 H18       4 C6      2.097009        1.109689
   15 H14       2 C3      2.098584        1.110523
   14 H13       2 C3      2.099862        1.111199
   17 H16       4 C6      2.101510        1.112071
    9 O8        3 C4      2.319698        1.227531
    8 O7        1 C1      2.321687        1.228584
    7 N5        3 C4      2.591515        1.371371
    6 N2        1 C1      2.607765        1.379970
    7 N5        4 C6      2.742895        1.451478
    6 N2        2 C3      2.759816        1.460432
    5 C19       1 C1      2.888076        1.528304
    3 C4        2 C3      2.922384        1.546459
   11 H10      10 H9      3.362850        1.779543
   15 H14      14 H13     3.376340        1.786682
   18 H17      17 H16     3.399627        1.799005
   12 H11      11 H10     3.404658        1.801667
   19 H18      18 H17     3.411515        1.805296
   12 H11      10 H9      3.413266        1.806223
   19 H18      17 H16     3.416501        1.807934
   16 H15       3 C4      3.864525        2.045018
   13 H12       1 C1      3.892382        2.059760
   18 H17       7 N5      3.915116        2.071790
   15 H14       6 N2      3.945587        2.087915
   14 H13       3 C4      3.992461        2.112719
   19 H18       7 N5      4.007579        2.120720
   13 H12       2 C3      4.016247        2.125306
   16 H15       4 C6      4.018983        2.126754
   17 H16       7 N5      4.027162        2.131082
   14 H13       6 N2      4.033189        2.134272
   10 H9        1 C1      4.070563        2.154049
   11 H10       1 C1      4.073388        2.155544
   15 H14       3 C4      4.077018        2.157465
   13 H12      12 H11     4.200932        2.223038
   12 H11       1 C1      4.214302        2.230113
    8 O7        6 N2      4.337431        2.295269
    9 O8        7 N5      4.340925        2.297119
   15 H14      13 H12     4.353585        2.303818
   18 H17       9 O8      4.516879        2.390229
    9 O8        2 C3      4.542933        2.404016
    8 O7        5 C19     4.566771        2.416631
   14 H13       9 O8      4.624847        2.447364
    6 N2        5 C19     4.630717        2.450470
    4 C6        3 C4      4.653005        2.462264
    7 N5        2 C3      4.673502        2.473111
   17 H16      16 H15     4.758394        2.518034
    2 C3        1 C1      4.778329        2.528583
   18 H17       3 C4      4.781621        2.530325
   13 H12       5 C19     4.791630        2.535621
   19 H18      16 H15     4.812927        2.546891
   16 H15       2 C3      4.861239        2.572457
    6 N2        3 C4      4.880649        2.582728
   12 H11       6 N2      4.890884        2.588145
   16 H15       6 N2      4.900785        2.593383
   16 H15       1 C1      5.029915        2.661716
   16 H15       8 O7      5.049081        2.671858
   10 H9        8 O7      5.049415        2.672035
   14 H13      13 H12     5.137408        2.718599
   11 H10       8 O7      5.274367        2.791075
    9 O8        4 C6      5.361565        2.837218
   15 H14       7 N5      5.411875        2.863841
    8 O7        3 C4      5.436196        2.876711
    8 O7        2 C3      5.499959        2.910453
   16 H15      15 H14     5.517956        2.919976
    8 O7        7 N5      5.555448        2.939816
   15 H14       9 O8      5.565538        2.945156
   18 H17      16 H15     5.646253        2.987868
    7 N5        6 N2      5.662318        2.996370
--
 
 
            Nuclear Potential Energy            465.75739127 au
 
 
      Basis set specifications :
      Symmetry species         a  
      Basis functions          212
 
 
      Input file to MOLDEN was generated!
 
--- Stop Module: seward at Tue Jun 10 21:41:08 2025 /rc=_RC_ALL_IS_WELL_ ---
*** files: orca_geometry_optimisation_330_315_BP86_def2-SVP_def2J_scf_cas1_ras12i11_cas8.GssOrb
           orca_geometry_optimisation_330_315_BP86_def2-SVP_def2J_scf_cas1_ras12i11_cas8.guessorb.molden xmldump
    saved to directory /home/pcaah4/diamide_project
--- Module seward spent 1 minute 51 seconds ---

*** symbolic link created: INPORB -> orca_geometry_optimisation_330_315_BP86_def2-SVP_def2J_scf_cas1_ras12i11_cas8.GssOrb
--- Start Module: rasscf at Tue Jun 10 21:41:09 2025 ---
 
()()()()()()()()()()()()()()()()()()()()()()()()()()()()()()()()()()()()()()()()()()()()()()()()()()

                                              &RASSCF

                                   only a single process is used
                       available to each process: 2.0 GB of memory, 1 thread
                                            pid: 3141140
()()()()()()()()()()()()()()()()()()()()()()()()()()()()()()()()()()()()()()()()()()()()()()()()()()
 
 
      Header of the ONEINT file:
      --------------------------
      orca_geometry_optimisation_330_315_BP86_def2-SVP_def2J_scf_cas1_ras12i11
      Integrals generated by Gateway/Seward, Tue Jun 10 21:39:17 2025
 
 
      OrdInt status: non-squared
 
 
      Cartesian coordinates in Angstrom:
      -----------------------------------------------------
      No.  Label        X            Y            Z        
      -----------------------------------------------------
       1   C1        -0.11605900  -0.18057100   0.09889900
       2   C3         2.00074900   1.18044200  -0.14706300
       3   C4         1.32166100   2.35795100  -0.88452300
       4   C6        -0.10995600   3.02081900  -2.77497900
       5   C19       -0.63176100  -1.61402000   0.22132500
       6   N2         1.25582800  -0.06679100   0.00248100
       7   N5         0.67337500   2.03738600  -2.04969300
       8   O7        -0.87101200   0.78850600   0.11772200
       9   O8         1.49429800   3.50598000  -0.48570100
      10   H9        -1.48142300  -1.74408700  -0.47653700
      11   H10       -1.03197800  -1.75960700   1.24524500
      12   H11        0.12759600  -2.39599800   0.02197100
      13   H12        1.79915300  -0.93079900  -0.00941500
      14   H13        2.28344600   1.60596700   0.83973700
      15   H14        2.94454900   0.95041400  -0.68519800
      16   H15        0.44559000   1.05236100  -2.19220600
      17   H16       -1.19605200   2.92684200  -2.55528400
      18   H17        0.22744300   4.02143200  -2.44595200
      19   H18        0.04529300   2.92650900  -3.86970000
      -----------------------------------------------------
      Nuclear repulsion energy =  465.75739127
 
++    Wave function specifications:
      -----------------------------
 
      Number of closed shell electrons          58
      Number of electrons in active shells      12
      Max number of holes in RAS1 space          0
      Max nr of electrons in RAS3 space          0
      Number of inactive orbitals               29
      Number of active orbitals                  8
      Number of secondary orbitals             172
      Spin quantum number                      0.0
      State symmetry                             1
--
 
++    Orbital specifications:
      -----------------------
 
      Symmetry species                           1
                                                 a
      Frozen orbitals                            0
      Inactive orbitals                         29
      Active orbitals                            8
      RAS1 orbitals                              0
      RAS2 orbitals                              8
      RAS3 orbitals                              0
      Secondary orbitals                       172
      Deleted orbitals                           3
      Number of basis functions                212
--
 
++    CI expansion specifications:
      ----------------------------
 
      Number of CSFs                           336
      Number of determinants                   406
      Number of root(s) required                 7
      Root chosen for geometry opt.              7
      CI roots used                              1     2     3     4     5     6     7
      weights                                0.143 0.143 0.143 0.143 0.143 0.143 0.143
      highest root included in the CI            7
      max. size of the explicit Hamiltonian    200
--
 
++    Optimization specifications:
      ----------------------------
 
      RASSCF algorithm: Conventional
      Maximum number of macro iterations        64
      Maximum number of SX iterations           25
      Threshold for RASSCF energy            0.100E-07
      Threshold for max MO rotation          0.100E+00
      Threshold for max BLB element          0.100E-03
      Level shift parameter                  0.300E+00
      Make Quasi-Newton update
--
 
      The MO-coefficients are taken from the file:
      /home/pcaah4/diamide_project/cas/ras12i11/ras_orb/orca_geometry_optimisation_330_315_BP86_def2-SVP_def2J_scf_cas1_ras12i11.RasOrb                                                                                                                               
      Title: RASSCF average (pseudo-natural) orbitals                                      
 
      Total molecular charge    0.00
 
      Molecular orbitals exchanged:
        In symmetry  1 :  36  37
        In symmetry  1 :  37  39
 
 
      ************************************************************************************************************************
      *                                                                                                                      *
      *                                            Wave function control section                                             *
      *                                                                                                                      *
      ************************************************************************************************************************
 
 
                                         RASSCF iterations: Energy and convergence statistics
                                         ----------------------------------------------------
 
      Iter CI   SX   CI       RASSCF       Energy    max ROT     max BLB   max BLB  Level Ln srch  Step   QN   Walltime
          iter iter root      energy       change     param      element    value   shift minimum  type update hh:mm:ss
 Nr of preliminary CI iterations:   4
        1   1   25    0  -453.68480187    0.00E+00   0.68E-01   25  72 1  0.16E-01*  0.15   0.00    SX    NO    0:00:13
        2   6   19    0  -453.69945307   -0.15E-01*  0.42E-01   36  38 1 -0.70E-02*  0.14   0.00    SX    NO    0:00:07
        3   4   11    0  -453.70162373   -0.22E-02* -0.24E-01   36  38 1 -0.40E-02*  0.14   0.00    SX    NO    0:00:06
        4   6   11    0  -453.70252795   -0.90E-03*  0.15E-01   36  38 1 -0.24E-02*  0.14   0.00    SX    NO    0:00:06
        5   5   11    0  -453.70276918   -0.24E-03*  0.25E-01   36  38 1 -0.15E-02*  0.15   1.48    QN   YES    0:00:06
        6   7   10    0  -453.70294845   -0.18E-03*  0.12E-02   22  99 1  0.85E-03*  0.15   0.93    QN   YES    0:00:06
        7   4    9    0  -453.70294975   -0.13E-05* -0.73E-03   20  99 1 -0.92E-03*  0.15   0.46    SX   YES    0:00:07
        8   9    9    0  -453.70296384   -0.14E-04* -0.12E-02   32  40 1  0.33E-03*  0.15   0.89    QN   YES    0:00:07
        9   3    8    0  -453.70296537   -0.15E-05* -0.11E-02   22  99 1 -0.21E-03*  0.15   1.04    QN   YES    0:00:06
       10   7    8    0  -453.70296617   -0.80E-06* -0.37E-03   32  40 1 -0.15E-03*  0.15   0.94    QN   YES    0:00:07
       11   3    8    0  -453.70296649   -0.32E-06* -0.27E-03   32  40 1 -0.55E-04   0.15   1.33    QN   YES    0:00:06
       12   4    7    0  -453.70296658   -0.91E-07* -0.78E-04   33  39 1  0.16E-04   0.15   1.03    QN   YES    0:00:06
       13   1    6    0  -453.70296659   -0.10E-07  -0.21E-03   20  99 1 -0.11E-04   0.15   1.35    QN   YES    0:00:06
      Convergence after 13 iterations
       14   3    6    0  -453.70296659    0.14E-08  -0.21E-03   33  39 1 -0.16E-04   0.15   1.35    QN   YES    0:00:07
 
      ************************************************************************************************************************
                                                      Wave function printout:
                       occupation of active orbitals, and spin coupling of open shells (u,d: Spin up or down)
      ************************************************************************************************************************
 
      Note: transformation to natural orbitals
      has been made, which may change the order of the CSFs.
 
      printout of CI-coefficients larger than  0.05 for root  1
      energy=    -453.952927
      conf/sym  11111111     Coeff  Weight
             1  22222200  -0.95200 0.90631
             6  22220220   0.08059 0.00649
             7  22222u0d   0.10627 0.01129
            15  22222002   0.09138 0.00835
            44  22u2220d   0.12647 0.01599
            64  2u22220d   0.07867 0.00619
            73  2u222d02   0.07400 0.00548
            81  u22222d0  -0.11364 0.01291
            83  u222d220   0.05328 0.00284
           175  20222202   0.09340 0.00872
           191  02222220   0.07718 0.00596
 
      printout of CI-coefficients larger than  0.05 for root  2
      energy=    -453.743377
      conf/sym  11111111     Coeff  Weight
             7  22222u0d   0.07736 0.00599
            21  222u22d0  -0.05299 0.00281
            24  222u220d  -0.94811 0.89892
            32  222u022d   0.08203 0.00673
            33  222u2d02  -0.13321 0.01774
           115  22ud2202   0.06961 0.00485
           125  2u2d2202  -0.17228 0.02968
           132  u22d22ud  -0.06045 0.00365
           213  u22u22dd   0.10048 0.01010
           269  022u222d  -0.07735 0.00598
 
      printout of CI-coefficients larger than  0.05 for root  3
      energy=    -453.740625
      conf/sym  11111111     Coeff  Weight
             3  2222u2d0  -0.28753 0.08267
             6  22220220   0.07390 0.00546
            41  22u222d0   0.90079 0.81142
            43  22u2d220  -0.13054 0.01704
            45  22u22dud  -0.05395 0.00291
            47  22u22udd   0.07912 0.00626
            55  22u220d2   0.08778 0.00771
           141  22022220  -0.07617 0.00580
           142  220222ud  -0.10242 0.01049
           161  u2d22220  -0.11742 0.01379
           219  2uu222dd  -0.07886 0.00622
           222  2uu22dd2  -0.05907 0.00349
           294  20u222d2  -0.08718 0.00760
 
      printout of CI-coefficients larger than  0.05 for root  4
      energy=    -453.635298
      conf/sym  11111111     Coeff  Weight
             1  22222200  -0.05454 0.00297
             2  22222ud0   0.42569 0.18122
             3  2222u2d0   0.75823 0.57491
            12  2222uudd   0.07417 0.00550
            18  2222u0d2   0.07739 0.00599
            21  222u22d0  -0.25087 0.06294
            41  22u222d0   0.23068 0.05321
            44  22u2220d  -0.08179 0.00669
            48  22u2u2dd  -0.06392 0.00409
            65  2u222dud   0.05371 0.00288
            67  2u222udd  -0.06461 0.00417
            68  2u22u2dd  -0.06188 0.00383
            77  2u22udd2  -0.05212 0.00272
            81  u22222d0  -0.07774 0.00604
            83  u222d220  -0.18362 0.03372
           161  u2d22220  -0.05586 0.00312
           176  20222ud2  -0.05023 0.00252
           177  2022u2d2  -0.07307 0.00534
 
      printout of CI-coefficients larger than  0.05 for root  5
      energy=    -453.623534
      conf/sym  11111111     Coeff  Weight
             1  22222200   0.07780 0.00605
             2  22222ud0   0.27369 0.07491
             3  2222u2d0  -0.08606 0.00741
             7  22222u0d   0.86240 0.74373
            14  22220u2d   0.07612 0.00579
            15  22222002  -0.17081 0.02918
            24  222u220d   0.07025 0.00493
            44  22u2220d  -0.12605 0.01589
            64  2u22220d  -0.09727 0.00946
            73  2u222d02   0.21440 0.04597
            85  u2222dud   0.06219 0.00387
            87  u2222udd  -0.10177 0.01036
           175  20222202   0.09720 0.00945
           193  02222u2d   0.07052 0.00497
 
      printout of CI-coefficients larger than  0.05 for root  6
      energy=    -453.616474
      conf/sym  11111111     Coeff  Weight
             2  22222ud0  -0.77719 0.60403
             3  2222u2d0   0.41519 0.17238
             7  22222u0d   0.27264 0.07434
            21  222u22d0   0.05689 0.00324
            41  22u222d0   0.14624 0.02139
            44  22u2220d  -0.06949 0.00483
            45  22u22dud  -0.16944 0.02871
            65  2u222dud  -0.11531 0.01330
            67  2u222udd   0.13892 0.01930
            73  2u222d02   0.06791 0.00461
            83  u222d220  -0.08602 0.00740
           152  2ud222ud  -0.05667 0.00321
           176  20222ud2   0.09917 0.00983
 
      printout of CI-coefficients larger than  0.05 for root  7
      energy=    -453.608531
      conf/sym  11111111     Coeff  Weight
             2  22222ud0   0.16311 0.02661
             3  2222u2d0   0.18476 0.03414
             7  22222u0d  -0.06246 0.00390
            21  222u22d0   0.85417 0.72960
            24  222u220d  -0.05170 0.00267
            25  222u2dud   0.15984 0.02555
            27  222u2udd  -0.23602 0.05571
            41  22u222d0   0.06761 0.00457
           112  22ud22ud   0.18388 0.03381
           131  u22d2220  -0.05762 0.00332
           201  22uu22dd   0.21151 0.04474
           203  22uud22d  -0.05328 0.00284
           250  220u22d2  -0.05328 0.00284
           262  202u22d2  -0.06852 0.00469
 
      Natural orbitals and occupation numbers for root  1
      sym 1:   1.950384   1.962059   1.999403   1.999803   1.995503   1.996329   0.042525   0.053995
 
      Natural orbitals and occupation numbers for root  2
      sym 1:   1.999901   1.960851   1.999496   1.007886   1.995621   1.999742   0.043707   0.992795
 
      Natural orbitals and occupation numbers for root  3
      sym 1:   1.999932   1.995580   1.006979   1.999684   1.999756   1.948593   0.993826   0.055651
 
      Natural orbitals and occupation numbers for root  4
      sym 1:   1.976359   1.989184   1.980769   1.992411   1.041284   1.931720   1.002273   0.086000
 
      Natural orbitals and occupation numbers for root  5
      sym 1:   1.963337   1.954674   1.992982   1.999335   1.985861   1.168764   0.061160   0.873887
 
      Natural orbitals and occupation numbers for root  6
      sym 1:   1.991250   1.905247   1.975774   1.996973   1.963407   1.054922   0.978960   0.133467
 
      Natural orbitals and occupation numbers for root  7
      sym 1:   1.998388   1.988772   1.976014   1.062152   1.984020   1.946509   0.963421   0.080725
 
      ************************************************************************************************************************
      *                                                                                                                      *
      *                                                    Final results                                                     *
      *                                                                                                                      *
      ************************************************************************************************************************
 
 
++    Wave function specifications:
      -----------------------------
 
      Number of closed shell electrons          58
      Number of electrons in active shells      12
      Max number of holes in RAS1 space          0
      Max nr of electrons in RAS3 space          0
      Number of inactive orbitals               29
      Number of active orbitals                  8
      Number of secondary orbitals             172
      Spin quantum number                      0.0
      State symmetry                             1
--
 
++    Orbital specifications:
      -----------------------
 
      Symmetry species                           1
                                                 a
      Frozen orbitals                            0
      Inactive orbitals                         29
      Active orbitals                            8
      RAS1 orbitals                              0
      RAS2 orbitals                              8
      RAS3 orbitals                              0
      Secondary orbitals                       172
      Deleted orbitals                           3
      Number of basis functions                212
--
 
++    CI expansion specifications:
      ----------------------------
 
      Number of CSFs                           336
      Number of determinants                   406
      Number of root(s) required                 7
      CI roots used                              1     2     3     4     5     6     7
      weights                                0.143 0.143 0.143 0.143 0.143 0.143 0.143
      highest root included in the CI            7
      Root passed to geometry opt.               7
--
 
++    Final optimization conditions:
      ------------------------------
 
      Average CI energy                            -453.70296659
      RASSCF energy for state  7                   -453.60853112
      Super-CI energy                                -0.00000000
      RASSCF energy change                            0.00000000
      Max change in MO coefficients              -0.207E-03
      Max non-diagonal density matrix element    -0.208E-03
      Maximum BLB matrix element                 -0.156E-04
      (orbital pair  33,  39 in symmetry   1)
      Norm of electronic gradient            0.321E+00
--
 
 
      Final state energy(ies):
      ------------------------
 
::    RASSCF root number  1 Total energy:   -453.95292745
::    RASSCF root number  2 Total energy:   -453.74337651
::    RASSCF root number  3 Total energy:   -453.74062482
::    RASSCF root number  4 Total energy:   -453.63529837
::    RASSCF root number  5 Total energy:   -453.62353434
::    RASSCF root number  6 Total energy:   -453.61647353
::    RASSCF root number  7 Total energy:   -453.60853112
 
++    Molecular orbitals:
      -------------------
 
      Pseudonatural active orbitals and approximate occupation numbers
 
 
 
 
      Molecular orbitals for symmetry species 1: a  
 
 
      Orbital                 1         2         3         4         5         6         7         8         9        10
      Energy           -20.5953  -20.5212  -15.6282  -15.5923  -11.3378  -11.2956  -11.2833  -11.2788  -11.2273   -1.4210
      Occ. No.           2.0000    2.0000    2.0000    2.0000    2.0000    2.0000    2.0000    2.0000    2.0000    2.0000
 
     1 C1     1s        -0.0001    0.0003   -0.0000    0.0002   -0.0001   -0.0008   -0.0000    1.0000   -0.0058   -0.0009
     2 C1     2s        -0.0005    0.0008   -0.0004    0.0009   -0.0007   -0.0012   -0.0003    0.0024   -0.0002    0.0298
     3 C1     3s        -0.0004   -0.0006   -0.0004    0.0004   -0.0004   -0.0009   -0.0002   -0.0000   -0.0005    0.0093
     4 C1     4s        -0.0001   -0.0004   -0.0001    0.0001   -0.0001   -0.0003   -0.0001    0.0014   -0.0002    0.0037
     5 C1     2px       -0.0002   -0.0011    0.0003    0.0017    0.0001   -0.0004    0.0002    0.0016   -0.0002    0.0010
     6 C1     3px       -0.0002   -0.0006    0.0003    0.0014   -0.0001   -0.0005    0.0002    0.0015    0.0002    0.0037
     7 C1     4px       -0.0000    0.0002   -0.0000   -0.0000   -0.0001   -0.0002    0.0000    0.0005    0.0002    0.0019
     8 C1     2py        0.0002    0.0031    0.0003    0.0003   -0.0004    0.0002   -0.0003    0.0009   -0.0007    0.0175
     9 C1     3py        0.0000    0.0022    0.0003    0.0002   -0.0004   -0.0002   -0.0004    0.0010    0.0002    0.0158
    10 C1     4py       -0.0001   -0.0003    0.0000   -0.0001   -0.0000   -0.0003   -0.0001    0.0007    0.0003    0.0057
    11 C1     2pz        0.0000   -0.0001    0.0002   -0.0003    0.0002   -0.0001   -0.0001   -0.0002   -0.0001    0.0001
    12 C1     3pz        0.0000   -0.0001    0.0002   -0.0003    0.0002   -0.0002   -0.0000   -0.0006   -0.0002   -0.0015
    13 C1     4pz        0.0000   -0.0000    0.0000    0.0000    0.0000   -0.0000    0.0000   -0.0001   -0.0001   -0.0013
    14 C1     3d2-      -0.0000    0.0002   -0.0000    0.0001    0.0000    0.0000    0.0000   -0.0004    0.0001   -0.0012
    15 C1     3d1-      -0.0000   -0.0000    0.0000   -0.0000   -0.0000   -0.0000   -0.0000    0.0000   -0.0000    0.0003
    16 C1     3d0       -0.0000   -0.0000    0.0000    0.0001   -0.0000   -0.0001    0.0000   -0.0003    0.0001   -0.0015
    17 C1     3d1+      -0.0000   -0.0000    0.0000    0.0000    0.0000   -0.0000    0.0000   -0.0000    0.0000   -0.0002
    18 C1     3d2+      -0.0000    0.0001    0.0000   -0.0002    0.0000    0.0000   -0.0000    0.0001   -0.0001    0.0003
    19 C3     1s         0.0001    0.0001   -0.0000    0.0004    0.0065    0.9995   -0.0001    0.0006    0.0000   -0.0118
    20 C3     2s         0.0008    0.0003   -0.0002    0.0024   -0.0003   -0.0012    0.0003   -0.0004    0.0002    0.0151
    21 C3     3s         0.0005    0.0001   -0.0001    0.0012   -0.0004   -0.0024    0.0001   -0.0004    0.0001   -0.0314
    22 C3     4s         0.0001   -0.0000   -0.0000    0.0001   -0.0000    0.0007   -0.0000   -0.0002   -0.0000   -0.0039
    23 C3     2px       -0.0001    0.0001   -0.0001   -0.0003    0.0000    0.0002   -0.0001    0.0008    0.0002   -0.0033
    24 C3     3px        0.0000    0.0002   -0.0000    0.0002    0.0002    0.0002   -0.0001    0.0010    0.0002    0.0077
    25 C3     4px        0.0001    0.0001    0.0001    0.0003   -0.0000   -0.0006   -0.0000    0.0002    0.0001   -0.0035
    26 C3     2py       -0.0013   -0.0000    0.0008   -0.0006    0.0005   -0.0005   -0.0000    0.0004   -0.0002    0.0234
    27 C3     3py       -0.0014    0.0001    0.0009    0.0001    0.0001   -0.0004   -0.0002    0.0005   -0.0001   -0.0022
    28 C3     4py       -0.0001    0.0001    0.0000    0.0002   -0.0001   -0.0004   -0.0001    0.0001    0.0001    0.0025
    29 C3     2pz       -0.0007   -0.0001    0.0004   -0.0005    0.0002   -0.0001   -0.0002   -0.0003   -0.0002    0.0054
    30 C3     3pz       -0.0005   -0.0001    0.0003   -0.0006    0.0005   -0.0000   -0.0002   -0.0004   -0.0002    0.0114
    31 C3     4pz        0.0001   -0.0000   -0.0000   -0.0000    0.0001   -0.0002    0.0000   -0.0001   -0.0000   -0.0046
    32 C3     3d2-       0.0000    0.0000    0.0000   -0.0000   -0.0001   -0.0001   -0.0000    0.0000    0.0000   -0.0022
    33 C3     3d1-      -0.0000    0.0000    0.0000    0.0000   -0.0000    0.0001   -0.0000    0.0000   -0.0000   -0.0026
    34 C3     3d0        0.0000   -0.0000    0.0000    0.0000   -0.0000    0.0000   -0.0000   -0.0000   -0.0000   -0.0028
    35 C3     3d1+       0.0001   -0.0000    0.0001    0.0000   -0.0001   -0.0001    0.0000   -0.0000   -0.0000   -0.0026
    36 C3     3d2+       0.0001   -0.0000   -0.0001    0.0001    0.0000    0.0000   -0.0000    0.0001   -0.0000   -0.0038
    37 C4     1s         0.0004    0.0000    0.0003   -0.0001    1.0000   -0.0066    0.0002   -0.0000    0.0000   -0.0409
    38 C4     2s         0.0015    0.0003    0.0011   -0.0007    0.0026    0.0007    0.0001   -0.0003    0.0001    0.3423
    39 C4     3s        -0.0001    0.0002    0.0005   -0.0004    0.0001    0.0002    0.0000   -0.0003    0.0001   -0.0163
    40 C4     4s        -0.0003    0.0001    0.0001   -0.0001    0.0013    0.0000   -0.0000   -0.0001   -0.0000    0.0003
    41 C4     2px        0.0006   -0.0005   -0.0012   -0.0003   -0.0005    0.0006   -0.0000   -0.0006   -0.0002    0.0192
    42 C4     3px        0.0005   -0.0007   -0.0011   -0.0003   -0.0009    0.0005    0.0002   -0.0009   -0.0002    0.0025
    43 C4     4px        0.0000   -0.0001   -0.0000   -0.0001   -0.0003    0.0001    0.0002   -0.0002   -0.0001    0.0048
    44 C4     2py        0.0031   -0.0003   -0.0004    0.0004    0.0005   -0.0008    0.0001   -0.0001    0.0000    0.1142
    45 C4     3py        0.0023   -0.0003   -0.0004    0.0004    0.0001   -0.0001   -0.0003    0.0001    0.0001   -0.0614
    46 C4     4py       -0.0003    0.0000   -0.0000    0.0000    0.0004    0.0003   -0.0003    0.0001    0.0000    0.0265
    47 C4     2pz        0.0011   -0.0003   -0.0017   -0.0004   -0.0011    0.0006   -0.0000   -0.0004    0.0001    0.0176
    48 C4     3pz        0.0009   -0.0002   -0.0013   -0.0003   -0.0008    0.0005    0.0004   -0.0005    0.0000   -0.0139
    49 C4     4pz       -0.0001    0.0000    0.0001    0.0000   -0.0004    0.0000    0.0003   -0.0001   -0.0000    0.0065
    50 C4     3d2-      -0.0001   -0.0000   -0.0001    0.0001    0.0002   -0.0000   -0.0000   -0.0000   -0.0000    0.0105
    51 C4     3d1-      -0.0001   -0.0000   -0.0002   -0.0000    0.0004   -0.0001    0.0000   -0.0000   -0.0000    0.0246
    52 C4     3d0        0.0001    0.0000   -0.0001   -0.0000   -0.0001    0.0000    0.0000    0.0000    0.0000   -0.0118
    53 C4     3d1+       0.0001    0.0001   -0.0001    0.0001    0.0003   -0.0001    0.0001    0.0000    0.0000    0.0102
    54 C4     3d2+       0.0001    0.0000    0.0000    0.0001   -0.0004    0.0000   -0.0000    0.0000    0.0000   -0.0329
    55 C6     1s         0.0001    0.0000    0.0003   -0.0001   -0.0002    0.0002    0.9996   -0.0001   -0.0000   -0.0066
    56 C6     2s         0.0005    0.0002    0.0014   -0.0009   -0.0000    0.0005   -0.0004   -0.0006   -0.0003    0.0303
    57 C6     3s         0.0003    0.0001    0.0004   -0.0007   -0.0002    0.0004   -0.0019   -0.0005   -0.0002   -0.0051
    58 C6     4s         0.0001   -0.0000   -0.0001   -0.0002   -0.0002    0.0001    0.0009   -0.0002   -0.0001    0.0010
    59 C6     2px        0.0004    0.0000    0.0003   -0.0001   -0.0002    0.0002    0.0002   -0.0001   -0.0001    0.0040
    60 C6     3px        0.0003    0.0000    0.0000   -0.0001   -0.0003    0.0001   -0.0000   -0.0001   -0.0001   -0.0088
    61 C6     4px       -0.0001    0.0000   -0.0001    0.0000   -0.0001   -0.0001    0.0004   -0.0000    0.0000    0.0023
    62 C6     2py        0.0000   -0.0001   -0.0004    0.0001    0.0000   -0.0001   -0.0001    0.0000   -0.0000   -0.0105
    63 C6     3py        0.0000   -0.0001    0.0000    0.0001   -0.0001   -0.0001    0.0002   -0.0000   -0.0000    0.0019
    64 C6     4py       -0.0000    0.0000    0.0001   -0.0000   -0.0001    0.0000   -0.0005   -0.0000   -0.0000   -0.0008
    65 C6     2pz        0.0000   -0.0000    0.0001   -0.0002   -0.0003    0.0002   -0.0001   -0.0002   -0.0000    0.0239
    66 C6     3pz       -0.0000   -0.0000   -0.0003   -0.0002   -0.0005    0.0001   -0.0001   -0.0003   -0.0001    0.0072
    67 C6     4pz       -0.0000    0.0000   -0.0002    0.0000   -0.0001   -0.0000    0.0004   -0.0000   -0.0000    0.0010
    68 C6     3d2-      -0.0000   -0.0000    0.0001    0.0000    0.0000   -0.0000    0.0001    0.0000    0.0000   -0.0022
    69 C6     3d1-      -0.0000    0.0000   -0.0000    0.0000   -0.0000   -0.0000    0.0001    0.0000   -0.0000   -0.0030
    70 C6     3d0       -0.0000    0.0000    0.0001    0.0000    0.0000   -0.0000    0.0001    0.0000   -0.0000   -0.0007
    71 C6     3d1+       0.0000    0.0000   -0.0001   -0.0000    0.0001    0.0000   -0.0000    0.0000    0.0000    0.0025
    72 C6     3d2+      -0.0000   -0.0000    0.0001   -0.0000    0.0000   -0.0000    0.0000    0.0000    0.0000   -0.0001
    73 C19    1s         0.0000    0.0002    0.0001   -0.0000    0.0000    0.0001   -0.0000    0.0058    0.9999   -0.0003
    74 C19    2s        -0.0000    0.0011    0.0004    0.0001    0.0001    0.0008   -0.0002    0.0005    0.0019    0.0038
    75 C19    3s        -0.0001    0.0007    0.0003    0.0001    0.0000    0.0004   -0.0002    0.0002   -0.0004    0.0041
    76 C19    4s        -0.0001    0.0001    0.0001    0.0000   -0.0000    0.0000   -0.0001    0.0001    0.0012    0.0026
    77 C19    2px        0.0001    0.0007    0.0002   -0.0003    0.0001    0.0003   -0.0000   -0.0002   -0.0001   -0.0021
    78 C19    3px        0.0000    0.0005    0.0002   -0.0002    0.0001    0.0003   -0.0001   -0.0003   -0.0000   -0.0019
    79 C19    4px       -0.0000   -0.0002   -0.0000   -0.0000   -0.0000    0.0000   -0.0000   -0.0001    0.0001    0.0006
    80 C19    2py       -0.0001    0.0001    0.0002    0.0004   -0.0000    0.0002   -0.0000    0.0004   -0.0004    0.0051
    81 C19    3py       -0.0001   -0.0001    0.0001    0.0003   -0.0000    0.0001   -0.0000   -0.0001   -0.0000    0.0040
    82 C19    4py       -0.0000   -0.0001   -0.0000   -0.0001    0.0000   -0.0001    0.0000   -0.0001    0.0003    0.0004
    83 C19    2pz       -0.0001   -0.0001   -0.0002    0.0002   -0.0001    0.0001    0.0000    0.0002    0.0001    0.0006
    84 C19    3pz       -0.0001   -0.0001   -0.0002    0.0002   -0.0001    0.0001    0.0000    0.0003    0.0001    0.0008
    85 C19    4pz       -0.0000    0.0000   -0.0000    0.0000   -0.0000    0.0000   -0.0000    0.0000   -0.0000    0.0001
    86 C19    3d2-       0.0000    0.0001    0.0000   -0.0000   -0.0000    0.0000   -0.0000   -0.0000   -0.0001    0.0002
    87 C19    3d1-      -0.0000   -0.0000   -0.0000   -0.0000   -0.0000   -0.0000    0.0000   -0.0000    0.0000   -0.0000
    88 C19    3d0       -0.0000   -0.0001   -0.0000   -0.0001   -0.0000   -0.0000   -0.0000    0.0001    0.0001    0.0003
    89 C19    3d1+      -0.0000   -0.0000   -0.0000   -0.0000   -0.0000   -0.0000    0.0000    0.0000    0.0000    0.0002
    90 C19    3d2+      -0.0000    0.0001   -0.0000   -0.0000   -0.0000   -0.0000   -0.0000   -0.0001    0.0001   -0.0000
    91 N2     1s        -0.0000    0.0000   -0.0000    0.9998    0.0000    0.0001   -0.0000   -0.0003    0.0000   -0.0009
    92 N2     2s        -0.0002    0.0003   -0.0001   -0.0001    0.0003    0.0018   -0.0000   -0.0005    0.0003    0.0310
    93 N2     3s        -0.0001    0.0002   -0.0001   -0.0015    0.0002    0.0010   -0.0000   -0.0005    0.0002   -0.0007
    94 N2     4s         0.0000    0.0000   -0.0000    0.0005    0.0001    0.0003   -0.0000   -0.0000    0.0000   -0.0009
    95 N2     2px       -0.0006    0.0003    0.0004    0.0002    0.0002    0.0002   -0.0001   -0.0001   -0.0004    0.0028
    96 N2     3px       -0.0009    0.0003    0.0005    0.0000    0.0001   -0.0001   -0.0002    0.0000   -0.0003    0.0049
    97 N2     4px       -0.0001   -0.0000    0.0000   -0.0001   -0.0000   -0.0000   -0.0000   -0.0003    0.0001    0.0002
    98 N2     2py       -0.0000   -0.0015   -0.0000   -0.0005    0.0003    0.0009    0.0001    0.0007   -0.0002    0.0026
    99 N2     3py        0.0000   -0.0018   -0.0001    0.0003    0.0003    0.0009    0.0001    0.0007   -0.0001   -0.0083
   100 N2     4py        0.0000   -0.0000   -0.0000    0.0006   -0.0000    0.0002    0.0000   -0.0001    0.0001   -0.0014
   101 N2     2pz        0.0001    0.0001   -0.0000    0.0001   -0.0001   -0.0001   -0.0000    0.0002    0.0001   -0.0037
   102 N2     3pz        0.0001    0.0002   -0.0001    0.0001   -0.0001   -0.0000   -0.0001    0.0000    0.0001   -0.0029
   103 N2     4pz       -0.0000    0.0000   -0.0000   -0.0001   -0.0000    0.0000   -0.0000   -0.0000   -0.0000    0.0005
   104 N2     3d2-       0.0000    0.0001    0.0000   -0.0002    0.0000   -0.0000    0.0000   -0.0001   -0.0000    0.0001
   105 N2     3d1-       0.0000    0.0000    0.0000    0.0000   -0.0000   -0.0000    0.0000    0.0000   -0.0000   -0.0007
   106 N2     3d0       -0.0000   -0.0000    0.0000    0.0001   -0.0000    0.0001   -0.0000    0.0002   -0.0001   -0.0003
   107 N2     3d1+       0.0000   -0.0000    0.0000    0.0000   -0.0000    0.0000   -0.0000    0.0000   -0.0000   -0.0007
   108 N2     3d2+      -0.0000   -0.0001   -0.0000    0.0000   -0.0000   -0.0000   -0.0000    0.0000    0.0000   -0.0001
   109 N5     1s         0.0002   -0.0001    0.9998    0.0000   -0.0003    0.0000    0.0001    0.0000    0.0000   -0.0175
   110 N5     2s         0.0010   -0.0006   -0.0000    0.0000   -0.0003    0.0002    0.0017    0.0000    0.0002    0.1116
   111 N5     3s         0.0007   -0.0005   -0.0014    0.0001   -0.0004    0.0002    0.0010    0.0000    0.0001   -0.0464
   112 N5     4s         0.0002   -0.0001    0.0005    0.0000    0.0000    0.0000    0.0004    0.0000    0.0000   -0.0110
   113 N5     2px        0.0000    0.0002   -0.0002   -0.0003    0.0002    0.0001   -0.0007   -0.0000   -0.0000    0.0159
   114 N5     3px        0.0001    0.0003    0.0000   -0.0004   -0.0001    0.0000   -0.0007    0.0000    0.0000    0.0007
   115 N5     4px       -0.0000    0.0001   -0.0002   -0.0000    0.0001   -0.0001   -0.0001    0.0000    0.0000    0.0041
   116 N5     2py       -0.0015   -0.0001   -0.0010    0.0003    0.0001   -0.0003    0.0005    0.0001   -0.0000    0.0436
   117 N5     3py       -0.0016   -0.0001   -0.0007    0.0005   -0.0002   -0.0003    0.0005    0.0003    0.0001    0.0135
   118 N5     4py        0.0000   -0.0000    0.0003    0.0001   -0.0001    0.0001    0.0002    0.0001    0.0001   -0.0037
   119 N5     2pz        0.0001   -0.0000    0.0001   -0.0003    0.0001    0.0002   -0.0005   -0.0002   -0.0001    0.0131
   120 N5     3pz        0.0001    0.0001    0.0001   -0.0004    0.0003    0.0002   -0.0002   -0.0001   -0.0002   -0.0280
   121 N5     4pz       -0.0001    0.0001    0.0004   -0.0000    0.0003   -0.0000    0.0001    0.0000   -0.0000    0.0032
   122 N5     3d2-      -0.0000    0.0000    0.0001    0.0000    0.0001    0.0000    0.0000    0.0000    0.0000    0.0017
   123 N5     3d1-      -0.0001   -0.0000    0.0001    0.0000    0.0001    0.0000   -0.0000    0.0000   -0.0000    0.0048
   124 N5     3d0       -0.0000   -0.0000   -0.0001   -0.0000   -0.0000   -0.0000   -0.0000   -0.0000   -0.0000    0.0017
   125 N5     3d1+       0.0000    0.0000   -0.0000    0.0000   -0.0001    0.0000   -0.0001    0.0000    0.0000    0.0030
   126 N5     3d2+      -0.0000   -0.0000   -0.0001    0.0000    0.0001   -0.0000    0.0000   -0.0000   -0.0000    0.0005
   127 O7     1s        -0.0000    0.9997    0.0000    0.0000    0.0000   -0.0000    0.0000   -0.0002    0.0001   -0.0017
   128 O7     2s        -0.0001   -0.0014    0.0000    0.0001    0.0003   -0.0002    0.0001    0.0006    0.0003    0.0278
   129 O7     3s        -0.0000   -0.0014    0.0000    0.0000    0.0002   -0.0001    0.0000    0.0000    0.0003   -0.0034
   130 O7     4s        -0.0000    0.0001    0.0000   -0.0000    0.0001   -0.0000    0.0000    0.0000    0.0001   -0.0008
   131 O7     2px       -0.0001    0.0001   -0.0001   -0.0003    0.0001   -0.0001   -0.0001    0.0005    0.0001    0.0081
   132 O7     3px       -0.0002   -0.0004   -0.0001   -0.0004    0.0001   -0.0000   -0.0001   -0.0001    0.0001    0.0030
   133 O7     4px       -0.0001    0.0009   -0.0000   -0.0001   -0.0000    0.0000   -0.0000    0.0000   -0.0000    0.0015
   134 O7     2py        0.0000   -0.0003   -0.0002   -0.0002   -0.0002    0.0000   -0.0001   -0.0008   -0.0002    0.0007
   135 O7     3py       -0.0000    0.0003   -0.0003   -0.0002   -0.0003    0.0000   -0.0002   -0.0006   -0.0002    0.0094
   136 O7     4py       -0.0001   -0.0011   -0.0001    0.0000   -0.0001    0.0000   -0.0001   -0.0003    0.0000    0.0027
   137 O7     2pz       -0.0000   -0.0000    0.0001    0.0001    0.0001    0.0000    0.0001    0.0003    0.0000   -0.0034
   138 O7     3pz       -0.0000    0.0000    0.0001    0.0001    0.0001    0.0001    0.0002    0.0001    0.0000   -0.0048
   139 O7     4pz       -0.0000   -0.0000    0.0000    0.0000    0.0000    0.0000    0.0001   -0.0000    0.0000   -0.0014
   140 O7     3d2-       0.0000    0.0001   -0.0000    0.0000    0.0000    0.0000    0.0000   -0.0003   -0.0000   -0.0009
   141 O7     3d1-      -0.0000   -0.0000    0.0000   -0.0000   -0.0000    0.0000    0.0000    0.0000   -0.0000   -0.0000
   142 O7     3d0        0.0000    0.0000    0.0000   -0.0000   -0.0000   -0.0000    0.0000   -0.0001   -0.0000   -0.0005
   143 O7     3d1+      -0.0000   -0.0000   -0.0000   -0.0000   -0.0000    0.0000    0.0000    0.0000   -0.0000   -0.0002
   144 O7     3d2+      -0.0000    0.0000   -0.0000   -0.0001    0.0000   -0.0000    0.0000   -0.0000   -0.0000    0.0001
   145 O8     1s         0.9997    0.0000    0.0000    0.0000   -0.0003    0.0001   -0.0000    0.0000    0.0000   -0.0243
   146 O8     2s        -0.0015    0.0002    0.0002    0.0001    0.0003    0.0003   -0.0003    0.0003    0.0000    0.6891
   147 O8     3s        -0.0014    0.0002    0.0001    0.0000   -0.0001    0.0002   -0.0002    0.0002    0.0000   -0.0348
   148 O8     4s         0.0001    0.0000   -0.0000   -0.0000    0.0000    0.0001   -0.0001    0.0000    0.0000   -0.0138
   149 O8     2px       -0.0001    0.0001    0.0002    0.0000    0.0002   -0.0000    0.0001    0.0001    0.0000   -0.0188
   150 O8     3px        0.0000    0.0002    0.0003    0.0000    0.0002   -0.0001    0.0001    0.0002    0.0001    0.0038
   151 O8     4px       -0.0002    0.0001    0.0001    0.0000    0.0000   -0.0000    0.0000    0.0001    0.0000   -0.0006
   152 O8     2py       -0.0003   -0.0001   -0.0001   -0.0001   -0.0006   -0.0002    0.0001   -0.0001   -0.0000   -0.1362
   153 O8     3py        0.0004   -0.0001    0.0000   -0.0001   -0.0002   -0.0001    0.0000   -0.0001   -0.0000    0.0415
   154 O8     4py       -0.0013    0.0000    0.0001   -0.0000   -0.0003    0.0001   -0.0000    0.0000   -0.0000   -0.0002
   155 O8     2pz       -0.0001   -0.0000    0.0003    0.0001   -0.0004   -0.0001    0.0001    0.0001   -0.0000   -0.0581
   156 O8     3pz        0.0002   -0.0000    0.0003    0.0001    0.0000   -0.0001    0.0001    0.0001   -0.0000    0.0161
   157 O8     4pz       -0.0005   -0.0000    0.0000    0.0000   -0.0000   -0.0000    0.0000    0.0000    0.0000    0.0016
   158 O8     3d2-      -0.0000    0.0000   -0.0000    0.0000    0.0001   -0.0000   -0.0000    0.0000   -0.0000    0.0050
   159 O8     3d1-      -0.0001    0.0000   -0.0000   -0.0000    0.0001    0.0000   -0.0000    0.0000    0.0000    0.0127
   160 O8     3d0        0.0000   -0.0000   -0.0000   -0.0000   -0.0001   -0.0000   -0.0000   -0.0000    0.0000   -0.0069
   161 O8     3d1+       0.0001   -0.0000    0.0000    0.0000   -0.0000    0.0000    0.0000    0.0000    0.0000    0.0018
   162 O8     3d2+       0.0000   -0.0000   -0.0001   -0.0000   -0.0001   -0.0000   -0.0000   -0.0000   -0.0000   -0.0158
   163 H9     1s         0.0000    0.0002    0.0002    0.0002    0.0000   -0.0000    0.0001    0.0002    0.0003    0.0021
   164 H9     2s        -0.0000    0.0001    0.0001    0.0002   -0.0000   -0.0000    0.0000    0.0001   -0.0002    0.0015
   165 H9     2px       -0.0000   -0.0000    0.0000    0.0001   -0.0000   -0.0000    0.0000    0.0001   -0.0000    0.0004
   166 H9     2py        0.0000   -0.0001    0.0000   -0.0000    0.0000   -0.0000    0.0000    0.0000    0.0000   -0.0000
   167 H9     2pz        0.0000    0.0000    0.0000   -0.0000    0.0000   -0.0000   -0.0000    0.0000   -0.0001    0.0001
   168 H10    1s         0.0001    0.0003    0.0002   -0.0000   -0.0000   -0.0002   -0.0000   -0.0001    0.0003    0.0028
   169 H10    2s         0.0001    0.0002    0.0001   -0.0001   -0.0000   -0.0001   -0.0000    0.0000   -0.0003    0.0020
   170 H10    2px       -0.0000   -0.0000   -0.0000    0.0000   -0.0000   -0.0000   -0.0000    0.0000   -0.0000    0.0003
   171 H10    2py        0.0000   -0.0000   -0.0000   -0.0000   -0.0000   -0.0000   -0.0000    0.0001    0.0000    0.0001
   172 H10    2pz        0.0000   -0.0000   -0.0000   -0.0000    0.0000    0.0000    0.0000   -0.0000    0.0001   -0.0004
   173 H11    1s        -0.0001   -0.0003   -0.0001    0.0004   -0.0001   -0.0001   -0.0000    0.0003    0.0002    0.0074
   174 H11    2s        -0.0001   -0.0001   -0.0001    0.0004   -0.0001   -0.0000   -0.0000    0.0002   -0.0003    0.0046
   175 H11    2px        0.0000   -0.0000   -0.0000   -0.0001    0.0000    0.0000    0.0000   -0.0000    0.0001   -0.0007
   176 H11    2py       -0.0000   -0.0000   -0.0000    0.0000   -0.0000    0.0000   -0.0000    0.0001   -0.0001    0.0006
   177 H11    2pz       -0.0000   -0.0000    0.0000   -0.0000   -0.0000   -0.0000    0.0000   -0.0000   -0.0000    0.0002
   178 H12    1s         0.0001   -0.0010    0.0001   -0.0003    0.0002    0.0001   -0.0001    0.0006   -0.0002   -0.0007
   179 H12    2s         0.0000   -0.0006    0.0001   -0.0002    0.0001    0.0001   -0.0000    0.0003   -0.0001   -0.0037
   180 H12    2px        0.0000    0.0000   -0.0000    0.0003   -0.0000    0.0000    0.0000   -0.0002    0.0000   -0.0003
   181 H12    2py       -0.0000   -0.0000    0.0000   -0.0004    0.0000    0.0000   -0.0000    0.0000   -0.0000    0.0007
   182 H12    2pz       -0.0000   -0.0000   -0.0000   -0.0000   -0.0000    0.0000    0.0000    0.0000    0.0000    0.0002
   183 H13    1s         0.0005    0.0004   -0.0002   -0.0002   -0.0001    0.0009   -0.0001   -0.0003    0.0001    0.0104
   184 H13    2s         0.0004    0.0003   -0.0001   -0.0000   -0.0001    0.0001   -0.0001   -0.0002    0.0001   -0.0035
   185 H13    2px        0.0000   -0.0000   -0.0000    0.0000   -0.0000   -0.0001    0.0000    0.0000   -0.0000   -0.0005
   186 H13    2py       -0.0000   -0.0000    0.0000    0.0000    0.0000   -0.0001   -0.0000    0.0001    0.0000    0.0002
   187 H13    2pz       -0.0000   -0.0000    0.0000   -0.0001   -0.0001   -0.0001    0.0000    0.0000   -0.0000   -0.0008
   188 H14    1s        -0.0003    0.0001    0.0005   -0.0009    0.0002    0.0005   -0.0001   -0.0005   -0.0002    0.0164
   189 H14    2s        -0.0002    0.0000    0.0002   -0.0005    0.0002   -0.0001   -0.0001   -0.0004   -0.0001    0.0041
   190 H14    2px        0.0000   -0.0000   -0.0000    0.0000   -0.0001    0.0000    0.0000    0.0000   -0.0000   -0.0018
   191 H14    2py        0.0000    0.0000   -0.0000    0.0000    0.0000   -0.0000   -0.0000   -0.0000    0.0000    0.0006
   192 H14    2pz       -0.0000    0.0000    0.0001    0.0000   -0.0000   -0.0000   -0.0000   -0.0000   -0.0000   -0.0007
   193 H15    1s        -0.0013   -0.0002   -0.0009   -0.0001    0.0000   -0.0005   -0.0005   -0.0006   -0.0004    0.0452
   194 H15    2s        -0.0007   -0.0001   -0.0006   -0.0001   -0.0001   -0.0003   -0.0003   -0.0003   -0.0002    0.0028
   195 H15    2px       -0.0001    0.0001   -0.0001    0.0000    0.0001    0.0000   -0.0000   -0.0000   -0.0000    0.0020
   196 H15    2py       -0.0001    0.0000   -0.0005    0.0000    0.0001   -0.0000   -0.0000   -0.0001   -0.0001    0.0060
   197 H15    2pz        0.0000   -0.0001   -0.0000    0.0000    0.0001   -0.0000   -0.0000    0.0000   -0.0000    0.0015
   198 H16    1s         0.0005    0.0000   -0.0004    0.0000   -0.0003    0.0001    0.0009   -0.0000   -0.0000    0.0003
   199 H16    2s         0.0003    0.0000   -0.0001    0.0000   -0.0003    0.0000    0.0001   -0.0000   -0.0000   -0.0047
   200 H16    2px        0.0000   -0.0000   -0.0000    0.0000   -0.0001    0.0000    0.0001   -0.0000   -0.0000    0.0003
   201 H16    2py       -0.0000    0.0000    0.0000    0.0000    0.0000    0.0000   -0.0000    0.0000   -0.0000   -0.0006
   202 H16    2pz        0.0000    0.0000   -0.0000    0.0000   -0.0000   -0.0000    0.0000    0.0000    0.0000   -0.0000
   203 H17    1s        -0.0002    0.0001   -0.0001    0.0000   -0.0001   -0.0001    0.0010    0.0001    0.0001    0.0116
   204 H17    2s        -0.0001    0.0001   -0.0000    0.0000   -0.0000   -0.0000    0.0001    0.0001    0.0001   -0.0025
   205 H17    2px       -0.0000   -0.0000   -0.0000   -0.0000    0.0000   -0.0000   -0.0000   -0.0000    0.0000    0.0008
   206 H17    2py        0.0000   -0.0000   -0.0000    0.0000    0.0000   -0.0000   -0.0001    0.0000   -0.0000   -0.0010
   207 H17    2pz        0.0000    0.0000    0.0000   -0.0000    0.0000    0.0000   -0.0000    0.0000   -0.0000    0.0001
   208 H18    1s         0.0001   -0.0000   -0.0005   -0.0000   -0.0003    0.0001    0.0006   -0.0001   -0.0000    0.0137
   209 H18    2s         0.0000    0.0000   -0.0002   -0.0000   -0.0002    0.0001   -0.0001   -0.0001   -0.0000    0.0045
   210 H18    2px       -0.0000    0.0000   -0.0000    0.0000    0.0000   -0.0000    0.0000    0.0000    0.0000    0.0001
   211 H18    2py       -0.0000    0.0000   -0.0000    0.0000   -0.0000    0.0000   -0.0000   -0.0000    0.0000    0.0002
   212 H18    2pz        0.0000   -0.0000   -0.0001   -0.0000   -0.0001    0.0000   -0.0000   -0.0000    0.0000    0.0017
 
 
      Orbital                11        12        13        14        15        16        17        18        19        20
      Energy            -1.3606   -1.2529   -1.2178   -1.0134   -0.9658   -0.9254   -0.8125   -0.7800   -0.7037   -0.6855
      Occ. No.           2.0000    2.0000    2.0000    2.0000    2.0000    2.0000    2.0000    2.0000    2.0000    2.0000
 
     1 C1     1s         0.0397    0.0035    0.0069   -0.0123   -0.0081    0.0030    0.0071   -0.0126   -0.0031   -0.0057
     2 C1     2s        -0.3589    0.0097   -0.0923    0.2195    0.1487   -0.0095   -0.1527    0.3474    0.0757    0.1487
     3 C1     3s         0.0057    0.0159    0.0043   -0.0074   -0.0096    0.0056    0.0018    0.0021   -0.0076   -0.0082
     4 C1     4s        -0.0020    0.0049    0.0012   -0.0036   -0.0024    0.0029    0.0017   -0.0020   -0.0021   -0.0038
     5 C1     2px        0.0523    0.0336   -0.1348    0.0396   -0.0426   -0.1092   -0.0834    0.1380   -0.0140   -0.0461
     6 C1     3px       -0.0207   -0.0094    0.0498   -0.0505   -0.0130    0.0186    0.0215   -0.0269   -0.0008    0.0224
     7 C1     4px        0.0165    0.0085   -0.0255   -0.0036   -0.0078   -0.0130   -0.0060    0.0098   -0.0039   -0.0019
     8 C1     2py       -0.0913    0.0035    0.0317   -0.1128   -0.1212   -0.0312   -0.0122    0.0256    0.0790   -0.0331
     9 C1     3py        0.0638    0.0329   -0.0398   -0.0068    0.0206    0.0663   -0.0015   -0.0167   -0.0271    0.0083
    10 C1     4py       -0.0211    0.0022    0.0052   -0.0206   -0.0188    0.0005   -0.0021    0.0024    0.0023    0.0010
    11 C1     2pz       -0.0099   -0.0073   -0.0001    0.0108    0.0121    0.0215   -0.0020   -0.0055    0.0081    0.0185
    12 C1     3pz       -0.0052   -0.0078   -0.0107    0.0050    0.0020    0.0110   -0.0076    0.0012    0.0042   -0.0012
    13 C1     4pz       -0.0019   -0.0039   -0.0007    0.0020    0.0032    0.0038   -0.0020   -0.0005    0.0031    0.0032
    14 C1     3d2-       0.0326    0.0065   -0.0179    0.0056    0.0082    0.0057   -0.0026    0.0125    0.0128   -0.0056
    15 C1     3d1-      -0.0003   -0.0005    0.0006   -0.0010   -0.0019   -0.0008    0.0002   -0.0018   -0.0012    0.0001
    16 C1     3d0        0.0274    0.0008    0.0041   -0.0092   -0.0046    0.0025    0.0064   -0.0118   -0.0025   -0.0044
    17 C1     3d1+       0.0019   -0.0011    0.0024   -0.0013   -0.0006    0.0009    0.0015   -0.0028    0.0003    0.0027
    18 C1     3d2+       0.0036    0.0051   -0.0235    0.0068   -0.0091   -0.0165   -0.0074    0.0097   -0.0009   -0.0045
    19 C3     1s         0.0092   -0.0097    0.0312    0.0390    0.0020   -0.0257   -0.0071   -0.0022   -0.0033   -0.0066
    20 C3     2s        -0.0279    0.0680   -0.1831   -0.3300   -0.0168    0.3647    0.0750    0.0767    0.0899    0.0621
    21 C3     3s         0.0161   -0.0147    0.0551    0.0710    0.0042   -0.0241   -0.0127   -0.0031    0.0004   -0.0206
    22 C3     4s         0.0020   -0.0018    0.0127    0.0183    0.0020   -0.0071   -0.0034   -0.0023   -0.0007   -0.0057
    23 C3     2px        0.0275   -0.0263    0.0547   -0.0033   -0.0124    0.0384    0.0612   -0.0600   -0.0227    0.1814
    24 C3     3px        0.0088    0.0066   -0.0140   -0.0335   -0.0161    0.0044   -0.0035    0.0014    0.0077   -0.0183
    25 C3     4px        0.0026    0.0039   -0.0062   -0.0164   -0.0065    0.0168    0.0055    0.0007   -0.0006    0.0051
    26 C3     2py        0.0227   -0.0237    0.1044   -0.0268    0.0350    0.0400   -0.1236    0.1914   -0.2070    0.0296
    27 C3     3py        0.0042   -0.0040    0.0172    0.0228   -0.0556   -0.0244   -0.0061    0.0010    0.0439   -0.0116
    28 C3     4py        0.0059    0.0023    0.0139   -0.0040   -0.0020    0.0021   -0.0100    0.0098    0.0022    0.0009
    29 C3     2pz       -0.0076   -0.0244   -0.0162    0.0412   -0.0413    0.0135    0.0459    0.0017    0.0816    0.1749
    30 C3     3pz       -0.0108   -0.0003   -0.0124   -0.0020    0.0044    0.0190   -0.0119    0.0031   -0.0154   -0.0131
    31 C3     4pz       -0.0028    0.0019   -0.0059   -0.0035   -0.0017    0.0099    0.0025    0.0035    0.0035    0.0060
    32 C3     3d2-      -0.0043    0.0029   -0.0166    0.0068   -0.0107   -0.0072    0.0074   -0.0059    0.0254   -0.0021
    33 C3     3d1-       0.0016   -0.0045    0.0043    0.0075   -0.0048   -0.0006    0.0084   -0.0027    0.0058    0.0137
    34 C3     3d0        0.0022   -0.0005    0.0105    0.0025    0.0043    0.0010   -0.0030    0.0053   -0.0037    0.0100
    35 C3     3d1+      -0.0004    0.0028    0.0003   -0.0040    0.0039    0.0006   -0.0057    0.0069   -0.0057   -0.0070
    36 C3     3d2+       0.0011    0.0011    0.0113    0.0038    0.0042   -0.0022   -0.0048    0.0101    0.0084    0.0022
    37 C4     1s        -0.0029   -0.0077   -0.0032    0.0131   -0.0106    0.0025    0.0182    0.0009    0.0057    0.0008
    38 C4     2s        -0.0064    0.1416   -0.0147   -0.2265    0.1881    0.0440   -0.3589   -0.0439   -0.2226   -0.0592
    39 C4     3s        -0.0092    0.0003   -0.0088    0.0188   -0.0075    0.0083    0.0264   -0.0097    0.0074   -0.0087
    40 C4     4s        -0.0025   -0.0003   -0.0027    0.0071   -0.0026    0.0012    0.0080   -0.0037    0.0028    0.0001
    41 C4     2px       -0.0086   -0.0651   -0.0408   -0.0430    0.0173    0.0700    0.0284    0.0847   -0.1237    0.0297
    42 C4     3px       -0.0176    0.0097   -0.0108   -0.0045    0.0568   -0.0344   -0.0087   -0.0394    0.0360    0.0090
    43 C4     4px       -0.0041   -0.0125   -0.0078   -0.0059    0.0073    0.0046    0.0044    0.0017   -0.0072    0.0065
    44 C4     2py        0.0187   -0.0626    0.0164    0.1241   -0.0853   -0.0193   -0.0057   -0.0686   -0.0432    0.2014
    45 C4     3py       -0.0063    0.0756   -0.0031   -0.0338   -0.0222    0.0598   -0.0069    0.0352    0.0137   -0.0705
    46 C4     4py        0.0056   -0.0089    0.0041    0.0119   -0.0148    0.0055   -0.0029   -0.0028   -0.0090    0.0089
    47 C4     2pz       -0.0016   -0.1199   -0.0582   -0.0271   -0.0270    0.0887    0.1011    0.1256   -0.1804    0.0742
    48 C4     3pz       -0.0054    0.0203   -0.0087   -0.0204    0.0617   -0.0567    0.0001   -0.0628    0.0534   -0.0028
    49 C4     4pz        0.0015   -0.0253   -0.0092   -0.0061    0.0024    0.0027    0.0089    0.0037   -0.0113    0.0089
    50 C4     3d2-       0.0004   -0.0002    0.0034    0.0073    0.0022   -0.0124    0.0047   -0.0036   -0.0014   -0.0015
    51 C4     3d1-       0.0020   -0.0006    0.0033    0.0056    0.0069   -0.0153    0.0064   -0.0045   -0.0089   -0.0047
    52 C4     3d0       -0.0013    0.0193    0.0046   -0.0029    0.0072   -0.0080   -0.0099   -0.0093    0.0178   -0.0010
    53 C4     3d1+       0.0006    0.0181    0.0046   -0.0098    0.0105   -0.0019   -0.0146   -0.0045    0.0049    0.0012
    54 C4     3d2+      -0.0021    0.0148    0.0057    0.0022    0.0003   -0.0014    0.0019   -0.0033    0.0141    0.0014
    55 C6     1s        -0.0015   -0.0296   -0.0150   -0.0296    0.0391   -0.0287    0.0090   -0.0022    0.0045    0.0071
    56 C6     2s        -0.0174    0.1682    0.0244    0.1924   -0.3084    0.2945   -0.1125    0.0234   -0.0318   -0.0847
    57 C6     3s        -0.0113   -0.0414   -0.0419   -0.0536    0.0697   -0.0395    0.0206   -0.0056    0.0117    0.0215
    58 C6     4s        -0.0035   -0.0062   -0.0096   -0.0109    0.0156   -0.0083    0.0064   -0.0017    0.0025    0.0071
    59 C6     2px       -0.0063    0.0522    0.0121    0.0220    0.0016   -0.0155    0.0068   -0.0438    0.1134    0.2021
    60 C6     3px       -0.0059   -0.0142   -0.0104   -0.0036    0.0107   -0.0003   -0.0023    0.0042   -0.0114   -0.0291
    61 C6     4px       -0.0004   -0.0005   -0.0011   -0.0058    0.0093   -0.0080    0.0030   -0.0031    0.0040    0.0096
    62 C6     2py        0.0015   -0.0717   -0.0136   -0.0187    0.0063    0.0179   -0.1432   -0.0456    0.0433   -0.1940
    63 C6     3py       -0.0009    0.0099    0.0114    0.0099   -0.0037   -0.0055    0.0032    0.0029    0.0006    0.0316
    64 C6     4py       -0.0000   -0.0010   -0.0003    0.0062   -0.0107    0.0100   -0.0124   -0.0035    0.0019   -0.0082
    65 C6     2pz       -0.0021    0.0594    0.0118    0.0013    0.0198   -0.0286   -0.0042   -0.0576    0.1180    0.1494
    66 C6     3pz       -0.0010   -0.0082   -0.0108   -0.0180    0.0242   -0.0079    0.0083    0.0047   -0.0194   -0.0205
    67 C6     4pz       -0.0002   -0.0024   -0.0017   -0.0057    0.0115   -0.0094    0.0010   -0.0048    0.0053    0.0089
    68 C6     3d2-       0.0005   -0.0143   -0.0042   -0.0048    0.0020    0.0024   -0.0114   -0.0009   -0.0035   -0.0242
    69 C6     3d1-       0.0003   -0.0151   -0.0042   -0.0029    0.0002    0.0034   -0.0088    0.0008   -0.0043   -0.0198
    70 C6     3d0        0.0003   -0.0033   -0.0008   -0.0012    0.0012    0.0000   -0.0049   -0.0016   -0.0017   -0.0049
    71 C6     3d1+      -0.0000    0.0104    0.0037    0.0036   -0.0014   -0.0020   -0.0032   -0.0077    0.0138    0.0186
    72 C6     3d2+      -0.0001   -0.0037   -0.0012   -0.0029    0.0019   -0.0002   -0.0081   -0.0027   -0.0010   -0.0075
    73 C19    1s         0.0149   -0.0012    0.0079   -0.0361   -0.0523   -0.0351   -0.0112    0.0102   -0.0013    0.0055
    74 C19    2s         0.0075   -0.0066   -0.0037    0.1797    0.3076    0.2638    0.0471   -0.0824    0.0368   -0.0387
    75 C19    3s         0.0399   -0.0009    0.0236   -0.0739   -0.1002   -0.0570   -0.0298    0.0226   -0.0013    0.0107
    76 C19    4s         0.0042    0.0017    0.0035   -0.0157   -0.0219   -0.0128   -0.0071    0.0067   -0.0015    0.0024
    77 C19    2px        0.0096    0.0053   -0.0203    0.0435    0.0205   -0.0111   -0.0285    0.0440   -0.0525    0.0269
    78 C19    3px        0.0058    0.0011    0.0030    0.0088   -0.0036   -0.0025    0.0022   -0.0033    0.0039   -0.0070
    79 C19    4px       -0.0075   -0.0001   -0.0001   -0.0021   -0.0098   -0.0104   -0.0031    0.0015   -0.0048    0.0020
    80 C19    2py       -0.0195    0.0041   -0.0064    0.0333    0.0254   -0.0020   -0.0352    0.0708   -0.0167    0.1107
    81 C19    3py        0.0096    0.0066    0.0055   -0.0202   -0.0246   -0.0141    0.0038   -0.0095   -0.0057   -0.0151
    82 C19    4py       -0.0051    0.0008    0.0003   -0.0076   -0.0149   -0.0150   -0.0050    0.0122    0.0000    0.0043
    83 C19    2pz        0.0045   -0.0024    0.0097   -0.0086   -0.0097   -0.0105    0.0009   -0.0071    0.0102   -0.0005
    84 C19    3pz        0.0043   -0.0028    0.0075   -0.0027   -0.0047   -0.0103   -0.0028   -0.0028   -0.0022    0.0041
    85 C19    4pz        0.0015   -0.0009    0.0002    0.0012    0.0020    0.0017   -0.0003   -0.0019    0.0008    0.0002
    86 C19    3d2-       0.0001    0.0012   -0.0059    0.0076    0.0055   -0.0002   -0.0039    0.0075   -0.0003    0.0068
    87 C19    3d1-       0.0003   -0.0002    0.0004   -0.0011   -0.0008   -0.0003    0.0003   -0.0008    0.0003   -0.0013
    88 C19    3d0       -0.0010   -0.0001    0.0006   -0.0059   -0.0063   -0.0023    0.0016   -0.0035    0.0040   -0.0039
    89 C19    3d1+      -0.0015   -0.0002    0.0003   -0.0010   -0.0003    0.0005    0.0008   -0.0011    0.0014   -0.0002
    90 C19    3d2+       0.0066    0.0011   -0.0019   -0.0054   -0.0064   -0.0030    0.0014   -0.0043    0.0006   -0.0074
    91 N2     1s         0.0185   -0.0085    0.0379   -0.0063    0.0019    0.0040   -0.0021    0.0044    0.0019   -0.0019
    92 N2     2s        -0.1490    0.1148   -0.5765    0.1059   -0.1462   -0.1933   -0.0019   -0.1017    0.0057   -0.0745
    93 N2     3s         0.0445   -0.0147    0.0635   -0.0072   -0.0049   -0.0018   -0.0081    0.0076    0.0038   -0.0117
    94 N2     4s         0.0111   -0.0050    0.0224   -0.0017    0.0013    0.0019   -0.0024    0.0027   -0.0000   -0.0017
    95 N2     2px        0.0289   -0.0013    0.0165   -0.1001   -0.0740    0.0731    0.1675   -0.3602   -0.0442    0.0052
    96 N2     3px       -0.0211   -0.0063    0.0115    0.0459   -0.0172   -0.0489   -0.0623    0.0963    0.0054   -0.0003
    97 N2     4px        0.0046    0.0010   -0.0023    0.0000   -0.0083   -0.0059   -0.0031   -0.0007   -0.0038   -0.0009
    98 N2     2py       -0.0269    0.0031    0.0172   -0.1229   -0.0372    0.0700    0.0252    0.1310    0.3370   -0.0802
    99 N2     3py       -0.0040   -0.0156    0.0536    0.0404   -0.0066   -0.0688   -0.0130   -0.0156   -0.0656    0.0119
   100 N2     4py        0.0083   -0.0030    0.0143   -0.0031   -0.0008   -0.0053   -0.0049    0.0081   -0.0005    0.0003
   101 N2     2pz       -0.0065   -0.0017    0.0001    0.0286    0.0037   -0.0098   -0.0105    0.0215    0.0215    0.0673
   102 N2     3pz        0.0002    0.0062   -0.0039   -0.0005    0.0012    0.0040    0.0065   -0.0099    0.0006   -0.0170
   103 N2     4pz       -0.0014    0.0009   -0.0014    0.0023   -0.0005    0.0006    0.0002   -0.0010   -0.0004   -0.0033
   104 N2     3d2-       0.0019    0.0024   -0.0085   -0.0032    0.0021    0.0084    0.0027    0.0058    0.0156   -0.0003
   105 N2     3d1-       0.0004   -0.0011    0.0023    0.0015   -0.0001   -0.0006   -0.0002   -0.0001   -0.0013    0.0045
   106 N2     3d0        0.0032   -0.0030    0.0153   -0.0010    0.0031    0.0028    0.0003    0.0005   -0.0008   -0.0009
   107 N2     3d1+       0.0010   -0.0004    0.0027   -0.0002   -0.0003    0.0004    0.0010   -0.0005   -0.0005    0.0010
   108 N2     3d2+      -0.0051    0.0005   -0.0036    0.0093    0.0012   -0.0081   -0.0089    0.0171    0.0028    0.0041
   109 N5     1s         0.0016   -0.0409   -0.0098   -0.0020   -0.0029    0.0014   -0.0034   -0.0014    0.0033    0.0024
   110 N5     2s        -0.0181    0.5689    0.1635    0.0094    0.1035   -0.1897    0.1740   -0.0179    0.1008    0.1452
   111 N5     3s         0.0004   -0.0795   -0.0189   -0.0113    0.0036   -0.0119   -0.0024   -0.0064    0.0147    0.0118
   112 N5     4s        -0.0003   -0.0259   -0.0070   -0.0037    0.0010   -0.0009   -0.0023   -0.0008    0.0011    0.0006
   113 N5     2px       -0.0001    0.0099   -0.0228   -0.0893    0.1011   -0.0452   -0.1548   -0.0858    0.0621   -0.1608
   114 N5     3px        0.0001    0.0259   -0.0153    0.0131   -0.0416    0.0394    0.0484    0.0145   -0.0120    0.0268
   115 N5     4px        0.0008   -0.0003   -0.0036   -0.0046   -0.0022    0.0044    0.0007   -0.0006   -0.0019    0.0035
   116 N5     2py        0.0118   -0.0023    0.0204    0.0657   -0.0728    0.0664   -0.2709   -0.2058    0.2244    0.2673
   117 N5     3py        0.0132   -0.0369    0.0079   -0.0264    0.0491   -0.0530    0.0563    0.0223   -0.0504   -0.0335
   118 N5     4py        0.0038   -0.0107    0.0020   -0.0047    0.0003   -0.0049   -0.0077   -0.0032   -0.0007   -0.0029
   119 N5     2pz       -0.0117    0.0282   -0.0176   -0.0962    0.1364   -0.0745   -0.2236   -0.1339    0.1012   -0.2082
   120 N5     3pz       -0.0131   -0.0181   -0.0267    0.0366   -0.0372    0.0367    0.0510    0.0211   -0.0026    0.0456
   121 N5     4pz       -0.0013   -0.0053   -0.0044   -0.0017    0.0025    0.0014   -0.0007   -0.0006    0.0005    0.0061
   122 N5     3d2-       0.0002   -0.0032   -0.0004   -0.0052    0.0078   -0.0077    0.0014    0.0009   -0.0049   -0.0104
   123 N5     3d1-       0.0008   -0.0018    0.0005   -0.0030    0.0072   -0.0079   -0.0056   -0.0057    0.0004   -0.0058
   124 N5     3d0       -0.0007    0.0053    0.0002   -0.0050    0.0068   -0.0024   -0.0151   -0.0078    0.0062   -0.0072
   125 N5     3d1+      -0.0003    0.0171    0.0043   -0.0012    0.0028   -0.0018   -0.0061   -0.0034    0.0037   -0.0006
   126 N5     3d2+      -0.0004   -0.0033   -0.0018   -0.0022    0.0016    0.0036   -0.0107   -0.0043    0.0021   -0.0017
   127 O7     1s         0.0239    0.0016   -0.0042   -0.0024   -0.0026   -0.0014    0.0033   -0.0100   -0.0071   -0.0068
   128 O7     2s        -0.6739   -0.1145    0.3083   -0.1619   -0.1399   -0.0197    0.1017   -0.2873   -0.1595   -0.1209
   129 O7     3s         0.0300   -0.0023    0.0068   -0.0150   -0.0140   -0.0064    0.0118   -0.0352   -0.0230   -0.0203
   130 O7     4s         0.0129    0.0003   -0.0007   -0.0027   -0.0026   -0.0017    0.0019   -0.0069   -0.0047   -0.0039
   131 O7     2px       -0.0937   -0.0055    0.0070    0.0004   -0.0105   -0.0265   -0.0609    0.1426    0.1015    0.0571
   132 O7     3px        0.0268    0.0048   -0.0028   -0.0064   -0.0051    0.0040    0.0033   -0.0194   -0.0112   -0.0021
   133 O7     4px        0.0014    0.0009   -0.0003   -0.0011   -0.0000    0.0016    0.0001   -0.0022   -0.0004    0.0005
   134 O7     2py        0.1080    0.0256   -0.0458   -0.0130   -0.0209   -0.0198    0.0120   -0.0863   -0.1036   -0.1131
   135 O7     3py       -0.0373    0.0063    0.0012    0.0082    0.0081    0.0061   -0.0089    0.0158    0.0084    0.0133
   136 O7     4py       -0.0009    0.0024    0.0012   -0.0006    0.0001    0.0025   -0.0012    0.0012    0.0012    0.0015
   137 O7     2pz       -0.0027   -0.0053   -0.0018    0.0086    0.0070   -0.0014    0.0001    0.0043    0.0026    0.0055
   138 O7     3pz       -0.0008   -0.0043   -0.0003    0.0012    0.0042   -0.0084    0.0040    0.0038    0.0004   -0.0018
   139 O7     4pz       -0.0006   -0.0010   -0.0001    0.0001    0.0013   -0.0025    0.0016    0.0005   -0.0003   -0.0006
   140 O7     3d2-       0.0181    0.0024   -0.0049    0.0005    0.0015    0.0012    0.0028   -0.0082   -0.0069   -0.0053
   141 O7     3d1-      -0.0001   -0.0002   -0.0001   -0.0003   -0.0003   -0.0003   -0.0000    0.0003    0.0000   -0.0003
   142 O7     3d0        0.0103    0.0017   -0.0044    0.0015    0.0008   -0.0005    0.0011   -0.0030   -0.0039   -0.0030
   143 O7     3d1+       0.0003   -0.0004   -0.0004    0.0006    0.0005    0.0002   -0.0001   -0.0001    0.0001    0.0006
   144 O7     3d2+       0.0032    0.0013   -0.0042   -0.0005   -0.0031   -0.0044   -0.0025    0.0034   -0.0002   -0.0037
   145 O8     1s        -0.0009    0.0025    0.0010    0.0030   -0.0030   -0.0020    0.0136    0.0018    0.0180   -0.0120
   146 O8     2s         0.0689   -0.3044   -0.0074    0.1738   -0.1107   -0.0741    0.3497    0.0482    0.2950   -0.2031
   147 O8     3s         0.0017   -0.0083    0.0020    0.0132   -0.0112   -0.0084    0.0429    0.0050    0.0511   -0.0341
   148 O8     4s        -0.0002    0.0005    0.0001    0.0017   -0.0016   -0.0018    0.0083    0.0009    0.0105   -0.0074
   149 O8     2px       -0.0009   -0.0052   -0.0070   -0.0116   -0.0065    0.0187    0.0423    0.0474    0.0048   -0.0473
   150 O8     3px        0.0029   -0.0024    0.0009    0.0030   -0.0034   -0.0032   -0.0037   -0.0080    0.0024    0.0025
   151 O8     4px        0.0010   -0.0008    0.0006    0.0009   -0.0001   -0.0015    0.0001   -0.0018    0.0008    0.0002
   152 O8     2py       -0.0134    0.0372    0.0042    0.0335   -0.0212   -0.0309    0.1952    0.0155    0.3593   -0.2546
   153 O8     3py       -0.0001   -0.0062    0.0008   -0.0087    0.0135   -0.0002   -0.0301   -0.0013   -0.0395    0.0258
[...]
AIVX     1  Mu1.0001  In1.022 Se1.046               0.18691112      0.00094184     -0.00162562     -0.00000153
AIVX     1  Mu1.0001  In1.023 Se1.046               0.29325661     -0.00035350      0.00074004     -0.00000026
AIVX     1  Mu1.0001  In1.024 Se1.046               0.26088568     -0.00068494      0.00122011     -0.00000084
AIVX     1  Mu1.0001  In1.025 Se1.046               0.27380531      0.00032362     -0.00072762     -0.00000024
AIVX     1  Mu1.0001  In1.026 Se1.046               0.12678871     -0.00067570      0.00128809     -0.00000087
AIVX     1  Mu1.0001  In1.027 Se1.046               0.25520670     -0.00003536      0.00010889     -0.00000000
AIVX     1  Mu1.0001  In1.028 Se1.046               0.13844398      0.00031709     -0.00072935     -0.00000023
AIVX     1  Mu1.0001  In1.029 Se1.046               0.11120726     -0.00098400      0.00194928     -0.00000192
AIVX     1  Mu1.0001  In1.021 Se1.047               0.29434289     -0.00049238      0.00080370     -0.00000040
AIVX     1  Mu1.0001  In1.022 Se1.047               0.19578723      0.00045359     -0.00093241     -0.00000042
AIVX     1  Mu1.0001  In1.024 Se1.047               0.26976179     -0.00061313      0.00106049     -0.00000065
AIVX     1  Mu1.0001  In1.025 Se1.047               0.28268142      0.00027225     -0.00043053     -0.00000012
AIVX     1  Mu1.0001  In1.026 Se1.047               0.13566481     -0.00015538      0.00023473     -0.00000004
AIVX     1  Mu1.0001  In1.027 Se1.047               0.26408280      0.00023996     -0.00039724     -0.00000010
AIVX     1  Mu1.0001  In1.028 Se1.047               0.14732009     -0.00039113      0.00091486     -0.00000036
AIVX     1  Mu1.0001  In1.029 Se1.047               0.12008336     -0.00075735      0.00151823     -0.00000115
AIVX     1  Mu1.0001  In1.022 Se1.048               0.21696325     -0.00070087      0.00139791     -0.00000098
AIVX     1  Mu1.0001  In1.024 Se1.048               0.29093781     -0.00022448      0.00058195     -0.00000013
AIVX     1  Mu1.0001  In1.026 Se1.048               0.15684084     -0.00020972      0.00042245     -0.00000009
AIVX     1  Mu1.0001  In1.027 Se1.048               0.28525883      0.00088451     -0.00146281     -0.00000129
AIVX     1  Mu1.0001  In1.028 Se1.048               0.16849611      0.00001144      0.00007076      0.00000000
AIVX     1  Mu1.0001  In1.029 Se1.048               0.14125938     -0.00001584     -0.00006933      0.00000000
AIVX     1  Mu1.0001  In1.022 Se1.049               0.20956458      0.00078398     -0.00124084     -0.00000097
AIVX     1  Mu1.0001  In1.024 Se1.049               0.28353914     -0.00006633      0.00049783     -0.00000003
AIVX     1  Mu1.0001  In1.025 Se1.049               0.29645877     -0.00109281      0.00115339     -0.00000126
AIVX     1  Mu1.0001  In1.026 Se1.049               0.14944217     -0.00014828      0.00022769     -0.00000003
AIVX     1  Mu1.0001  In1.027 Se1.049               0.27786016      0.00067591     -0.00114007     -0.00000077
AIVX     1  Mu1.0001  In1.028 Se1.049               0.16109744     -0.00016428      0.00060005     -0.00000010
AIVX     1  Mu1.0001  In1.029 Se1.049               0.13386072     -0.00007312     -0.00019836      0.00000001
AIVX     1  Mu1.0001  In1.022 Se1.050               0.23114281     -0.00083785      0.00160542     -0.00000135
AIVX     1  Mu1.0001  In1.026 Se1.050               0.17102040      0.00057038     -0.00117194     -0.00000067
AIVX     1  Mu1.0001  In1.027 Se1.050               0.29943839      0.00033049     -0.00039800     -0.00000013
AIVX     1  Mu1.0001  In1.028 Se1.050               0.18267567      0.00038284     -0.00086556     -0.00000033
AIVX     1  Mu1.0001  In1.029 Se1.050               0.15543894      0.00012964     -0.00051093     -0.00000007
AIVX     1  Mu1.0001  In1.022 Se1.051               0.22456208     -0.00050264      0.00069647     -0.00000035
AIVX     1  Mu1.0001  In1.024 Se1.051               0.29853664     -0.00000556     -0.00025766      0.00000000
AIVX     1  Mu1.0001  In1.026 Se1.051               0.16443967     -0.00016922      0.00041735     -0.00000007
AIVX     1  Mu1.0001  In1.027 Se1.051               0.29285766     -0.00057073      0.00085933     -0.00000049
AIVX     1  Mu1.0001  In1.028 Se1.051               0.17609494     -0.00020349      0.00049539     -0.00000010
AIVX     1  Mu1.0001  In1.029 Se1.051               0.14885822      0.00040509     -0.00060559     -0.00000025
AIVX     1  Mu1.0001  In1.022 Se1.052               0.26743204     -0.00043030      0.00059271     -0.00000026
AIVX     1  Mu1.0001  In1.026 Se1.052               0.20730963      0.00017676     -0.00018253     -0.00000003
AIVX     1  Mu1.0001  In1.028 Se1.052               0.21896490     -0.00016958      0.00037678     -0.00000006
AIVX     1  Mu1.0001  In1.029 Se1.052               0.19172818      0.00069214     -0.00093126     -0.00000064
AIVX     1  Mu1.0001  In1.022 Se1.053               0.28604969      0.00024519     -0.00013527     -0.00000003
AIVX     1  Mu1.0001  In1.026 Se1.053               0.22592728     -0.00056849      0.00092782     -0.00000053
AIVX     1  Mu1.0001  In1.028 Se1.053               0.23758255      0.00010651     -0.00020646     -0.00000002
AIVX     1  Mu1.0001  In1.029 Se1.053               0.21034582     -0.00002594     -0.00007859      0.00000000
AIVX     1  Mu1.0001  In1.026 Se1.054               0.24150486      0.00034515     -0.00056342     -0.00000019
AIVX     1  Mu1.0001  In1.028 Se1.054               0.25316013     -0.00051340      0.00109042     -0.00000056
AIVX     1  Mu1.0001  In1.029 Se1.054               0.22592341     -0.00032589      0.00067066     -0.00000022
AIVX     1  Mu1.0001  In1.026 Se1.055               0.25245387      0.00034021     -0.00045816     -0.00000016
AIVX     1  Mu1.0001  In1.028 Se1.055               0.26410914     -0.00036643      0.00065729     -0.00000024
AIVX     1  Mu1.0001  In1.029 Se1.055               0.23687242     -0.00023505      0.00060333     -0.00000014
AIVX     1  Mu1.0001  In1.026 Se1.056               0.26248226     -0.00000347      0.00012017     -0.00000000
AIVX     1  Mu1.0001  In1.028 Se1.056               0.27413754      0.00082281     -0.00152742     -0.00000126
AIVX     1  Mu1.0001  In1.029 Se1.056               0.24690081      0.00001874     -0.00022156     -0.00000000
AIVX     1  Mu1.0001  In1.026 Se1.057               0.29422466      0.00025270     -0.00034517     -0.00000009
AIVX     1  Mu1.0001  In1.029 Se1.057               0.27864321      0.00019904     -0.00022481     -0.00000004
AIVX     1  Mu1.0001  In1.026 Se1.058               0.27257711     -0.00063853      0.00111971     -0.00000071
AIVX     1  Mu1.0001  In1.028 Se1.058               0.28423238     -0.00067485      0.00120509     -0.00000081
AIVX     1  Mu1.0001  In1.029 Se1.058               0.25699565     -0.00008939      0.00019955     -0.00000002
AIVX     1  Mu1.0001  In1.026 Se1.059               0.28072782      0.00019056     -0.00042587     -0.00000008
AIVX     1  Mu1.0001  In1.028 Se1.059               0.29238309      0.00027681     -0.00049851     -0.00000014
AIVX     1  Mu1.0001  In1.029 Se1.059               0.26514637      0.00043490     -0.00040459     -0.00000018
AIVX     1  Mu1.0001  In1.029 Se1.060               0.29360386      0.00015331     -0.00003278     -0.00000001
--
 
   (Skipping property calculation,
    use PROP keyword to activate)
--
 
  Total CASPT2 energies:
::    CASPT2 Root  1     Total energy:   -455.37362232
::    CASPT2 Root  2     Total energy:   -455.16375153
::    CASPT2 Root  3     Total energy:   -455.16826865
::    CASPT2 Root  4     Total energy:   -455.12047041
::    CASPT2 Root  5     Total energy:   -455.12843542
::    CASPT2 Root  6     Total energy:   -455.08629105
::    CASPT2 Root  7     Total energy:   -455.06613745
 
++ Multi-State CASPT2 section:
********************************************************************************
  MULTI-STATE CASPT2 SECTION
--------------------------------------------------------------------------------
 
  Output diagonal energies have been shifted. Add   -455.000000000000     
 
  Effective Hamiltonian matrix (Symmetric):
 
                1               2               3               4               5
   1        -0.37362232
   2         0.00050691     -0.16375153
   3        -0.00012499      0.00008196     -0.16826865
   4        -0.01369188     -0.00046089      0.00117669     -0.12047041
   5         0.01909415     -0.00225301      0.00183140      0.00129211     -0.12843542
   6         0.00008283     -0.00142740     -0.00302387     -0.00873809     -0.00933802
   7        -0.00525560      0.00124704      0.00020511     -0.00470797      0.00294601
 
                6               7
   6        -0.08629105
   7        -0.00062415     -0.06613745
 
       Total MS-CASPT2 energies:
::    MS-CASPT2 Root  1     Total energy:   -455.37594890
::    MS-CASPT2 Root  2     Total energy:   -455.16845404
::    MS-CASPT2 Root  3     Total energy:   -455.16395857
::    MS-CASPT2 Root  4     Total energy:   -455.12912676
::    MS-CASPT2 Root  5     Total energy:   -455.12181056
::    MS-CASPT2 Root  6     Total energy:   -455.08212737
::    MS-CASPT2 Root  7     Total energy:   -455.06555064
 
       Eigenvectors:
            0.99536060     -0.00289686      0.00776916      0.06385616     -0.07063894
           -0.00319815     -0.02782188      0.99675087     -0.07383632     -0.00256555
            0.00094200      0.99824653      0.02971280      0.03058126      0.00426767
            0.05402752     -0.01924646      0.01460568      0.18586003      0.95134389
           -0.07736578     -0.03817381      0.06569047      0.94618928     -0.22591245
           -0.00111508      0.02986219      0.02890036      0.24344466      0.17661342
            0.01845185     -0.00141517     -0.01344266     -0.02125932      0.08775772
 
           -0.00240274     -0.01073649
           -0.00979785      0.01220831
           -0.04075367      0.00241686
           -0.22512251     -0.07885420
           -0.19998010      0.04403885
            0.95262649     -0.01780272
            0.00824282      0.99561815
 
--
 
  THE ORIGINAL CI ARRAYS ARE NOW MIXED AS LINEAR
  COMBINATIONS, GIVEN BY THE EIGENVECTORS.
  A NEW JOBIPH FILE NAMED 'JOBMIX' IS PREPARED.
********************************************************************************
 
++ Mixed CI coefficients:
  The CI coefficients for the MIXED state nr.   1
--------------------------------------------------------------------------------
 CI COEFFICIENTS LARGER THAN  0.50D-01
  Occupation of active orbitals, and spin coupling
  of open shells. (u,d: Spin up or down).
  SGUGA info is (Midvert:IsyUp:UpperWalk/LowerWalk)
        Conf  SGUGA info        Occupation    Coefficient         Weight
           1  ( 1:1:   1/   1)   22222200       -0.957010       0.915868
           6  ( 1:1:   6/   1)   22220220        0.083801       0.007023
          15  ( 1:1:  15/   1)   22222002        0.105155       0.011058
          44  ( 2:1:   4/   2)   22u2220d        0.131469       0.017284
          64  ( 2:1:   4/   3)   2u22220d        0.087526       0.007661
          73  ( 2:1:  13/   3)   2u222d02        0.056371       0.003178
          81  ( 2:1:   1/   4)   u22222d0       -0.120163       0.014439
         175  ( 3:1:   5/   8)   20222202        0.085296       0.007275
         191  ( 3:1:   1/  10)   02222220        0.073931       0.005466
 
  The CI coefficients for the MIXED state nr.   2
--------------------------------------------------------------------------------
 CI COEFFICIENTS LARGER THAN  0.50D-01
  Occupation of active orbitals, and spin coupling
  of open shells. (u,d: Spin up or down).
  SGUGA info is (Midvert:IsyUp:UpperWalk/LowerWalk)
        Conf  SGUGA info        Occupation    Coefficient         Weight
           3  ( 1:1:   3/   1)   2222u2d0       -0.286123       0.081867
           6  ( 1:1:   6/   1)   22220220        0.074551       0.005558
          41  ( 2:1:   1/   2)   22u222d0        0.900695       0.811252
          43  ( 2:1:   3/   2)   22u2d220       -0.129550       0.016783
          45  ( 2:1:   5/   2)   22u22dud       -0.061679       0.003804
          47  ( 2:1:   7/   2)   22u22udd        0.076728       0.005887
          55  ( 2:1:  15/   2)   22u220d2        0.087929       0.007732
         141  ( 3:1:   1/   5)   22022220       -0.075658       0.005724
         142  ( 3:1:   2/   5)   220222ud       -0.101960       0.010396
         161  ( 3:1:   1/   7)   u2d22220       -0.116992       0.013687
         219  ( 4:1:   1/   4)   2uu222dd       -0.077364       0.005985
         222  ( 4:1:   4/   4)   2uu22dd2       -0.059008       0.003482
         294  ( 5:1:   2/  15)   20u222d2       -0.087127       0.007591
 
  The CI coefficients for the MIXED state nr.   3
--------------------------------------------------------------------------------
 CI COEFFICIENTS LARGER THAN  0.50D-01
  Occupation of active orbitals, and spin coupling
  of open shells. (u,d: Spin up or down).
  SGUGA info is (Midvert:IsyUp:UpperWalk/LowerWalk)
        Conf  SGUGA info        Occupation    Coefficient         Weight
           7  ( 1:1:   7/   1)   22222u0d        0.142814       0.020396
          21  ( 2:1:   1/   1)   222u22d0       -0.063784       0.004068
          24  ( 2:1:   4/   1)   222u220d       -0.939329       0.882339
          32  ( 2:1:  12/   1)   222u022d        0.081462       0.006636
          33  ( 2:1:  13/   1)   222u2d02       -0.132679       0.017604
         115  ( 3:1:   5/   2)   22ud2202        0.069222       0.004792
         125  ( 3:1:   5/   3)   2u2d2202       -0.170357       0.029021
         132  ( 3:1:   2/   4)   u22d22ud       -0.059918       0.003590
         213  ( 4:1:   1/   3)   u22u22dd        0.099680       0.009936
         269  ( 5:1:   1/   9)   022u222d       -0.076651       0.005875
 
  The CI coefficients for the MIXED state nr.   4
--------------------------------------------------------------------------------
 CI COEFFICIENTS LARGER THAN  0.50D-01
  Occupation of active orbitals, and spin coupling
  of open shells. (u,d: Spin up or down).
  SGUGA info is (Midvert:IsyUp:UpperWalk/LowerWalk)
        Conf  SGUGA info        Occupation    Coefficient         Weight
           2  ( 1:1:   2/   1)   22222ud0        0.144634       0.020919
           3  ( 1:1:   3/   1)   2222u2d0        0.145294       0.021110
           7  ( 1:1:   7/   1)   22222u0d        0.878869       0.772411
          14  ( 1:1:  14/   1)   22220u2d        0.078266       0.006126
          15  ( 1:1:  15/   1)   22222002       -0.165110       0.027261
          24  ( 2:1:   4/   1)   222u220d        0.143638       0.020632
          41  ( 2:1:   1/   2)   22u222d0        0.071284       0.005081
          44  ( 2:1:   4/   2)   22u2220d       -0.143184       0.020502
          64  ( 2:1:   4/   3)   2u22220d       -0.086159       0.007423
          73  ( 2:1:  13/   3)   2u222d02        0.222190       0.049368
          85  ( 2:1:   5/   4)   u2222dud        0.061317       0.003760
          87  ( 2:1:   7/   4)   u2222udd       -0.101660       0.010335
         175  ( 3:1:   5/   8)   20222202        0.104545       0.010930
         193  ( 3:1:   3/  10)   02222u2d        0.069414       0.004818
 
  The CI coefficients for the MIXED state nr.   5
--------------------------------------------------------------------------------
 CI COEFFICIENTS LARGER THAN  0.50D-01
  Occupation of active orbitals, and spin coupling
  of open shells. (u,d: Spin up or down).
  SGUGA info is (Midvert:IsyUp:UpperWalk/LowerWalk)
        Conf  SGUGA info        Occupation    Coefficient         Weight
           2  ( 1:1:   2/   1)   22222ud0        0.221331       0.048987
           3  ( 1:1:   3/   1)   2222u2d0        0.831810       0.691908
           7  ( 1:1:   7/   1)   22222u0d       -0.189872       0.036051
          12  ( 1:1:  12/   1)   2222uudd        0.084769       0.007186
          18  ( 1:1:  18/   1)   2222u0d2        0.083088       0.006904
          21  ( 2:1:   1/   1)   222u22d0       -0.163282       0.026661
          41  ( 2:1:   1/   2)   22u222d0        0.263121       0.069233
          44  ( 2:1:   4/   2)   22u2220d       -0.069867       0.004881
          48  ( 2:1:   8/   2)   22u2u2dd       -0.072149       0.005206
          68  ( 2:1:   8/   3)   2u22u2dd       -0.068585       0.004704
          77  ( 2:1:  17/   3)   2u22udd2       -0.058033       0.003368
          81  ( 2:1:   1/   4)   u22222d0       -0.080848       0.006536
          83  ( 2:1:   3/   4)   u222d220       -0.199672       0.039869
         161  ( 3:1:   1/   7)   u2d22220       -0.060754       0.003691
         177  ( 3:1:   7/   8)   2022u2d2       -0.081093       0.006576
         191  ( 3:1:   1/  10)   02222220       -0.058282       0.003397
 
  The CI coefficients for the MIXED state nr.   6
--------------------------------------------------------------------------------
 CI COEFFICIENTS LARGER THAN  0.50D-01
  Occupation of active orbitals, and spin coupling
  of open shells. (u,d: Spin up or down).
  SGUGA info is (Midvert:IsyUp:UpperWalk/LowerWalk)
        Conf  SGUGA info        Occupation    Coefficient         Weight
           2  ( 1:1:   2/   1)   22222ud0       -0.890276       0.792592
           3  ( 1:1:   3/   1)   2222u2d0        0.255357       0.065207
           7  ( 1:1:   7/   1)   22222u0d        0.092885       0.008628
          21  ( 2:1:   1/   1)   222u22d0        0.109826       0.012062
          41  ( 2:1:   1/   2)   22u222d0        0.058541       0.003427
          45  ( 2:1:   5/   2)   22u22dud       -0.179082       0.032071
          47  ( 2:1:   7/   2)   22u22udd       -0.052352       0.002741
          65  ( 2:1:   5/   3)   2u222dud       -0.129435       0.016753
          67  ( 2:1:   7/   3)   2u222udd        0.151040       0.022813
          82  ( 2:1:   2/   4)   u2222d20        0.050654       0.002566
         152  ( 3:1:   2/   6)   2ud222ud       -0.059011       0.003482
         176  ( 3:1:   6/   8)   20222ud2        0.110519       0.012214
 
  The CI coefficients for the MIXED state nr.   7
--------------------------------------------------------------------------------
 CI COEFFICIENTS LARGER THAN  0.50D-01
  Occupation of active orbitals, and spin coupling
  of open shells. (u,d: Spin up or down).
  SGUGA info is (Midvert:IsyUp:UpperWalk/LowerWalk)
        Conf  SGUGA info        Occupation    Coefficient         Weight
           2  ( 1:1:   2/   1)   22222ud0        0.154976       0.024017
           3  ( 1:1:   3/   1)   2222u2d0        0.112715       0.012705
          21  ( 2:1:   1/   1)   222u22d0        0.870529       0.757820
          24  ( 2:1:   4/   1)   222u220d       -0.061272       0.003754
          25  ( 2:1:   5/   1)   222u2dud        0.161549       0.026098
          27  ( 2:1:   7/   1)   222u2udd       -0.238946       0.057095
         112  ( 3:1:   2/   2)   22ud22ud        0.185623       0.034456
         131  ( 3:1:   1/   4)   u22d2220       -0.059052       0.003487
         201  ( 4:1:   1/   1)   22uu22dd        0.213316       0.045504
         203  ( 4:1:   3/   1)   22uud22d       -0.054348       0.002954
         250  ( 5:1:   2/   4)   220u22d2       -0.053932       0.002909
         262  ( 5:1:   2/   7)   202u22d2       -0.069924       0.004889
 
--
 
--- Stop Module: caspt2 at Tue Jun 10 21:50:42 2025 /rc=_RC_ALL_IS_WELL_ ---
*** files: xmldump
    saved to directory /home/pcaah4/diamide_project
--- Module caspt2 spent 6 minutes 59 seconds ---

.##################.
.# Happy landing! #.
.##################.

    Timing: Wall=680.42 User=591.34 System=79.78
******************************************************
*** WorkDir at /srv/COMMUNAL_SCRATCH/12482 cleaned ***
******************************************************
