   This run of MOLCAS is using the pymolcas driver

                             OPE
                             OPE          NMOL  CASOP  ENMOLC A   SO
                 OPE        NMOLC        AS  OP EN  MO LC     AS  OP
                OPENM       OL CA        SO  PE NM  OL CA     SOP EN
                OP EN      MO   LC       AS  OP ENMOL  CASO   PENMOL
                OP  EN     MO   LC       AS  OP EN     MO     LC ASO
               OP   E  NMOL  C  AS       OP  EN MO     LC     AS  OP
               OP  E   NMO   LC AS        OPEN  MO     LCASOP EN   M
               O  PEN   MO  LCA  SO
            OPE   NMO   L   CAS    OP
        OPENMOL  CASOP     ENMOL   CASOPE
     OPENMOLCA   SOPENMOLCASOPEN   MOLCASOPE
    OPENMOLCAS   OP           EN   MOL    CAS
    OPENMOLCAS       OP  ENM        O     LCA
    OPENMOLCAS    OPEN  MOLCASO     P  E  NMO
    OPENMOLCAS     OP               E  N  MOL
    OPENMOLCA   SO           PENM   O  L  CAS    OPEN    MO    LCAS
    OPENMOLCA   SOP           ENM   O  L  CAS   OP  EN  MOLC  AS   O
    OPENMOLCA   SOPE           NM      O  LCA   S      OP  EN MO
    OPENMOLC                AS         O  PEN   M      OL  CA  SOPE
    OPENMO        LCASOPE  NMOL        C  ASO   P      ENMOLC     AS
    OPE     NMO      LCA  SO     P     E   NM   OL  CA SO  PE N   MO
          OPENMOLCA            SOPE   NMO        LCAS  O    P  ENMO
     OPENMOLCASOPENMOLCASOPENMOLCASOPENMOLCA
        OPENMOLCASOPENMOLCASOPENMOLCASOPE
            OPENMOLCASOPENMOLCASOPENM
               OPENMOLCASOPENMOLCA        version: v23.06
                   OPENMOLCASO
                       OPE                tag:

 OpenMolcas is free software; you can redistribute it and/or modify it
 under the terms of the GNU Lesser General Public License version 2.1.
 OpenMolcas is distributed in the hope that it will be useful, but it
 is provided "as is" and without any express or implied warranties.
 For more details see the full text of the license in the file
 LICENSE or in <http://www.gnu.org/licenses/>.

                 Copyright (C) The OpenMolcas Authors
           For the author list and the recommended citation,
                   consult the file CONTRIBUTORS.md

           *************************************************
           * pymolcas version py2.24                       *
           *   build 4567b286dd94b1984b333a4ddf893180      *
           *   (after the EMIL interpreter by V. Veryazov) *
           *************************************************

configuration info
------------------
Host name: loginchem01.nottingham.ac.uk (Linux)
C Compiler ID: Intel
C flags: -std=gnu99 -gcc-sys -qopenmp
Fortran Compiler ID: Intel
Fortran flags: -fpp -i8 -heap-arrays -qopenmp
Definitions: _MOLCAS_;_I8_;_LINUX_
Parallel: OFF (GA=OFF)


   ---------------------------------------------------------------------------------------------------
  |
  |              Project: orca_geometry_optimisation_240_90_BP86_def2-SVP_def2J_scf_cas1_ras12i11_cas8
  |       Submitted from: /home/pcaah4/diamide_project
  |         Scratch area: /srv/COMMUNAL_SCRATCH/12409
  |      Save outputs to: /home/pcaah4/diamide_project
  |               Molcas: /software/chemistry/openmolcas/openmolcas-23.06-openmp
  |
  | Scratch area is empty
  |
  |       MOLCAS_DRIVER = /software/chemistry/openmolcas/openmolcas-23.06-openmp/sbin/pymolcas
  | MOLCAS_KEEP_WORKDIR = NO
  |       MOLCAS_NPROCS = 1
  |       MOLCAS_SOURCE = /software/chemistry/openmolcas/openmolcas-23.06-openmp
  |    MOLCAS_STRUCTURE = 0
  |
   ---------------------------------------------------------------------------------------------------

++ ---------   Input file   ---------

&SEWARD
TITLE
orca_geometry_optimisation_240_90_BP86_def2-SVP_def2J_scf_cas1_ras12i11
MULTIPOLES
2
SDIPOLE
ANGMOM
0 0 0
BASIS SET
C.ANO-S...4S3P1D.
C1           -0.025160   -0.055747   -0.056721 /Angstrom
C3            2.106004    1.203981   -0.049584 /Angstrom
C4            3.038969    1.253760   -1.273085 /Angstrom
C6            3.142757    1.860978   -3.672224 /Angstrom
C19          -0.663278   -1.433112    0.076785 /Angstrom
END OF BASIS
BASIS SET
N.ANO-S...4S3P1D.
N2            1.351900   -0.039092   -0.020702 /Angstrom
N5            2.466548    1.808956   -2.390274 /Angstrom
END OF BASIS
BASIS SET
O.ANO-S...4S3P1D.
O7           -0.694466    0.969566   -0.189898 /Angstrom
O8            4.178082    0.788640   -1.241141 /Angstrom
END OF BASIS
BASIS SET
H.ANO-S...2S1P.
H9           -1.264367   -1.456874    1.008075 /Angstrom
H10          -1.367980   -1.581925   -0.764686 /Angstrom
H11           0.062527   -2.269725    0.096905 /Angstrom
H12           1.870681   -0.912250    0.084893 /Angstrom
H13           1.354603    2.018803   -0.050318 /Angstrom
H14           2.746835    1.297465    0.851871 /Angstrom
H15           1.496009    2.122889   -2.326486 /Angstrom
H16           2.629700    1.237921   -4.436580 /Angstrom
H17           3.211914    2.901008   -4.055968 /Angstrom
H18           4.165214    1.466306   -3.518613 /Angstrom
END OF BASIS
END OF INPUT

&RASSCF
TITLE
orca_geometry_optimisation_240_90_BP86_def2-SVP_def2J_scf_cas1_ras12i11
LUMORB
SPIN
1
SYMMETRY
1
NACTEL
12  0  0
INACTIVE
29
DELETED  ! delete Rydberg orbitals from an initial CAS(12,11) if done
3
FROZEN
0
RAS2
8
ITERATIONS
64 25
CIROOT
7 7
1 2 3 4 5 6 7
1 1 1 1 1 1 1
LEVSHFT
0.3
CIMX
20
FILEorb = /home/pcaah4/diamide_project/cas/ras12i11/ras_orb/orca_geometry_optimisation_240_90_BP86_def2-SVP_def2J_scf_cas1_ras12i11.RasOrb
ALTEr
2
 1 36 38
 1 37 40
END OF INPUT

&RASSI
NROF JOBIPH
    1 7
    1 2 3 5 4 6 7
TOFILE
TRDI
TDMN
1.0D-6
END OF INPUT

&CASPT2
TITLE
orca_geometry_optimisation_240_90_BP86_def2-SVP_def2J_scf_cas1_ras12i11
MULTISTATE
7 1 2 3 4 5 6 7
SHIFT
0.35
MAXITER
50
END OF INPUT

-- ----------------------------------

--- Start Module: seward at Tue Jun 10 18:40:26 2025 ---
 
()()()()()()()()()()()()()()()()()()()()()()()()()()()()()()()()()()()()()()()()()()()()()()()()()()

                                              &SEWARD

                                   only a single process is used
                       available to each process: 2.0 GB of memory, 1 thread
                                            pid: 3122886
()()()()()()()()()()()()()()()()()()()()()()()()()()()()()()()()()()()()()()()()()()()()()()()()()()
 
               SEWARD will generate:
                  Multipole Moment integrals up to order  2
                  Kinetic Energy integrals
                  Nuclear Attraction integrals (point charge)
                  One-Electron Hamiltonian integrals
                  Velocity integrals
                  Orbital angular momentum around ( 0.0000  0.0000  0.0000 )
                  Velocity quadrupole around ( 3.1294  1.3326 -1.8823 )
                  Two-Electron Repulsion integrals
 
 Title:
            orca_geometry_optimisation_240_90_BP86_def2-SVP_def2J_scf_cas1_ras12i11     
 
 
                   Integrals are discarded if absolute value <: 0.10E-13
                   Integral cutoff threshold is set to       <: 0.10E-15
 
++    Symmetry information:
      ---------------------
 
                    Character Table for C1 
 
                             E  
                    a        1  x, y, xy, Rz, z, xz, Ry, yz, Rx, I
--
 
 
++    Basis set information:
      ----------------------
 
 
      Basis set label: C.ANO-S...4S3P1D......
 
      Electronic valence basis set:
      ------------------
      Associated Effective Charge   6.000000 au
      Associated Actual Charge      6.000000 au
      Nuclear Model: Point charge
 
      Shell  nPrim  nBasis  Cartesian Spherical Contaminant
         s      10       4        X                  
         p       6       3        X                  
         d       3       1                 X         
 
 
      Basis set label: N.ANO-S...4S3P1D......
 
      Electronic valence basis set:
      ------------------
      Associated Effective Charge   7.000000 au
      Associated Actual Charge      7.000000 au
      Nuclear Model: Point charge
 
      Shell  nPrim  nBasis  Cartesian Spherical Contaminant
         s      10       4        X                  
         p       6       3        X                  
         d       3       1                 X         
 
 
      Basis set label: O.ANO-S...4S3P1D......
 
      Electronic valence basis set:
      ------------------
      Associated Effective Charge   8.000000 au
      Associated Actual Charge      8.000000 au
      Nuclear Model: Point charge
 
      Shell  nPrim  nBasis  Cartesian Spherical Contaminant
         s      10       4        X                  
         p       6       3        X                  
         d       3       1                 X         
 
 
      Basis set label: H.ANO-S...2S1P......
 
      Electronic valence basis set:
      ------------------
      Associated Effective Charge   1.000000 au
      Associated Actual Charge      1.000000 au
      Nuclear Model: Point charge
 
      Shell  nPrim  nBasis  Cartesian Spherical Contaminant
         s       7       2        X                  
         p       3       1        X                  
--
 
 
++    Molecular structure info:
      -------------------------
 
                    ************************************************ 
                    **** Cartesian Coordinates / Bohr, Angstrom **** 
                    ************************************************ 
 
     Center  Label                x              y              z                     x              y              z
        1      C1              -0.047546      -0.105347      -0.107187             -0.025160      -0.055747      -0.056721
        2      C3               3.979771       2.275194      -0.093700              2.106004       1.203981      -0.049584
        3      C4               5.742819       2.369263      -2.405782              3.038969       1.253760      -1.273085
        4      C6               5.938950       3.516739      -6.939498              3.142757       1.860978      -3.672224
        5      C19             -1.253414      -2.708189       0.145103             -0.663278      -1.433112       0.076785
        6      N2               2.554721      -0.073873      -0.039121              1.351900      -0.039092      -0.020702
        7      N5               4.661100       3.418431      -4.516963              2.466548       1.808956      -2.390274
        8      O7              -1.312351       1.832214      -0.358855             -0.694466       0.969566      -0.189898
        9      O8               7.895431       1.490314      -2.345417              4.178082       0.788640      -1.241141
       10      H9              -2.389307      -2.753093       1.904986             -1.264367      -1.456874       1.008075
       11      H10             -2.585108      -2.989405      -1.445047             -1.367980      -1.581925      -0.764686
       12      H11              0.118159      -4.289159       0.183124              0.062527      -2.269725       0.096905
       13      H12              3.535075      -1.723903       0.160425              1.870681      -0.912250       0.084893
       14      H13              2.559829       3.814985      -0.095087              1.354603       2.018803      -0.050318
       15      H14              5.190766       2.451854       1.609803              2.746835       1.297465       0.851871
       16      H15              2.827047       4.011679      -4.396421              1.496009       2.122889      -2.326486
       17      H16              4.969413       2.339332      -8.383921              2.629700       1.237921      -4.436580
       18      H17              6.069638       5.482111      -7.664669              3.211914       2.901008      -4.055968
       19      H18              7.871114       2.770917      -6.649215              4.165214       1.466306      -3.518613
 
                    ************************************************* 
                    **** InterNuclear Distances / Bohr, Angstrom **** 
                    ************************************************* 
 
     Atom centers         Bohr        Angstrom
   13 H12       6 N2      1.929640        1.021121
   16 H15       7 N5      1.931378        1.022041
   19 H18       4 C6      2.091356        1.106698
   11 H10       5 C19     2.093100        1.107621
   12 H11       5 C19     2.093352        1.107754
   14 H13       2 C3      2.094562        1.108395
   10 H9        5 C19     2.095104        1.108681
   15 H14       2 C3      2.097532        1.109966
   18 H17       4 C6      2.098961        1.110723
   17 H16       4 C6      2.100631        1.111606
    9 O8        3 C4      2.325926        1.230827
    8 O7        1 C1      2.327490        1.231655
    7 N5        3 C4      2.593830        1.372596
    6 N2        1 C1      2.603347        1.377632
    7 N5        4 C6      2.740664        1.450297
    6 N2        2 C3      2.748066        1.454214
    5 C19       1 C1      2.879680        1.523861
    3 C4        2 C3      2.909108        1.539434
   11 H10      10 H9      3.364060        1.780184
   18 H17      17 H16     3.406593        1.802692
   12 H11      10 H9      3.407593        1.803221
   19 H18      17 H16     3.408128        1.803504
   19 H18      18 H17     3.409844        1.804412
   12 H11      11 H10     3.412909        1.806034
   15 H14      14 H13     3.418568        1.809028
   14 H13       6 N2      3.889264        2.058110
   16 H15       3 C4      3.893828        2.060525
   19 H18       7 N5      3.907680        2.067855
   13 H12       1 C1      3.940369        2.085153
   15 H14       6 N2      4.005868        2.119814
   18 H17       7 N5      4.018806        2.126660
   17 H16       7 N5      4.026522        2.130743
   13 H12       2 C3      4.031763        2.133517
   16 H15       4 C6      4.049215        2.142752
   15 H14       3 C4      4.054196        2.145388
   10 H9        1 C1      4.067339        2.152343
   11 H10       1 C1      4.067786        2.152580
   14 H13       3 C4      4.190567        2.217552
   12 H11       1 C1      4.197144        2.221033
   13 H12      12 H11     4.272747        2.261040
   16 H15      14 H13     4.314113        2.282930
    8 O7        6 N2      4.323152        2.287713
    9 O8        7 N5      4.346740        2.300196
   14 H13       8 O7      4.358294        2.306310
   19 H18       9 O8      4.490347        2.376189
    8 O7        5 C19     4.568666        2.417634
    9 O8        2 C3      4.584611        2.426072
    7 N5        2 C3      4.619140        2.444344
    6 N2        5 C19     4.634161        2.452292
    6 N2        3 C4      4.661971        2.467009
    2 C3        1 C1      4.678294        2.475646
    4 C6        3 C4      4.680785        2.476965
   14 H13       1 C1      4.708242        2.491494
   15 H14      13 H12     4.720058        2.497747
   19 H18       3 C4      4.764209        2.521111
   16 H15       2 C3      4.780958        2.529974
   17 H16      16 H15     4.825622        2.553609
   18 H17      16 H15     4.833012        2.557520
   12 H11       6 N2      4.873896        2.579154
   15 H14       9 O8      4.887078        2.586130
   13 H12       5 C19     4.888627        2.586950
   14 H13       7 N5      4.911780        2.599202
   11 H10       8 O7      5.103698        2.700761
   10 H9        8 O7      5.225883        2.765418
   13 H12       3 C4      5.311643        2.810801
    8 O7        2 C3      5.317244        2.813764
    9 O8        4 C6      5.388859        2.851661
   14 H13      13 H12     5.629890        2.979210
   19 H18      16 H15     5.661906        2.996151
--
 
 
            Nuclear Potential Energy            451.79685701 au
 
 
      Basis set specifications :
      Symmetry species         a  
      Basis functions          212
 
 
      Input file to MOLDEN was generated!
 
--- Stop Module: seward at Tue Jun 10 18:42:15 2025 /rc=_RC_ALL_IS_WELL_ ---
*** files: orca_geometry_optimisation_240_90_BP86_def2-SVP_def2J_scf_cas1_ras12i11_cas8.GssOrb
           orca_geometry_optimisation_240_90_BP86_def2-SVP_def2J_scf_cas1_ras12i11_cas8.guessorb.molden xmldump
    saved to directory /home/pcaah4/diamide_project
--- Module seward spent 1 minute 49 seconds ---

*** symbolic link created: INPORB -> orca_geometry_optimisation_240_90_BP86_def2-SVP_def2J_scf_cas1_ras12i11_cas8.GssOrb
--- Start Module: rasscf at Tue Jun 10 18:42:16 2025 ---
 
()()()()()()()()()()()()()()()()()()()()()()()()()()()()()()()()()()()()()()()()()()()()()()()()()()

                                              &RASSCF

                                   only a single process is used
                       available to each process: 2.0 GB of memory, 1 thread
                                            pid: 3122912
()()()()()()()()()()()()()()()()()()()()()()()()()()()()()()()()()()()()()()()()()()()()()()()()()()
 
 
      Header of the ONEINT file:
      --------------------------
      orca_geometry_optimisation_240_90_BP86_def2-SVP_def2J_scf_cas1_ras12i11
      Integrals generated by Gateway/Seward, Tue Jun 10 18:40:26 2025
 
 
      OrdInt status: non-squared
 
 
      Cartesian coordinates in Angstrom:
      -----------------------------------------------------
      No.  Label        X            Y            Z        
      -----------------------------------------------------
       1   C1        -0.02516000  -0.05574700  -0.05672100
       2   C3         2.10600400   1.20398100  -0.04958400
       3   C4         3.03896900   1.25376000  -1.27308500
       4   C6         3.14275700   1.86097800  -3.67222400
       5   C19       -0.66327800  -1.43311200   0.07678500
       6   N2         1.35190000  -0.03909200  -0.02070200
       7   N5         2.46654800   1.80895600  -2.39027400
       8   O7        -0.69446600   0.96956600  -0.18989800
       9   O8         4.17808200   0.78864000  -1.24114100
      10   H9        -1.26436700  -1.45687400   1.00807500
      11   H10       -1.36798000  -1.58192500  -0.76468600
      12   H11        0.06252700  -2.26972500   0.09690500
      13   H12        1.87068100  -0.91225000   0.08489300
      14   H13        1.35460300   2.01880300  -0.05031800
      15   H14        2.74683500   1.29746500   0.85187100
      16   H15        1.49600900   2.12288900  -2.32648600
      17   H16        2.62970000   1.23792100  -4.43658000
      18   H17        3.21191400   2.90100800  -4.05596800
      19   H18        4.16521400   1.46630600  -3.51861300
      -----------------------------------------------------
      Nuclear repulsion energy =  451.79685701
 
++    Wave function specifications:
      -----------------------------
 
      Number of closed shell electrons          58
      Number of electrons in active shells      12
      Max number of holes in RAS1 space          0
      Max nr of electrons in RAS3 space          0
      Number of inactive orbitals               29
      Number of active orbitals                  8
      Number of secondary orbitals             172
      Spin quantum number                      0.0
      State symmetry                             1
--
 
++    Orbital specifications:
      -----------------------
 
      Symmetry species                           1
                                                 a
      Frozen orbitals                            0
      Inactive orbitals                         29
      Active orbitals                            8
      RAS1 orbitals                              0
      RAS2 orbitals                              8
      RAS3 orbitals                              0
      Secondary orbitals                       172
      Deleted orbitals                           3
      Number of basis functions                212
--
 
++    CI expansion specifications:
      ----------------------------
 
      Number of CSFs                           336
      Number of determinants                   406
      Number of root(s) required                 7
      Root chosen for geometry opt.              7
      CI roots used                              1     2     3     4     5     6     7
      weights                                0.143 0.143 0.143 0.143 0.143 0.143 0.143
      highest root included in the CI            7
      max. size of the explicit Hamiltonian    200
--
 
++    Optimization specifications:
      ----------------------------
 
      RASSCF algorithm: Conventional
      Maximum number of macro iterations        64
      Maximum number of SX iterations           25
      Threshold for RASSCF energy            0.100E-07
      Threshold for max MO rotation          0.100E+00
      Threshold for max BLB element          0.100E-03
      Level shift parameter                  0.300E+00
      Make Quasi-Newton update
--
 
      The MO-coefficients are taken from the file:
      /home/pcaah4/diamide_project/cas/ras12i11/ras_orb/orca_geometry_optimisation_240_90_BP86_def2-SVP_def2J_scf_cas1_ras12i11.RasOrb                                                                                                                                
      Title: RASSCF average (pseudo-natural) orbitals                                      
 
      Total molecular charge    0.00
 
      Molecular orbitals exchanged:
        In symmetry  1 :  36  38
        In symmetry  1 :  37  40
 
 
      ************************************************************************************************************************
      *                                                                                                                      *
      *                                            Wave function control section                                             *
      *                                                                                                                      *
      ************************************************************************************************************************
 
 
                                         RASSCF iterations: Energy and convergence statistics
                                         ----------------------------------------------------
 
      Iter CI   SX   CI       RASSCF       Energy    max ROT     max BLB   max BLB  Level Ln srch  Step   QN   Walltime
          iter iter root      energy       change     param      element    value   shift minimum  type update hh:mm:ss
 Nr of preliminary CI iterations:   4
        1   1   23    0  -453.70119680    0.00E+00  -0.24E-01   33  40 1 -0.24E-01*  0.16   0.00    SX    NO    0:00:13
        2   4   12    0  -453.70667787   -0.55E-02*  0.11E-01   33  40 1 -0.44E-02*  0.16   0.00    SX    NO    0:00:06
        3   3   12    0  -453.70720926   -0.53E-03*  0.59E-02   33  40 1 -0.35E-02*  0.17   0.00    SX    NO    0:00:06
        4   4   12    0  -453.70739576   -0.19E-03*  0.33E-02   32  40 1 -0.86E-03*  0.17   0.00    SX    NO    0:00:06
        5   3   11    0  -453.70743342   -0.38E-04*  0.38E-02   21  68 1  0.67E-03*  0.17   1.29    QN   YES    0:00:07
        6   4   10    0  -453.70745242   -0.19E-04* -0.73E-03   13 209 1 -0.18E-03*  0.17   1.09    QN   YES    0:00:07
        7   3    9    0  -453.70745401   -0.16E-05* -0.76E-03   32  40 1  0.11E-03*  0.17   1.33    QN   YES    0:00:06
        8   4    8    0  -453.70745449   -0.48E-06*  0.14E-03   33  40 1  0.94E-04   0.17   0.92    QN   YES    0:00:06
        9   3    7    0  -453.70745458   -0.81E-07*  0.23E-03   33  40 1  0.19E-04   0.17   1.50    QN   YES    0:00:06
       10   3    7    0  -453.70745460   -0.25E-07*  0.72E-04   33  40 1 -0.16E-04   0.17   1.14    QN   YES    0:00:06
       11   1    6    0  -453.70745461   -0.51E-08  -0.64E-04   33  40 1 -0.12E-04   0.17   1.79    QN   YES    0:00:06
      Convergence after 11 iterations
       12   1    6    0  -453.70745461   -0.24E-08  -0.64E-04   21  68 1  0.13E-05   0.17   1.79    QN   YES    0:00:06
 
      ************************************************************************************************************************
                                                      Wave function printout:
                       occupation of active orbitals, and spin coupling of open shells (u,d: Spin up or down)
      ************************************************************************************************************************
 
      Note: transformation to natural orbitals
      has been made, which may change the order of the CSFs.
 
      printout of CI-coefficients larger than  0.05 for root  1
      energy=    -453.959890
      conf/sym  11111111     Coeff  Weight
             1  22222200   0.96066 0.92287
             3  2222u2d0   0.15178 0.02304
             6  22220220  -0.07446 0.00554
            15  22222002  -0.08669 0.00752
            61  2u2222d0   0.07538 0.00568
            63  2u22d220  -0.06047 0.00366
            84  u222220d   0.08575 0.00735
           171  20222220  -0.09440 0.00891
           195  02222202  -0.07803 0.00609
 
      printout of CI-coefficients larger than  0.05 for root  2
      energy=    -453.748267
      conf/sym  11111111     Coeff  Weight
            21  222u22d0  -0.94843 0.89951
            23  222ud220   0.08514 0.00725
            24  222u220d   0.16033 0.02571
            35  222u20d2  -0.08374 0.00701
           111  22ud2220  -0.07688 0.00591
           121  2u2d2220   0.17899 0.03204
           213  u22u22dd  -0.07074 0.00500
           270  022u22d2   0.07841 0.00615
 
      printout of CI-coefficients larger than  0.05 for root  3
      energy=    -453.740445
      conf/sym  11111111     Coeff  Weight
             8  2222u20d  -0.31092 0.09667
            44  22u2220d  -0.89255 0.79665
            46  22u2d2ud  -0.06863 0.00471
            48  22u2u2dd  -0.11237 0.01263
            52  22u2022d   0.07871 0.00620
            53  22u22d02   0.17569 0.03087
           165  u2d22202   0.12973 0.01683
           219  2uu222dd   0.06090 0.00371
           293  20u2222d  -0.08712 0.00759
 
      printout of CI-coefficients larger than  0.05 for root  4
      energy=    -453.649051
      conf/sym  11111111     Coeff  Weight
             1  22222200   0.06424 0.00413
             3  2222u2d0  -0.34589 0.11964
             6  22220220  -0.07676 0.00589
             7  22222u0d  -0.77140 0.59505
             8  2222u20d   0.37466 0.14037
            12  2222uudd   0.08119 0.00659
            14  22220u2d  -0.06513 0.00424
            15  22222002  -0.07757 0.00602
            16  2222ud02   0.05844 0.00342
            44  22u2220d  -0.12128 0.01471
            63  2u22d220   0.09051 0.00819
            66  2u22d2ud  -0.05650 0.00319
            67  2u222udd   0.05637 0.00318
            68  2u22u2dd  -0.06879 0.00473
            84  u222220d   0.10461 0.01094
            93  u2222d02   0.17256 0.02978
           173  20222u2d  -0.07335 0.00538
 
      printout of CI-coefficients larger than  0.05 for root  5
      energy=    -453.634659
      conf/sym  11111111     Coeff  Weight
             1  22222200   0.07669 0.00588
             3  2222u2d0  -0.47638 0.22694
             6  22220220  -0.10316 0.01064
             7  22222u0d   0.53702 0.28839
             8  2222u20d   0.54393 0.29586
            12  2222uudd  -0.05898 0.00348
            24  222u220d   0.12055 0.01453
            28  222uu2dd  -0.05412 0.00293
            44  22u2220d  -0.20838 0.04342
            63  2u22d220   0.12713 0.01616
            64  2u22220d  -0.05700 0.00325
            66  2u22d2ud  -0.09321 0.00869
            68  2u22u2dd  -0.10871 0.01182
            88  u222u2dd  -0.05297 0.00281
            93  u2222d02  -0.15052 0.02266
           171  20222220   0.05169 0.00267
           173  20222u2d   0.05002 0.00250
           174  2022u22d   0.06739 0.00454
 
      printout of CI-coefficients larger than  0.05 for root  6
      energy=    -453.618497
      conf/sym  11111111     Coeff  Weight
             1  22222200   0.08350 0.00697
             3  2222u2d0  -0.58853 0.34637
             6  22220220  -0.10091 0.01018
             8  2222u20d  -0.58693 0.34448
            16  2222ud02  -0.05241 0.00275
            18  2222u0d2  -0.05554 0.00308
            21  222u22d0   0.07196 0.00518
            24  222u220d   0.35690 0.12738
            26  222ud2ud  -0.09253 0.00856
            28  222uu2dd  -0.12840 0.01649
            44  22u2220d   0.17369 0.03017
            63  2u22d220   0.15406 0.02374
            66  2u22d2ud   0.10248 0.01050
            68  2u22u2dd   0.15635 0.02444
           171  20222220   0.05093 0.00259
           174  2022u22d  -0.09088 0.00826
 
      printout of CI-coefficients larger than  0.05 for root  7
      energy=    -453.601374
      conf/sym  11111111     Coeff  Weight
             1  22222200  -0.05017 0.00252
             3  2222u2d0   0.35918 0.12901
             6  22220220   0.07950 0.00632
             8  2222u20d   0.15194 0.02309
            21  222u22d0   0.12775 0.01632
            24  222u220d   0.78575 0.61741
            26  222ud2ud  -0.21055 0.04433
            28  222uu2dd  -0.28624 0.08193
            41  22u222d0  -0.05624 0.00316
            44  22u2220d  -0.06120 0.00375
            63  2u22d220  -0.09270 0.00859
            84  u222220d  -0.06045 0.00365
           112  22ud22ud  -0.09346 0.00873
           201  22uu22dd   0.08911 0.00794
           209  2u2ud22d  -0.07157 0.00512
           261  202u222d   0.06986 0.00488
 
      Natural orbitals and occupation numbers for root  1
      sym 1:   1.968393   1.995691   1.999829   1.999700   1.955120   1.994684   0.049431   0.037152
 
      Natural orbitals and occupation numbers for root  2
      sym 1:   1.968641   1.999767   1.999478   1.003078   1.998802   1.995258   0.997564   0.037412
 
      Natural orbitals and occupation numbers for root  3
      sym 1:   1.999751   1.992951   1.004704   1.998673   1.954284   1.997961   0.051791   0.999885
 
      Natural orbitals and occupation numbers for root  4
      sym 1:   1.963120   1.954444   1.998695   1.999068   1.848589   1.175399   0.184399   0.876286
 
      Natural orbitals and occupation numbers for root  5
      sym 1:   1.992707   1.936328   1.975070   1.997272   1.162121   1.835394   0.216306   0.884802
 
      Natural orbitals and occupation numbers for root  6
      sym 1:   1.997753   1.956840   1.987393   1.907445   1.115272   1.982735   0.167305   0.885257
 
      Natural orbitals and occupation numbers for root  7
      sym 1:   1.997961   1.969977   1.992294   1.284661   1.815008   1.981606   0.227708   0.730786
 
      ************************************************************************************************************************
      *                                                                                                                      *
      *                                                    Final results                                                     *
      *                                                                                                                      *
      ************************************************************************************************************************
 
 
++    Wave function specifications:
      -----------------------------
 
      Number of closed shell electrons          58
      Number of electrons in active shells      12
      Max number of holes in RAS1 space          0
      Max nr of electrons in RAS3 space          0
      Number of inactive orbitals               29
      Number of active orbitals                  8
      Number of secondary orbitals             172
      Spin quantum number                      0.0
      State symmetry                             1
--
 
++    Orbital specifications:
      -----------------------
 
      Symmetry species                           1
                                                 a
      Frozen orbitals                            0
      Inactive orbitals                         29
      Active orbitals                            8
      RAS1 orbitals                              0
      RAS2 orbitals                              8
      RAS3 orbitals                              0
      Secondary orbitals                       172
      Deleted orbitals                           3
      Number of basis functions                212
--
 
++    CI expansion specifications:
      ----------------------------
 
      Number of CSFs                           336
      Number of determinants                   406
      Number of root(s) required                 7
      CI roots used                              1     2     3     4     5     6     7
      weights                                0.143 0.143 0.143 0.143 0.143 0.143 0.143
      highest root included in the CI            7
      Root passed to geometry opt.               7
--
 
++    Final optimization conditions:
      ------------------------------
 
      Average CI energy                            -453.70745461
      RASSCF energy for state  7                   -453.60137390
      Super-CI energy                                -0.00000000
      RASSCF energy change                            0.00000000
      Max change in MO coefficients               0.675E-04
      Max non-diagonal density matrix element    -0.640E-04
      Maximum BLB matrix element                  0.128E-05
      (orbital pair  21,  68 in symmetry   1)
      Norm of electronic gradient            0.288E+00
--
 
 
      Final state energy(ies):
      ------------------------
 
::    RASSCF root number  1 Total energy:   -453.95989026
::    RASSCF root number  2 Total energy:   -453.74826657
::    RASSCF root number  3 Total energy:   -453.74044485
::    RASSCF root number  4 Total energy:   -453.64905125
::    RASSCF root number  5 Total energy:   -453.63465891
::    RASSCF root number  6 Total energy:   -453.61849653
::    RASSCF root number  7 Total energy:   -453.60137390
 
++    Molecular orbitals:
      -------------------
 
      Pseudonatural active orbitals and approximate occupation numbers
 
 
 
 
      Molecular orbitals for symmetry species 1: a  
 
 
      Orbital                 1         2         3         4         5         6         7         8         9        10
      Energy           -20.6028  -20.5168  -15.6385  -15.5788  -11.3442  -11.2864  -11.2849  -11.2621  -11.2591   -1.4275
      Occ. No.           2.0000    2.0000    2.0000    2.0000    2.0000    2.0000    2.0000    2.0000    2.0000    2.0000
 
     1 C1     1s         0.0003   -0.0000    0.0002   -0.0001    0.9999    0.0001   -0.0001    0.0038   -0.0000   -0.0387
     2 C1     2s         0.0007   -0.0004    0.0006   -0.0004    0.0019   -0.0009   -0.0004    0.0004   -0.0002    0.3563
     3 C1     3s        -0.0007   -0.0003    0.0000   -0.0003   -0.0004   -0.0008   -0.0003    0.0007   -0.0002   -0.0030
     4 C1     4s        -0.0004   -0.0001   -0.0000   -0.0001    0.0012   -0.0003   -0.0001    0.0002   -0.0001    0.0039
     5 C1     2px       -0.0012   -0.0004    0.0016   -0.0005    0.0015    0.0001   -0.0004    0.0004   -0.0003   -0.0444
     6 C1     3px       -0.0008   -0.0003    0.0012   -0.0006    0.0016   -0.0002   -0.0005   -0.0001   -0.0004    0.0257
     7 C1     4px        0.0001    0.0000   -0.0001   -0.0001    0.0005   -0.0003   -0.0001   -0.0002   -0.0001   -0.0136
     8 C1     2py        0.0029   -0.0002    0.0000   -0.0001    0.0012    0.0001   -0.0003    0.0006   -0.0002    0.0962
     9 C1     3py        0.0020   -0.0003    0.0001   -0.0001    0.0011   -0.0004   -0.0002   -0.0002   -0.0003   -0.0685
    10 C1     4py       -0.0004   -0.0001    0.0001   -0.0000    0.0008   -0.0004    0.0000   -0.0003   -0.0001    0.0224
    11 C1     2pz       -0.0004   -0.0002    0.0001   -0.0000   -0.0001   -0.0000    0.0001   -0.0000    0.0000   -0.0107
    12 C1     3pz       -0.0002   -0.0004    0.0000   -0.0000   -0.0002   -0.0000    0.0001    0.0000    0.0001    0.0083
    13 C1     4pz        0.0000   -0.0001    0.0000   -0.0000   -0.0001   -0.0000   -0.0000    0.0000    0.0000   -0.0030
    14 C1     3d2-       0.0002   -0.0000    0.0001    0.0000   -0.0004   -0.0000   -0.0000   -0.0000    0.0000   -0.0326
    15 C1     3d1-       0.0000   -0.0000    0.0000    0.0000   -0.0001    0.0000    0.0000   -0.0000    0.0000   -0.0074
    16 C1     3d0       -0.0000    0.0000    0.0001    0.0000   -0.0004   -0.0001    0.0000   -0.0001    0.0000   -0.0271
    17 C1     3d1+      -0.0000   -0.0000   -0.0000   -0.0000    0.0001    0.0000    0.0000    0.0000   -0.0000    0.0048
    18 C1     3d2+       0.0001   -0.0000   -0.0002   -0.0000   -0.0000    0.0000    0.0000    0.0000    0.0000   -0.0103
    19 C3     1s         0.0001    0.0002    0.0002    0.0001   -0.0002    0.9787   -0.2022   -0.0000    0.0000   -0.0088
    20 C3     2s         0.0006    0.0011    0.0013    0.0010    0.0002   -0.0019   -0.0003   -0.0006    0.0007    0.0188
    21 C3     3s         0.0004    0.0007    0.0007    0.0007    0.0001   -0.0030   -0.0001   -0.0004    0.0004   -0.0180
    22 C3     4s         0.0001    0.0001    0.0001    0.0001   -0.0000    0.0006   -0.0003   -0.0000    0.0000   -0.0023
    23 C3     2px       -0.0001   -0.0005   -0.0005    0.0004    0.0005   -0.0009    0.0004   -0.0002   -0.0003   -0.0188
    24 C3     3px        0.0001   -0.0006   -0.0002    0.0004    0.0009   -0.0010   -0.0000   -0.0004   -0.0006   -0.0062
    25 C3     4px        0.0001   -0.0001    0.0001   -0.0000    0.0003   -0.0006   -0.0000   -0.0001   -0.0002   -0.0050
    26 C3     2py       -0.0001    0.0001   -0.0007   -0.0005    0.0003   -0.0001    0.0003    0.0001    0.0001   -0.0167
    27 C3     3py        0.0000    0.0001   -0.0001   -0.0004    0.0003    0.0001    0.0000   -0.0001    0.0001   -0.0030
    28 C3     4py        0.0000    0.0000    0.0002    0.0001    0.0000   -0.0008    0.0000   -0.0001   -0.0000   -0.0043
    29 C3     2pz       -0.0001   -0.0004   -0.0007    0.0002   -0.0009   -0.0001    0.0000    0.0001   -0.0005    0.0104
    30 C3     3pz       -0.0002   -0.0001   -0.0009    0.0002   -0.0011   -0.0002    0.0005    0.0001   -0.0004    0.0155
    31 C3     4pz       -0.0000    0.0002   -0.0001    0.0001   -0.0001   -0.0002    0.0001    0.0000    0.0000    0.0026
    32 C3     3d2-       0.0000    0.0000   -0.0000   -0.0000    0.0000   -0.0001    0.0000   -0.0000    0.0000    0.0036
    33 C3     3d1-       0.0000   -0.0001   -0.0000   -0.0000    0.0000   -0.0000    0.0001    0.0000   -0.0000    0.0001
    34 C3     3d0       -0.0000    0.0001    0.0001    0.0000   -0.0001   -0.0000   -0.0000    0.0000    0.0000   -0.0021
    35 C3     3d1+      -0.0000    0.0000   -0.0000    0.0000   -0.0000    0.0001   -0.0000   -0.0000   -0.0001   -0.0004
    36 C3     3d2+      -0.0000   -0.0001    0.0001    0.0000    0.0000    0.0001   -0.0000    0.0000    0.0000   -0.0005
    37 C4     1s         0.0000    0.0003    0.0000    0.0002   -0.0002    0.2023    0.9793    0.0001    0.0003    0.0003
    38 C4     2s         0.0002    0.0008    0.0001    0.0010   -0.0015    0.0013    0.0023    0.0005   -0.0004    0.0281
    39 C4     3s         0.0001   -0.0005    0.0002    0.0005   -0.0012    0.0003   -0.0000    0.0004   -0.0003    0.0096
    40 C4     4s        -0.0000   -0.0004    0.0000    0.0001   -0.0004    0.0003    0.0013    0.0001   -0.0002    0.0033
    41 C4     2px       -0.0002    0.0029   -0.0004   -0.0005    0.0001   -0.0005   -0.0001   -0.0001    0.0003    0.0015
    42 C4     3px       -0.0002    0.0019   -0.0004   -0.0004    0.0000   -0.0000   -0.0001   -0.0002    0.0000    0.0019
    43 C4     4px       -0.0000   -0.0003    0.0000    0.0000   -0.0000    0.0002    0.0001   -0.0000   -0.0002   -0.0005
    44 C4     2py       -0.0001   -0.0012    0.0002    0.0005   -0.0001    0.0001    0.0001    0.0001   -0.0002   -0.0019
    45 C4     3py       -0.0001   -0.0009    0.0000    0.0003   -0.0002    0.0003    0.0000    0.0001   -0.0002    0.0036
    46 C4     4py       -0.0000    0.0001   -0.0001   -0.0001   -0.0001    0.0002   -0.0001    0.0000   -0.0001    0.0012
    47 C4     2pz       -0.0002   -0.0001    0.0003   -0.0014   -0.0001    0.0014   -0.0009    0.0002    0.0003    0.0033
    48 C4     3pz       -0.0004    0.0000    0.0006   -0.0010   -0.0001    0.0012   -0.0006    0.0002    0.0009    0.0024
    49 C4     4pz       -0.0001    0.0001    0.0002    0.0001    0.0000   -0.0000   -0.0004    0.0000    0.0005    0.0011
    50 C4     3d2-       0.0000    0.0001    0.0000    0.0001    0.0000    0.0000   -0.0004   -0.0000   -0.0000   -0.0010
    51 C4     3d1-      -0.0000   -0.0001    0.0000    0.0001    0.0000   -0.0000   -0.0001   -0.0000   -0.0000   -0.0008
    52 C4     3d0        0.0000    0.0001    0.0000   -0.0000    0.0000   -0.0000   -0.0001    0.0000    0.0001   -0.0003
    53 C4     3d1+      -0.0000   -0.0000    0.0000   -0.0002   -0.0000   -0.0000    0.0002    0.0000    0.0000   -0.0000
    54 C4     3d2+       0.0000   -0.0001   -0.0000   -0.0000   -0.0000    0.0000    0.0003    0.0000    0.0000    0.0013
    55 C6     1s        -0.0001    0.0001   -0.0001    0.0003   -0.0001   -0.0000   -0.0004    0.0000    0.9997    0.0019
    56 C6     2s        -0.0005    0.0008   -0.0009    0.0014   -0.0006   -0.0001   -0.0001    0.0000    0.0000    0.0166
    57 C6     3s        -0.0004    0.0006   -0.0006    0.0003   -0.0005   -0.0001   -0.0003    0.0001   -0.0016    0.0126
    58 C6     4s        -0.0001    0.0001   -0.0002   -0.0001   -0.0002   -0.0001   -0.0002    0.0000    0.0009    0.0038
    59 C6     2px       -0.0000    0.0001    0.0001   -0.0003   -0.0000   -0.0001   -0.0000   -0.0001   -0.0002   -0.0028
    60 C6     3px       -0.0000    0.0000    0.0001    0.0000    0.0000   -0.0001   -0.0001   -0.0000    0.0002   -0.0023
    61 C6     4px       -0.0000   -0.0000    0.0000    0.0001    0.0000    0.0000   -0.0001    0.0000   -0.0003   -0.0001
    62 C6     2py        0.0000    0.0000   -0.0002    0.0001   -0.0002   -0.0002    0.0002    0.0000    0.0000    0.0027
    63 C6     3py        0.0000    0.0001   -0.0002    0.0002   -0.0001   -0.0002    0.0003    0.0000   -0.0000    0.0023
    64 C6     4py       -0.0000    0.0000    0.0000    0.0000    0.0000   -0.0000    0.0001   -0.0000   -0.0000   -0.0003
    65 C6     2pz       -0.0002    0.0004   -0.0002    0.0004   -0.0003    0.0000   -0.0004    0.0000   -0.0001    0.0074
    66 C6     3pz       -0.0002    0.0003   -0.0002   -0.0002   -0.0003   -0.0001   -0.0005    0.0001   -0.0002    0.0070
    67 C6     4pz        0.0000   -0.0000   -0.0000   -0.0002   -0.0000   -0.0001   -0.0001    0.0000    0.0006    0.0009
    68 C6     3d2-       0.0000   -0.0000    0.0000    0.0001    0.0000   -0.0000   -0.0000    0.0000    0.0000   -0.0000
    69 C6     3d1-       0.0000   -0.0000   -0.0000   -0.0000    0.0000   -0.0000   -0.0000   -0.0000   -0.0000   -0.0001
    70 C6     3d0       -0.0000    0.0000   -0.0000   -0.0000    0.0000    0.0000    0.0000   -0.0000   -0.0000    0.0002
    71 C6     3d1+       0.0000   -0.0000    0.0000    0.0001    0.0000   -0.0000    0.0000   -0.0000    0.0001   -0.0004
    72 C6     3d2+      -0.0000    0.0000    0.0000   -0.0001    0.0000    0.0000   -0.0000   -0.0000   -0.0001   -0.0001
    73 C19    1s         0.0002   -0.0001   -0.0000    0.0000    0.0037    0.0002   -0.0000   -1.0000   -0.0000   -0.0146
    74 C19    2s         0.0011   -0.0004   -0.0001   -0.0000    0.0007    0.0009    0.0000   -0.0020   -0.0001   -0.0129
    75 C19    3s         0.0007   -0.0004   -0.0000   -0.0001    0.0004    0.0005    0.0000    0.0004   -0.0002   -0.0399
    76 C19    4s         0.0001   -0.0001   -0.0000   -0.0001    0.0002    0.0000    0.0000   -0.0013   -0.0001   -0.0039
    77 C19    2px        0.0008   -0.0001   -0.0004    0.0001   -0.0001    0.0002    0.0001    0.0001   -0.0000   -0.0095
    78 C19    3px        0.0005   -0.0001   -0.0003    0.0001   -0.0003    0.0002    0.0001    0.0001   -0.0000   -0.0073
    79 C19    4px       -0.0002    0.0000   -0.0000    0.0000   -0.0000   -0.0000    0.0000   -0.0002    0.0000    0.0079
    80 C19    2py       -0.0001   -0.0002    0.0003   -0.0002    0.0005    0.0003   -0.0001    0.0003   -0.0001    0.0210
    81 C19    3py       -0.0002   -0.0001    0.0003   -0.0002    0.0000    0.0001   -0.0001    0.0000   -0.0001   -0.0064
    82 C19    4py       -0.0001    0.0000   -0.0001   -0.0000   -0.0001   -0.0001   -0.0000   -0.0004   -0.0000    0.0054
    83 C19    2pz       -0.0001   -0.0000    0.0000   -0.0001    0.0000    0.0000   -0.0000   -0.0001   -0.0001   -0.0033
    84 C19    3pz       -0.0000    0.0000    0.0000   -0.0001    0.0001    0.0001   -0.0000   -0.0000   -0.0001   -0.0005
    85 C19    4pz        0.0000    0.0000    0.0000   -0.0000    0.0000    0.0000    0.0000    0.0000    0.0000   -0.0006
    86 C19    3d2-       0.0001   -0.0000   -0.0000   -0.0000    0.0000    0.0001    0.0000    0.0001    0.0000    0.0008
    87 C19    3d1-       0.0000    0.0000   -0.0000    0.0000    0.0000   -0.0000    0.0000   -0.0000    0.0000   -0.0007
    88 C19    3d0       -0.0001    0.0000   -0.0001   -0.0000    0.0001   -0.0000   -0.0000   -0.0001    0.0000    0.0015
    89 C19    3d1+       0.0000    0.0000    0.0000    0.0000   -0.0000   -0.0000    0.0000   -0.0000    0.0000   -0.0001
    90 C19    3d2+       0.0001    0.0000   -0.0000    0.0000   -0.0001   -0.0000    0.0000   -0.0001    0.0000   -0.0070
    91 N2     1s         0.0001    0.0000    0.9998   -0.0000   -0.0003    0.0001    0.0001   -0.0001    0.0000   -0.0173
    92 N2     2s         0.0004    0.0002    0.0001   -0.0003   -0.0004    0.0016    0.0005   -0.0006    0.0001    0.1180
    93 N2     3s         0.0003    0.0001   -0.0014   -0.0002   -0.0005    0.0008    0.0005   -0.0004    0.0001   -0.0452
    94 N2     4s         0.0001    0.0000    0.0004   -0.0000   -0.0000    0.0003    0.0001   -0.0001    0.0000   -0.0107
    95 N2     2px        0.0002   -0.0005    0.0003   -0.0005   -0.0002    0.0009    0.0000    0.0004   -0.0001   -0.0290
    96 N2     3px        0.0001   -0.0007    0.0002   -0.0006   -0.0000    0.0007    0.0001    0.0003   -0.0001    0.0185
    97 N2     4px       -0.0000   -0.0001   -0.0002    0.0000   -0.0002   -0.0001   -0.0001   -0.0001   -0.0000   -0.0054
    98 N2     2py       -0.0016   -0.0002   -0.0008   -0.0001    0.0003    0.0009    0.0002    0.0002   -0.0001    0.0359
    99 N2     3py       -0.0019   -0.0002   -0.0001   -0.0002    0.0004    0.0010    0.0003    0.0002   -0.0002    0.0130
   100 N2     4py       -0.0000   -0.0000    0.0004   -0.0000   -0.0000    0.0002   -0.0001   -0.0001   -0.0000   -0.0064
   101 N2     2pz        0.0002    0.0002    0.0003    0.0001    0.0001   -0.0001    0.0001   -0.0000    0.0001   -0.0047
   102 N2     3pz        0.0003    0.0003    0.0001    0.0001    0.0001   -0.0002    0.0001   -0.0000    0.0001   -0.0035
   103 N2     4pz        0.0000    0.0001   -0.0000    0.0000   -0.0000   -0.0001    0.0001   -0.0000    0.0000    0.0001
   104 N2     3d2-       0.0001    0.0000   -0.0002   -0.0000   -0.0001   -0.0000    0.0000    0.0000   -0.0000   -0.0028
   105 N2     3d1-      -0.0000    0.0000   -0.0000    0.0000    0.0000   -0.0000   -0.0000    0.0000    0.0000    0.0001
   106 N2     3d0       -0.0000    0.0000   -0.0000    0.0000    0.0001    0.0001   -0.0000    0.0001   -0.0000   -0.0026
   107 N2     3d1+      -0.0000    0.0000    0.0000    0.0000    0.0000   -0.0000   -0.0000   -0.0000    0.0000    0.0006
   108 N2     3d2+      -0.0001   -0.0000   -0.0000   -0.0000    0.0001   -0.0000    0.0000   -0.0000   -0.0000    0.0046
   109 N5     1s         0.0000    0.0001   -0.0000    0.9999    0.0001   -0.0000   -0.0002   -0.0000    0.0001   -0.0017
   110 N5     2s         0.0003    0.0008   -0.0003    0.0006    0.0004    0.0003   -0.0001   -0.0002    0.0017   -0.0002
   111 N5     3s         0.0002    0.0005   -0.0003   -0.0010    0.0003    0.0002   -0.0003   -0.0001    0.0010   -0.0053
   112 N5     4s         0.0000    0.0001   -0.0001    0.0006    0.0000    0.0000    0.0001   -0.0000    0.0004   -0.0010
   113 N5     2px        0.0001   -0.0014    0.0004   -0.0010    0.0003    0.0004    0.0002    0.0000    0.0003   -0.0072
   114 N5     3px        0.0002   -0.0017    0.0006   -0.0005    0.0006    0.0005    0.0000    0.0000    0.0005   -0.0120
   115 N5     4px        0.0001   -0.0000    0.0001    0.0003    0.0001    0.0001   -0.0000   -0.0000    0.0002   -0.0023
   116 N5     2py        0.0000    0.0003    0.0002    0.0003    0.0002   -0.0001   -0.0002   -0.0001    0.0001   -0.0055
   117 N5     3py        0.0000    0.0003    0.0003    0.0001    0.0004   -0.0000   -0.0001   -0.0001   -0.0000   -0.0059
   118 N5     4py        0.0000    0.0000    0.0000   -0.0002    0.0001    0.0000   -0.0001   -0.0000   -0.0001   -0.0016
   119 N5     2pz       -0.0001    0.0008   -0.0008    0.0002   -0.0004   -0.0000   -0.0001    0.0000   -0.0009    0.0123
   120 N5     3pz       -0.0002    0.0011   -0.0011    0.0001   -0.0007   -0.0003   -0.0000    0.0001   -0.0007    0.0187
   121 N5     4pz       -0.0000    0.0001   -0.0001   -0.0001   -0.0001   -0.0001    0.0003    0.0000   -0.0001    0.0037
   122 N5     3d2-      -0.0000    0.0000    0.0000   -0.0000    0.0000   -0.0000    0.0000    0.0000    0.0000   -0.0001
   123 N5     3d1-      -0.0000   -0.0000    0.0000    0.0000    0.0000   -0.0000    0.0000    0.0000    0.0000   -0.0003
   124 N5     3d0        0.0000    0.0001   -0.0000   -0.0002   -0.0000   -0.0000   -0.0001    0.0000   -0.0001    0.0002
   125 N5     3d1+      -0.0000   -0.0001   -0.0000    0.0001   -0.0000    0.0000    0.0001   -0.0000    0.0000    0.0000
   126 N5     3d2+       0.0000    0.0000   -0.0000    0.0001    0.0000    0.0000   -0.0001   -0.0000   -0.0000   -0.0001
   127 O7     1s         0.9997   -0.0000    0.0000   -0.0000   -0.0002   -0.0000    0.0000   -0.0001    0.0000   -0.0239
   128 O7     2s        -0.0013   -0.0001    0.0003   -0.0000    0.0004   -0.0001    0.0002   -0.0004    0.0000    0.6923
   129 O7     3s        -0.0013   -0.0001    0.0002   -0.0000   -0.0001   -0.0000    0.0001   -0.0003    0.0000   -0.0338
   130 O7     4s         0.0001   -0.0001    0.0000   -0.0000   -0.0000    0.0000    0.0000   -0.0001    0.0000   -0.0138
   131 O7     2px        0.0002   -0.0001   -0.0003    0.0001    0.0003   -0.0001    0.0001   -0.0001    0.0001    0.0863
   132 O7     3px       -0.0003   -0.0001   -0.0004    0.0001   -0.0001   -0.0001    0.0001   -0.0001    0.0001   -0.0254
   133 O7     4px        0.0008   -0.0000   -0.0001    0.0000    0.0001   -0.0000    0.0000    0.0000    0.0000   -0.0016
   134 O7     2py       -0.0002    0.0001   -0.0003    0.0001   -0.0007   -0.0001    0.0000    0.0002    0.0000   -0.1184
   135 O7     3py        0.0005    0.0001   -0.0002    0.0001   -0.0005   -0.0001    0.0001    0.0001    0.0000    0.0379
   136 O7     4py       -0.0011   -0.0000    0.0001    0.0000   -0.0003   -0.0001    0.0000   -0.0000    0.0000    0.0003
   137 O7     2pz        0.0000    0.0001    0.0001   -0.0000    0.0001   -0.0000   -0.0000   -0.0000   -0.0000    0.0165
   138 O7     3pz       -0.0001    0.0001    0.0000    0.0000    0.0001    0.0000   -0.0000   -0.0000   -0.0001   -0.0048
   139 O7     4pz        0.0001    0.0000   -0.0000    0.0000    0.0000    0.0000   -0.0000    0.0000   -0.0000    0.0001
   140 O7     3d2-       0.0001    0.0000    0.0000    0.0000   -0.0002    0.0000   -0.0000    0.0000   -0.0000   -0.0177
   141 O7     3d1-       0.0000   -0.0000   -0.0000    0.0000   -0.0000    0.0000    0.0000    0.0000   -0.0000   -0.0034
   142 O7     3d0       -0.0000    0.0000   -0.0001   -0.0000   -0.0001    0.0000    0.0000    0.0000    0.0000   -0.0103
   143 O7     3d1+      -0.0000    0.0000    0.0000    0.0000    0.0000   -0.0000    0.0000   -0.0000   -0.0000    0.0023
   144 O7     3d2+       0.0000    0.0000   -0.0001    0.0000   -0.0001   -0.0000    0.0000    0.0000    0.0000   -0.0066
   145 O8     1s         0.0000    0.9997    0.0000    0.0000    0.0000   -0.0000   -0.0002   -0.0000   -0.0000   -0.0013
   146 O8     2s         0.0000   -0.0013    0.0002    0.0002    0.0002    0.0003    0.0005   -0.0000   -0.0003    0.0105
   147 O8     3s         0.0000   -0.0013    0.0001    0.0001    0.0002    0.0002    0.0001   -0.0000   -0.0002   -0.0035
   148 O8     4s        -0.0000    0.0001   -0.0000    0.0000    0.0001    0.0001    0.0000   -0.0000   -0.0000   -0.0010
   149 O8     2px        0.0000   -0.0003    0.0000   -0.0000   -0.0001   -0.0002   -0.0007    0.0000    0.0001   -0.0030
   150 O8     3px        0.0000    0.0004    0.0001    0.0001   -0.0001   -0.0001   -0.0002    0.0001    0.0000    0.0021
   151 O8     4px        0.0000   -0.0013    0.0001    0.0001   -0.0000   -0.0000   -0.0002    0.0000   -0.0000   -0.0002
   152 O8     2py        0.0000    0.0001    0.0000   -0.0001    0.0001    0.0001    0.0002   -0.0000   -0.0000   -0.0018
   153 O8     3py        0.0000   -0.0002    0.0000   -0.0001    0.0000    0.0000    0.0001   -0.0000   -0.0000   -0.0013
   154 O8     4py        0.0000    0.0005   -0.0000   -0.0000    0.0000   -0.0000    0.0001    0.0000    0.0000    0.0000
   155 O8     2pz        0.0000   -0.0000   -0.0001    0.0003   -0.0000   -0.0001   -0.0001   -0.0000    0.0001    0.0001
   156 O8     3pz        0.0001   -0.0000   -0.0002    0.0003   -0.0001   -0.0002    0.0001    0.0000    0.0000    0.0009
   157 O8     4pz        0.0000   -0.0001   -0.0001    0.0000   -0.0000   -0.0000    0.0001    0.0000   -0.0000    0.0003
   158 O8     3d2-      -0.0000    0.0000   -0.0000   -0.0000    0.0000   -0.0001   -0.0001    0.0000    0.0000   -0.0001
   159 O8     3d1-      -0.0000   -0.0000    0.0000    0.0000    0.0000   -0.0000    0.0000    0.0000    0.0000    0.0000
   160 O8     3d0        0.0000    0.0001   -0.0000    0.0000   -0.0000   -0.0000   -0.0002    0.0000    0.0000   -0.0002
   161 O8     3d1+       0.0000   -0.0000    0.0000   -0.0001   -0.0000   -0.0000    0.0001   -0.0000   -0.0000   -0.0000
   162 O8     3d2+       0.0000   -0.0000   -0.0000    0.0000   -0.0000    0.0001    0.0001   -0.0000    0.0000    0.0004
   163 H9     1s         0.0003    0.0001    0.0001    0.0000    0.0001   -0.0002   -0.0001   -0.0003   -0.0000    0.0152
   164 H9     2s         0.0002    0.0001    0.0000    0.0000    0.0001   -0.0002   -0.0001    0.0003   -0.0000    0.0043
   165 H9     2px       -0.0000    0.0000    0.0000   -0.0000    0.0000   -0.0000   -0.0000    0.0000   -0.0000    0.0010
   166 H9     2py       -0.0001    0.0000   -0.0000   -0.0000    0.0001   -0.0000   -0.0000   -0.0000   -0.0000    0.0011
   167 H9     2pz       -0.0000   -0.0000    0.0000    0.0000   -0.0000    0.0000    0.0000   -0.0001    0.0000   -0.0007
   168 H10    1s         0.0001   -0.0002    0.0002   -0.0001    0.0002   -0.0001   -0.0001   -0.0003   -0.0002    0.0140
   169 H10    2s         0.0001   -0.0001    0.0001   -0.0001    0.0001   -0.0001   -0.0001    0.0003   -0.0001    0.0028
   170 H10    2px       -0.0000   -0.0000    0.0000   -0.0000    0.0000   -0.0000   -0.0000    0.0000   -0.0000    0.0009
   171 H10    2py       -0.0001   -0.0000   -0.0000    0.0000    0.0001   -0.0000   -0.0000   -0.0000   -0.0000    0.0012
   172 H10    2pz        0.0000   -0.0000   -0.0000   -0.0000    0.0000   -0.0000   -0.0000    0.0001   -0.0000    0.0006
   173 H11    1s        -0.0004   -0.0001    0.0004   -0.0002    0.0004   -0.0000   -0.0001   -0.0003   -0.0001    0.0203
   174 H11    2s        -0.0002   -0.0001    0.0004   -0.0002    0.0002   -0.0000   -0.0000    0.0002   -0.0001    0.0058
   175 H11    2px       -0.0000    0.0000   -0.0001    0.0000   -0.0000    0.0000    0.0000   -0.0001    0.0000   -0.0002
   176 H11    2py       -0.0000   -0.0000    0.0000   -0.0000    0.0001    0.0000    0.0000    0.0000   -0.0000    0.0020
   177 H11    2pz       -0.0000   -0.0000   -0.0000    0.0000   -0.0000   -0.0000    0.0000    0.0000    0.0000    0.0001
   178 H12    1s        -0.0011    0.0000   -0.0009    0.0004    0.0002   -0.0002    0.0000    0.0004   -0.0001    0.0365
   179 H12    2s        -0.0006   -0.0000   -0.0006    0.0003    0.0000   -0.0001    0.0000    0.0002   -0.0001   -0.0027
   180 H12    2px        0.0000    0.0000    0.0003    0.0000   -0.0001    0.0000   -0.0001   -0.0000    0.0000   -0.0041
   181 H12    2py       -0.0000    0.0000   -0.0005    0.0001    0.0000   -0.0000   -0.0000    0.0000   -0.0000    0.0046
   182 H12    2pz       -0.0000    0.0000    0.0001   -0.0000   -0.0000    0.0000    0.0000   -0.0000   -0.0000   -0.0005
   183 H13    1s         0.0002   -0.0000   -0.0004    0.0003   -0.0003    0.0007   -0.0003   -0.0001   -0.0002    0.0139
   184 H13    2s         0.0002    0.0000   -0.0002    0.0002   -0.0001   -0.0000   -0.0001   -0.0001   -0.0002   -0.0030
   185 H13    2px        0.0000    0.0001    0.0000    0.0000   -0.0000    0.0000   -0.0000    0.0000   -0.0000   -0.0005
   186 H13    2py       -0.0000   -0.0000   -0.0000   -0.0000    0.0000   -0.0001   -0.0000    0.0000    0.0000   -0.0013
   187 H13    2pz       -0.0000    0.0000    0.0000    0.0000    0.0000   -0.0000   -0.0000    0.0000   -0.0000   -0.0002
   188 H14    1s         0.0005    0.0001    0.0001   -0.0003    0.0002    0.0013   -0.0003    0.0002    0.0001    0.0031
   189 H14    2s         0.0003    0.0001    0.0002   -0.0001    0.0001    0.0004   -0.0001    0.0001    0.0001   -0.0029
   190 H14    2px       -0.0000   -0.0001   -0.0000    0.0000   -0.0000   -0.0000    0.0000    0.0000   -0.0000   -0.0002
   191 H14    2py       -0.0000   -0.0000    0.0000    0.0001   -0.0000   -0.0001   -0.0000   -0.0000   -0.0000   -0.0003
   192 H14    2pz       -0.0000    0.0000   -0.0000   -0.0000   -0.0000   -0.0000   -0.0001   -0.0000    0.0000   -0.0005
   193 H15    1s        -0.0001   -0.0014    0.0003   -0.0010   -0.0002    0.0002    0.0002    0.0000   -0.0002   -0.0006
   194 H15    2s        -0.0001   -0.0008    0.0001   -0.0007   -0.0001    0.0002    0.0000    0.0000   -0.0001   -0.0019
   195 H15    2px       -0.0000   -0.0001    0.0000   -0.0005   -0.0000    0.0000    0.0001    0.0000   -0.0000    0.0005
   196 H15    2py        0.0000    0.0000    0.0000    0.0001    0.0000   -0.0000   -0.0001    0.0000    0.0000   -0.0006
   197 H15    2pz       -0.0000   -0.0000   -0.0000    0.0000   -0.0000    0.0000    0.0001   -0.0000   -0.0000   -0.0000
   198 H16    1s        -0.0000    0.0005   -0.0001   -0.0004   -0.0002   -0.0002   -0.0003    0.0000    0.0005    0.0042
   199 H16    2s        -0.0000    0.0003   -0.0000   -0.0002   -0.0001   -0.0001   -0.0002    0.0000   -0.0001    0.0031
   200 H16    2px       -0.0000    0.0000   -0.0000    0.0000   -0.0000   -0.0000   -0.0000    0.0000   -0.0000    0.0004
   201 H16    2py       -0.0000    0.0000    0.0000   -0.0000   -0.0000    0.0000   -0.0000    0.0000   -0.0000    0.0002
   202 H16    2pz        0.0000    0.0000   -0.0000   -0.0001   -0.0000   -0.0000   -0.0000   -0.0000    0.0000    0.0002
   203 H17    1s        -0.0000    0.0002    0.0001   -0.0005   -0.0000    0.0001   -0.0003    0.0000    0.0005    0.0022
   204 H17    2s        -0.0000    0.0001    0.0001   -0.0002   -0.0001    0.0001   -0.0003    0.0000   -0.0001    0.0018
   205 H17    2px        0.0000   -0.0000    0.0000    0.0000    0.0000    0.0000    0.0000   -0.0000   -0.0000   -0.0002
   206 H17    2py        0.0000   -0.0000   -0.0000    0.0000   -0.0000   -0.0000    0.0001   -0.0000    0.0000   -0.0001
   207 H17    2pz        0.0000    0.0000   -0.0000   -0.0000    0.0000    0.0000   -0.0000    0.0000    0.0000    0.0001
   208 H18    1s         0.0001   -0.0000   -0.0001   -0.0001   -0.0001    0.0001   -0.0000    0.0001    0.0010    0.0041
   209 H18    2s         0.0000    0.0000   -0.0000   -0.0000   -0.0001    0.0001    0.0001    0.0001    0.0001    0.0026
   210 H18    2px       -0.0000   -0.0000    0.0000   -0.0000    0.0000   -0.0000    0.0000   -0.0000   -0.0001   -0.0005
   211 H18    2py        0.0000   -0.0000    0.0000   -0.0000    0.0000    0.0000   -0.0000    0.0000    0.0000   -0.0001
   212 H18    2pz        0.0000   -0.0000    0.0000   -0.0000   -0.0000    0.0000    0.0000    0.0000    0.0000   -0.0001
 
 
      Orbital                11        12        13        14        15        16        17        18        19        20
      Energy            -1.3572   -1.2579   -1.2086   -1.0318   -0.9711   -0.9140   -0.8207   -0.7737   -0.7180   -0.6972
      Occ. No.           2.0000    2.0000    2.0000    2.0000    2.0000    2.0000    2.0000    2.0000    2.0000    2.0000
 
     1 C1     1s         0.0049   -0.0059    0.0049   -0.0173   -0.0041    0.0082    0.0139    0.0002    0.0066    0.0031
     2 C1     2s         0.0239    0.1485   -0.0043    0.2679   -0.0379   -0.0713   -0.3885   -0.0725   -0.2499   -0.0721
     3 C1     3s         0.0250    0.0138    0.0197   -0.0219   -0.0166    0.0198    0.0035   -0.0081    0.0072    0.0173
     4 C1     4s         0.0070    0.0037    0.0057   -0.0056   -0.0049    0.0062    0.0028   -0.0013    0.0040    0.0031
     5 C1     2px        0.0329    0.1489    0.0003   -0.0108    0.1113   -0.0828   -0.1288   -0.0100    0.1672    0.2566
     6 C1     3px        0.0220   -0.0418    0.0335   -0.0350   -0.0236    0.0364    0.0329   -0.0184   -0.0713   -0.0600
     7 C1     4px        0.0069    0.0260    0.0019   -0.0076    0.0142   -0.0059   -0.0075   -0.0029    0.0061    0.0167
     8 C1     2py        0.0129   -0.0347    0.0299   -0.1569    0.0508    0.0067   -0.0516    0.0378    0.0614   -0.1477
     9 C1     3py        0.0274    0.0467    0.0264    0.0201   -0.0503    0.0329    0.0133    0.0080   -0.0160    0.0617
    10 C1     4py        0.0013   -0.0070    0.0069   -0.0241    0.0061    0.0010   -0.0052    0.0045   -0.0037   -0.0085
    11 C1     2pz        0.0037    0.0091   -0.0055    0.0181   -0.0020   -0.0023   -0.0000   -0.0039    0.0076    0.0146
    12 C1     3pz        0.0024   -0.0113   -0.0056   -0.0014    0.0011   -0.0020   -0.0060   -0.0077    0.0028   -0.0079
    13 C1     4pz        0.0005    0.0007   -0.0029    0.0030   -0.0006   -0.0001   -0.0007   -0.0015    0.0028    0.0001
    14 C1     3d2-       0.0022    0.0138   -0.0012    0.0085   -0.0102    0.0061   -0.0130    0.0071    0.0173    0.0058
    15 C1     3d1-       0.0002    0.0019   -0.0002   -0.0017    0.0015   -0.0003    0.0011    0.0005    0.0033    0.0027
    16 C1     3d0        0.0000   -0.0066    0.0011   -0.0113   -0.0012    0.0044    0.0137    0.0020    0.0053    0.0021
    17 C1     3d1+      -0.0000   -0.0000    0.0000   -0.0003    0.0022   -0.0004    0.0005    0.0002   -0.0001   -0.0025
    18 C1     3d2+       0.0024    0.0277   -0.0037    0.0013    0.0153   -0.0117   -0.0108    0.0003    0.0165    0.0173
    19 C3     1s        -0.0160   -0.0285   -0.0022    0.0309    0.0271   -0.0193    0.0055   -0.0039    0.0020    0.0006
    20 C3     2s         0.0154    0.1751    0.0003   -0.2866   -0.2858    0.3180   -0.1102    0.0660   -0.0502    0.0342
    21 C3     3s        -0.0459   -0.0499   -0.0101    0.0512    0.0412   -0.0109    0.0066   -0.0033    0.0098   -0.0001
    22 C3     4s        -0.0074   -0.0118   -0.0007    0.0153    0.0108   -0.0048    0.0030   -0.0019    0.0038   -0.0017
    23 C3     2px        0.0374   -0.0465    0.0222   -0.0113   -0.0376    0.0426    0.0563   -0.1050   -0.2720    0.0978
    24 C3     3px        0.0195    0.0192    0.0269   -0.0250    0.0204    0.0494   -0.0081    0.0221    0.0225   -0.0150
    25 C3     4px        0.0049   -0.0018    0.0082   -0.0064   -0.0010    0.0072    0.0024   -0.0063   -0.0069    0.0033
    26 C3     2py       -0.0093   -0.0833    0.0276    0.0025   -0.0361   -0.0187   -0.1327   -0.0296   -0.0467    0.2066
    27 C3     3py        0.0069    0.0173    0.0080   -0.0360    0.0122   -0.0021    0.0040   -0.0018    0.0145   -0.0315
    28 C3     4py        0.0037   -0.0030    0.0031   -0.0102   -0.0072    0.0071   -0.0092    0.0035   -0.0014    0.0080
    29 C3     2pz        0.0066    0.0225   -0.0211    0.0138    0.0348    0.0705    0.0036    0.1130    0.0348   -0.1000
    30 C3     3pz        0.0266    0.0396    0.0063   -0.0181   -0.0340    0.0357   -0.0108   -0.0162   -0.0146    0.0105
    31 C3     4pz       -0.0063    0.0115   -0.0008   -0.0106   -0.0093    0.0177   -0.0023    0.0058   -0.0040   -0.0002
    32 C3     3d2-       0.0027    0.0183   -0.0005   -0.0037    0.0054   -0.0004    0.0052    0.0030    0.0131   -0.0188
    33 C3     3d1-       0.0035   -0.0011   -0.0018    0.0005    0.0006    0.0007   -0.0006   -0.0008   -0.0014    0.0011
    34 C3     3d0       -0.0021   -0.0082    0.0057    0.0014   -0.0092   -0.0033   -0.0003   -0.0126   -0.0205    0.0128
    35 C3     3d1+      -0.0041   -0.0016   -0.0002    0.0038    0.0074    0.0031   -0.0006    0.0113    0.0054   -0.0078
    36 C3     3d2+       0.0019   -0.0092   -0.0017    0.0015   -0.0050    0.0000   -0.0180   -0.0020   -0.0058    0.0175
    37 C4     1s        -0.0405    0.0045   -0.0061    0.0094    0.0128    0.0086    0.0008    0.0166    0.0017   -0.0021
    38 C4     2s         0.3595    0.0308    0.1148   -0.0796   -0.2306   -0.0743   -0.0238   -0.4070   -0.0558    0.0894
    39 C4     3s        -0.0108    0.0162    0.0045    0.0270    0.0064    0.0159    0.0017    0.0115    0.0022    0.0016
    40 C4     4s         0.0009    0.0042    0.0012    0.0083    0.0029    0.0049    0.0011    0.0058    0.0021   -0.0016
    41 C4     2px        0.0947   -0.0448   -0.0964    0.0492    0.1178    0.0450    0.0042    0.0508    0.0337   -0.0452
    42 C4     3px       -0.0543    0.0262    0.0606   -0.0383   -0.0152    0.0258   -0.0086   -0.0215   -0.0086    0.0105
    43 C4     4px        0.0273   -0.0059   -0.0141    0.0025    0.0133    0.0097   -0.0003   -0.0011   -0.0020    0.0004
    44 C4     2py       -0.0283   -0.0048    0.0782   -0.0003   -0.0332   -0.0367   -0.0174   -0.0501    0.0308    0.0034
    45 C4     3py        0.0338   -0.0149   -0.0112    0.0074    0.0077    0.0234   -0.0102    0.0018   -0.0141    0.0038
    46 C4     4py       -0.0067   -0.0004    0.0158    0.0010   -0.0039   -0.0022   -0.0058   -0.0039    0.0025    0.0005
    47 C4     2pz       -0.0332    0.0001   -0.1363   -0.0360   -0.0624    0.0471   -0.0060    0.0793   -0.1788    0.1222
    48 C4     3pz       -0.0179   -0.0246   -0.0386    0.0330   -0.0209   -0.1341    0.0234   -0.0117    0.0716   -0.0522
    49 C4     4pz       -0.0082   -0.0029   -0.0311   -0.0041   -0.0113   -0.0087    0.0025    0.0075   -0.0071    0.0024
    50 C4     3d2-      -0.0283    0.0048    0.0028   -0.0012    0.0031    0.0081    0.0020    0.0012   -0.0004   -0.0048
    51 C4     3d1-      -0.0063   -0.0032   -0.0137    0.0011    0.0049    0.0093   -0.0032    0.0103   -0.0056    0.0073
    52 C4     3d0       -0.0152    0.0062    0.0213   -0.0052   -0.0086   -0.0004    0.0011   -0.0188    0.0023   -0.0054
    53 C4     3d1+       0.0039   -0.0027    0.0136    0.0073    0.0033   -0.0196    0.0040    0.0024    0.0083   -0.0062
    54 C4     3d2+       0.0279   -0.0023   -0.0092   -0.0018   -0.0037   -0.0003   -0.0027   -0.0008   -0.0020    0.0052
    55 C6     1s        -0.0090    0.0040   -0.0346   -0.0151   -0.0348   -0.0433    0.0042    0.0087    0.0029   -0.0061
    56 C6     2s         0.0295    0.0401    0.1610    0.0604    0.2321    0.3924   -0.0380   -0.1097   -0.0265    0.0376
    57 C6     3s        -0.0134    0.0249   -0.0603   -0.0313   -0.0657   -0.0680    0.0101    0.0187    0.0069   -0.0179
    58 C6     4s        -0.0006    0.0070   -0.0101   -0.0058   -0.0142   -0.0140    0.0028    0.0054    0.0017   -0.0045
    59 C6     2px       -0.0058   -0.0100   -0.0481   -0.0107   -0.0109    0.0062   -0.0165   -0.1460    0.0593   -0.0064
    60 C6     3px        0.0015   -0.0070    0.0073    0.0020    0.0060   -0.0064   -0.0005    0.0051   -0.0020   -0.0028
    61 C6     4px       -0.0017   -0.0006   -0.0029    0.0019    0.0050    0.0081   -0.0013   -0.0102    0.0035   -0.0006
    62 C6     2py       -0.0067    0.0080   -0.0062    0.0030    0.0029    0.0135   -0.0019    0.0461   -0.0439    0.0398
    63 C6     3py       -0.0035    0.0072    0.0010    0.0032    0.0051    0.0106   -0.0007    0.0001    0.0034   -0.0031
    64 C6     4py       -0.0009   -0.0004    0.0010   -0.0005    0.0022    0.0017   -0.0002    0.0031   -0.0026    0.0020
    65 C6     2pz        0.0243    0.0157    0.0950    0.0173    0.0110   -0.0347    0.0216    0.0465    0.0773   -0.1266
    66 C6     3pz       -0.0032    0.0122   -0.0199   -0.0059   -0.0228   -0.0075    0.0004   -0.0028   -0.0105    0.0173
    67 C6     4pz        0.0031    0.0016   -0.0007   -0.0022   -0.0132   -0.0191    0.0029    0.0063    0.0039   -0.0058
    68 C6     3d2-      -0.0000    0.0002    0.0011   -0.0003   -0.0012   -0.0016    0.0003    0.0017   -0.0020    0.0016
    69 C6     3d1-      -0.0007   -0.0000   -0.0009   -0.0005   -0.0004    0.0003    0.0002    0.0056   -0.0041    0.0029
    70 C6     3d0        0.0039    0.0006    0.0155    0.0029    0.0036   -0.0027    0.0021    0.0012    0.0077   -0.0115
    71 C6     3d1+      -0.0033   -0.0014   -0.0177   -0.0036   -0.0048    0.0013   -0.0026   -0.0174    0.0003    0.0069
    72 C6     3d2+       0.0012   -0.0002    0.0047    0.0011    0.0027    0.0008    0.0007    0.0035    0.0024   -0.0043
    73 C19    1s         0.0011   -0.0098    0.0029   -0.0584    0.0414   -0.0181   -0.0130   -0.0040   -0.0093    0.0015
    74 C19    2s         0.0087    0.0018    0.0044    0.3111   -0.2749    0.1394    0.0761    0.0419    0.0957    0.0010
    75 C19    3s         0.0101   -0.0272    0.0149   -0.1156    0.0755   -0.0305   -0.0341   -0.0077   -0.0176    0.0099
    76 C19    4s         0.0038   -0.0033    0.0048   -0.0245    0.0171   -0.0070   -0.0092   -0.0024   -0.0054    0.0028
    77 C19    2px        0.0033    0.0249   -0.0015    0.0544    0.0038   -0.0251   -0.0450   -0.0276   -0.0647    0.1293
    78 C19    3px        0.0007   -0.0009    0.0022    0.0026    0.0036   -0.0013    0.0022    0.0065    0.0135   -0.0121
    79 C19    4px       -0.0010    0.0005   -0.0005   -0.0086    0.0123   -0.0080   -0.0020   -0.0029   -0.0061    0.0030
    80 C19    2py        0.0076    0.0078    0.0056    0.0482   -0.0073   -0.0139   -0.0641   -0.0456   -0.2194   -0.0654
    81 C19    3py        0.0085   -0.0030    0.0091   -0.0296    0.0175    0.0000    0.0128   -0.0013    0.0235    0.0128
    82 C19    4py        0.0002    0.0009    0.0004   -0.0129    0.0144   -0.0081   -0.0125   -0.0032   -0.0085   -0.0019
    83 C19    2pz        0.0023   -0.0020    0.0014   -0.0067    0.0036    0.0007    0.0071    0.0057    0.0257    0.0040
    84 C19    3pz        0.0018   -0.0015    0.0014   -0.0000    0.0007   -0.0013    0.0008    0.0002   -0.0046   -0.0014
    85 C19    4pz       -0.0002   -0.0000    0.0001    0.0012   -0.0013    0.0003    0.0018    0.0008    0.0006    0.0001
    86 C19    3d2-       0.0006    0.0060   -0.0010    0.0110   -0.0018   -0.0023   -0.0079   -0.0038   -0.0149   -0.0013
    87 C19    3d1-      -0.0001    0.0004   -0.0002   -0.0020    0.0011   -0.0001    0.0008    0.0009    0.0034   -0.0002
    88 C19    3d0       -0.0002   -0.0010    0.0002   -0.0089    0.0033    0.0006    0.0034    0.0029    0.0085   -0.0080
    89 C19    3d1+      -0.0004   -0.0004   -0.0001   -0.0011    0.0000    0.0003    0.0011    0.0004    0.0010   -0.0009
    90 C19    3d2+       0.0002    0.0023   -0.0003   -0.0072    0.0045   -0.0010    0.0032    0.0027    0.0140    0.0051
    91 N2     1s        -0.0037   -0.0400    0.0055   -0.0046   -0.0052    0.0020   -0.0052    0.0012    0.0031   -0.0010
    92 N2     2s         0.0521    0.5916   -0.0732   -0.0393    0.2068   -0.0904    0.1421    0.0181    0.1279   -0.0535
    93 N2     3s        -0.0044   -0.0725    0.0134   -0.0148   -0.0018    0.0011   -0.0118    0.0031    0.0141   -0.0027
    94 N2     4s        -0.0014   -0.0239    0.0041   -0.0018   -0.0030    0.0015   -0.0040   -0.0002    0.0008   -0.0001
    95 N2     2px        0.0229   -0.0295    0.0211   -0.1502   -0.0670    0.1191    0.3626    0.0049   -0.1064   -0.2795
    96 N2     3px        0.0234   -0.0054    0.0171    0.0113    0.0320   -0.0489   -0.1112   -0.0268    0.0092    0.0588
    97 N2     4px        0.0045    0.0026    0.0020   -0.0075    0.0061   -0.0031    0.0014   -0.0035   -0.0010    0.0063
    98 N2     2py        0.0049   -0.0075    0.0076   -0.1154   -0.0595    0.1091   -0.2183    0.1293    0.2722   -0.2011
    99 N2     3py       -0.0064   -0.0502   -0.0010    0.0438    0.0649   -0.0501    0.0421   -0.0448   -0.0572    0.0230
   100 N2     4py       -0.0015   -0.0158    0.0001    0.0002    0.0051   -0.0053   -0.0098   -0.0035   -0.0004    0.0047
   101 N2     2pz       -0.0094    0.0100   -0.0061    0.0102    0.0199   -0.0028    0.0453    0.0252    0.0026   -0.0356
   102 N2     3pz       -0.0112    0.0050   -0.0012    0.0014    0.0013   -0.0078    0.0010    0.0054    0.0021    0.0071
   103 N2     4pz       -0.0016    0.0029    0.0002    0.0004    0.0012   -0.0002    0.0022    0.0017   -0.0011    0.0013
   104 N2     3d2-       0.0013    0.0072   -0.0004   -0.0020   -0.0088    0.0085   -0.0064    0.0043    0.0068   -0.0028
   105 N2     3d1-      -0.0011   -0.0015   -0.0005    0.0004    0.0001    0.0013   -0.0025    0.0027    0.0020   -0.0018
   106 N2     3d0       -0.0016   -0.0161    0.0023    0.0016   -0.0038    0.0014   -0.0001   -0.0004   -0.0018   -0.0005
   107 N2     3d1+      -0.0006    0.0006   -0.0005   -0.0003    0.0011   -0.0004    0.0009    0.0010   -0.0004   -0.0009
   108 N2     3d2+       0.0005    0.0054   -0.0008    0.0096    0.0066   -0.0095   -0.0202   -0.0043   -0.0009    0.0140
   109 N5     1s        -0.0199   -0.0042   -0.0420   -0.0026    0.0015    0.0024   -0.0009   -0.0034    0.0031   -0.0027
   110 N5     2s         0.1343    0.0252    0.5765    0.0399   -0.0080   -0.2236    0.0493    0.1742    0.0513   -0.1007
   111 N5     3s        -0.0491   -0.0074   -0.0781   -0.0092   -0.0013   -0.0155    0.0008    0.0017    0.0123   -0.0139
   112 N5     4s        -0.0116   -0.0013   -0.0260   -0.0037   -0.0017   -0.0017   -0.0002   -0.0014    0.0014   -0.0015
   113 N5     2px        0.0365   -0.0257   -0.0028    0.0263    0.0348    0.0361   -0.0066   -0.3059    0.1962   -0.1549
   114 N5     3px       -0.0026   -0.0280   -0.0393    0.0068   -0.0193   -0.0582    0.0105    0.0710   -0.0318    0.0314
   115 N5     4px       -0.0031   -0.0037   -0.0109   -0.0009   -0.0011   -0.0038    0.0012   -0.0077    0.0014   -0.0006
   116 N5     2py       -0.0208   -0.0083   -0.0090    0.0068    0.0326    0.0300    0.0093    0.1707   -0.0923    0.0515
   117 N5     3py        0.0063   -0.0077    0.0148   -0.0062    0.0023   -0.0091    0.0028   -0.0393    0.0133   -0.0085
   118 N5     4py       -0.0009   -0.0015    0.0044   -0.0001    0.0030   -0.0012    0.0009    0.0025   -0.0006    0.0007
   119 N5     2pz        0.0072    0.0382    0.0142   -0.0614   -0.1640   -0.1607   -0.0034   -0.1886    0.0564    0.0282
   120 N5     3pz       -0.0197    0.0527    0.0119    0.0046    0.0348    0.0937    0.0050    0.0558   -0.0107   -0.0160
   121 N5     4pz        0.0074    0.0087   -0.0000   -0.0024   -0.0057    0.0053    0.0014    0.0023   -0.0018   -0.0009
   122 N5     3d2-      -0.0033    0.0001   -0.0062   -0.0007    0.0011    0.0055   -0.0007   -0.0016   -0.0012    0.0007
   123 N5     3d1-      -0.0035   -0.0012   -0.0094    0.0009    0.0039    0.0053    0.0000    0.0085   -0.0035    0.0014
   124 N5     3d0        0.0010    0.0018    0.0142    0.0001   -0.0001    0.0038   -0.0011   -0.0105    0.0033   -0.0023
   125 N5     3d1+       0.0045   -0.0010   -0.0013   -0.0019   -0.0079   -0.0114   -0.0001   -0.0119    0.0042    0.0002
   126 N5     3d2+       0.0010    0.0001    0.0060    0.0013    0.0018   -0.0019    0.0006    0.0103   -0.0027    0.0013
   127 O7     1s         0.0005    0.0024   -0.0008   -0.0044    0.0021    0.0005    0.0137    0.0006    0.0141    0.0214
   128 O7     2s        -0.0512   -0.3055    0.0291   -0.2072    0.0506    0.0298    0.3549    0.0056    0.2308    0.3474
   129 O7     3s        -0.0008   -0.0092   -0.0024   -0.0211    0.0089    0.0017    0.0431   -0.0005    0.0400    0.0610
   130 O7     4s         0.0005    0.0002   -0.0012   -0.0038    0.0020    0.0001    0.0081   -0.0009    0.0080    0.0129
   131 O7     2px       -0.0047   -0.0012   -0.0036   -0.0071    0.0260   -0.0293   -0.1738    0.0030   -0.0901   -0.2163
   132 O7     3px       -0.0002    0.0000   -0.0034   -0.0106   -0.0017    0.0015    0.0216    0.0017    0.0045    0.0189
   133 O7     4px        0.0002    0.0004   -0.0006   -0.0017   -0.0015    0.0007    0.0016    0.0006   -0.0001    0.0013
   134 O7     2py        0.0077    0.0418   -0.0041   -0.0355    0.0204    0.0058    0.1592    0.0203    0.2665    0.4054
   135 O7     3py       -0.0024    0.0010   -0.0015    0.0107   -0.0027   -0.0011   -0.0251   -0.0039   -0.0331   -0.0422
   136 O7     4py       -0.0006   -0.0014    0.0003   -0.0014   -0.0004    0.0004   -0.0032    0.0003   -0.0046   -0.0065
   137 O7     2pz       -0.0027   -0.0008   -0.0002    0.0050    0.0031   -0.0010   -0.0218   -0.0022   -0.0312   -0.0536
   138 O7     3pz       -0.0020    0.0007    0.0006   -0.0001    0.0033    0.0027    0.0040   -0.0012    0.0032    0.0051
   139 O7     4pz       -0.0006    0.0004    0.0002    0.0006    0.0010    0.0012    0.0005   -0.0008    0.0005    0.0008
   140 O7     3d2-       0.0010    0.0035   -0.0003    0.0010   -0.0022    0.0024    0.0120    0.0005    0.0093    0.0176
   141 O7     3d1-       0.0002    0.0012   -0.0001    0.0000    0.0004   -0.0002    0.0011   -0.0000    0.0025    0.0043
   142 O7     3d0        0.0005    0.0041   -0.0007    0.0015    0.0002   -0.0001    0.0050    0.0000    0.0060    0.0113
   143 O7     3d1+      -0.0002   -0.0003   -0.0000   -0.0002    0.0006   -0.0002   -0.0016   -0.0001   -0.0007   -0.0024
   144 O7     3d2+       0.0006    0.0049   -0.0007   -0.0027    0.0043   -0.0024   -0.0009    0.0012    0.0116    0.0122
   145 O8     1s        -0.0235    0.0022    0.0042    0.0004    0.0024    0.0006    0.0005    0.0123    0.0019   -0.0018
   146 O8     2s         0.6707   -0.1434   -0.3155    0.0936    0.1604    0.0154    0.0034    0.3517    0.0443   -0.0260
   147 O8     3s        -0.0280   -0.0028   -0.0078    0.0044    0.0127    0.0009    0.0005    0.0449    0.0074   -0.0061
   148 O8     4s        -0.0121    0.0002    0.0002    0.0001    0.0015   -0.0003   -0.0004    0.0091    0.0020   -0.0013
   149 O8     2px       -0.1327    0.0169    0.0392    0.0099    0.0185    0.0021   -0.0014    0.1705    0.0372   -0.0221
   150 O8     3px        0.0391   -0.0050   -0.0044    0.0016   -0.0110   -0.0073   -0.0015   -0.0265   -0.0060    0.0042
   151 O8     4px        0.0007   -0.0009   -0.0018    0.0013   -0.0002   -0.0010    0.0002   -0.0030   -0.0013    0.0005
   152 O8     2py        0.0527   -0.0169   -0.0114    0.0060   -0.0039   -0.0137   -0.0035   -0.0800    0.0085   -0.0009
   153 O8     3py       -0.0185    0.0012   -0.0014    0.0032    0.0055   -0.0021    0.0015    0.0123    0.0001   -0.0003
   154 O8     4py       -0.0008    0.0001   -0.0004    0.0010    0.0008   -0.0006    0.0000    0.0015    0.0003    0.0001
   155 O8     2pz       -0.0110    0.0080   -0.0161   -0.0186   -0.0173    0.0420   -0.0062    0.0407   -0.0967    0.0654
   156 O8     3pz        0.0051    0.0071    0.0072   -0.0028    0.0022    0.0112   -0.0028   -0.0031    0.0117   -0.0056
   157 O8     4pz        0.0018    0.0021    0.0024   -0.0008   -0.0005    0.0011   -0.0004    0.0001    0.0030   -0.0016
[...]
AIVX     1  Mu1.0001  In1.022 Se1.046               0.20274891     -0.00131310      0.00264625     -0.00000347
AIVX     1  Mu1.0001  In1.023 Se1.046               0.27957055      0.00077293     -0.00173949     -0.00000134
AIVX     1  Mu1.0001  In1.024 Se1.046               0.14447767      0.00001322     -0.00005852     -0.00000000
AIVX     1  Mu1.0001  In1.025 Se1.046               0.24338222      0.00090577     -0.00177771     -0.00000161
AIVX     1  Mu1.0001  In1.026 Se1.046               0.22670647      0.00038529     -0.00075170     -0.00000029
AIVX     1  Mu1.0001  In1.027 Se1.046               0.12745236     -0.00049701      0.00117401     -0.00000058
AIVX     1  Mu1.0001  In1.028 Se1.046               0.09921539     -0.00052337      0.00124575     -0.00000065
AIVX     1  Mu1.0001  In1.029 Se1.046               0.06741903     -0.00038592      0.00094355     -0.00000036
AIVX     1  Mu1.0001  In1.021 Se1.047               0.25271590     -0.00022711      0.00009089     -0.00000002
AIVX     1  Mu1.0001  In1.022 Se1.047               0.22473225      0.00117601     -0.00203735     -0.00000240
AIVX     1  Mu1.0001  In1.024 Se1.047               0.16646101      0.00004321     -0.00029040     -0.00000001
AIVX     1  Mu1.0001  In1.025 Se1.047               0.26536555      0.00031449     -0.00045605     -0.00000014
AIVX     1  Mu1.0001  In1.026 Se1.047               0.24868981     -0.00003274      0.00023890     -0.00000001
AIVX     1  Mu1.0001  In1.027 Se1.047               0.14943570      0.00045817     -0.00042641     -0.00000020
AIVX     1  Mu1.0001  In1.028 Se1.047               0.12119872     -0.00057730      0.00098745     -0.00000057
AIVX     1  Mu1.0001  In1.029 Se1.047               0.08940237     -0.00036328      0.00067916     -0.00000025
AIVX     1  Mu1.0001  In1.021 Se1.048               0.26209145     -0.00088345      0.00103925     -0.00000092
AIVX     1  Mu1.0001  In1.022 Se1.048               0.23410780     -0.00058595      0.00115854     -0.00000068
AIVX     1  Mu1.0001  In1.024 Se1.048               0.17583656     -0.00029279      0.00046004     -0.00000013
AIVX     1  Mu1.0001  In1.025 Se1.048               0.27474111     -0.00054349      0.00105966     -0.00000058
AIVX     1  Mu1.0001  In1.026 Se1.048               0.25806536     -0.00071484      0.00144663     -0.00000103
AIVX     1  Mu1.0001  In1.027 Se1.048               0.15881125      0.00037059     -0.00047361     -0.00000018
AIVX     1  Mu1.0001  In1.028 Se1.048               0.13057428     -0.00080313      0.00110289     -0.00000089
AIVX     1  Mu1.0001  In1.029 Se1.048               0.09877792     -0.00062589      0.00108005     -0.00000068
AIVX     1  Mu1.0001  In1.021 Se1.049               0.27181837     -0.00073891      0.00107820     -0.00000080
AIVX     1  Mu1.0001  In1.022 Se1.049               0.24383472     -0.00042213      0.00079540     -0.00000034
AIVX     1  Mu1.0001  In1.024 Se1.049               0.18556348     -0.00007395      0.00025007     -0.00000002
AIVX     1  Mu1.0001  In1.025 Se1.049               0.28446802     -0.00120020      0.00219941     -0.00000264
AIVX     1  Mu1.0001  In1.026 Se1.049               0.26779228     -0.00077221      0.00119174     -0.00000092
AIVX     1  Mu1.0001  In1.027 Se1.049               0.16853817      0.00020150     -0.00067851     -0.00000014
AIVX     1  Mu1.0001  In1.028 Se1.049               0.14030119      0.00013158     -0.00048790     -0.00000006
AIVX     1  Mu1.0001  In1.029 Se1.049               0.10850484     -0.00018176      0.00061672     -0.00000011
AIVX     1  Mu1.0001  In1.021 Se1.050               0.28848365     -0.00052206      0.00047817     -0.00000025
AIVX     1  Mu1.0001  In1.022 Se1.050               0.26050000     -0.00165518      0.00307370     -0.00000509
AIVX     1  Mu1.0001  In1.024 Se1.050               0.20222876      0.00006007     -0.00026148     -0.00000002
AIVX     1  Mu1.0001  In1.026 Se1.050               0.28445756     -0.00266636      0.00458149     -0.00001222
AIVX     1  Mu1.0001  In1.027 Se1.050               0.18520345      0.00002509      0.00049715      0.00000001
AIVX     1  Mu1.0001  In1.028 Se1.050               0.15696648     -0.00054463      0.00045788     -0.00000025
AIVX     1  Mu1.0001  In1.029 Se1.050               0.12517013     -0.00028105      0.00037920     -0.00000011
AIVX     1  Mu1.0001  In1.021 Se1.051               0.29755844      0.00011594      0.00001574      0.00000000
AIVX     1  Mu1.0001  In1.022 Se1.051               0.26957480      0.00326017     -0.00518316     -0.00001690
AIVX     1  Mu1.0001  In1.024 Se1.051               0.21130356      0.00003017      0.00012761      0.00000000
AIVX     1  Mu1.0001  In1.026 Se1.051               0.29353236     -0.00214780      0.00309675     -0.00000665
AIVX     1  Mu1.0001  In1.027 Se1.051               0.19427825      0.00059302     -0.00135905     -0.00000081
AIVX     1  Mu1.0001  In1.028 Se1.051               0.16604127      0.00137776     -0.00242954     -0.00000335
AIVX     1  Mu1.0001  In1.029 Se1.051               0.13424492      0.00125819     -0.00277654     -0.00000349
AIVX     1  Mu1.0001  In1.022 Se1.052               0.29799409     -0.00043906      0.00071755     -0.00000032
AIVX     1  Mu1.0001  In1.024 Se1.052               0.23972284      0.00003469      0.00002781      0.00000000
AIVX     1  Mu1.0001  In1.027 Se1.052               0.22269753     -0.00077923      0.00082318     -0.00000064
AIVX     1  Mu1.0001  In1.028 Se1.052               0.19446056      0.00001729      0.00064842      0.00000001
AIVX     1  Mu1.0001  In1.029 Se1.052               0.16266421     -0.00092269      0.00225350     -0.00000208
AIVX     1  Mu1.0001  In1.024 Se1.053               0.25242657      0.00012192     -0.00002198     -0.00000000
AIVX     1  Mu1.0001  In1.027 Se1.053               0.23540126      0.00021242     -0.00034854     -0.00000007
AIVX     1  Mu1.0001  In1.028 Se1.053               0.20716429     -0.00008216      0.00040529     -0.00000003
AIVX     1  Mu1.0001  In1.029 Se1.053               0.17536793     -0.00009529      0.00028487     -0.00000003
AIVX     1  Mu1.0001  In1.024 Se1.054               0.28370267     -0.00021315      0.00057608     -0.00000012
AIVX     1  Mu1.0001  In1.027 Se1.054               0.26667736     -0.00038731      0.00082436     -0.00000032
AIVX     1  Mu1.0001  In1.028 Se1.054               0.23844038     -0.00012428      0.00017424     -0.00000002
AIVX     1  Mu1.0001  In1.029 Se1.054               0.20664403     -0.00057059      0.00095488     -0.00000054
AIVX     1  Mu1.0001  In1.024 Se1.055               0.29263059     -0.00070702      0.00137680     -0.00000097
AIVX     1  Mu1.0001  In1.027 Se1.055               0.27560528     -0.00001499      0.00016970     -0.00000000
AIVX     1  Mu1.0001  In1.028 Se1.055               0.24736831     -0.00037195      0.00032278     -0.00000012
AIVX     1  Mu1.0001  In1.029 Se1.055               0.21557195     -0.00046157      0.00093769     -0.00000043
AIVX     1  Mu1.0001  In1.024 Se1.056               0.27465817     -0.00019984      0.00049938     -0.00000010
AIVX     1  Mu1.0001  In1.027 Se1.056               0.25763286      0.00023078     -0.00013829     -0.00000003
AIVX     1  Mu1.0001  In1.028 Se1.056               0.22939588      0.00030917     -0.00046217     -0.00000014
AIVX     1  Mu1.0001  In1.029 Se1.056               0.19759953      0.00137867     -0.00305275     -0.00000421
AIVX     1  Mu1.0001  In1.027 Se1.057               0.28629651      0.00065573     -0.00056004     -0.00000037
AIVX     1  Mu1.0001  In1.028 Se1.057               0.25805954      0.00001830     -0.00015472     -0.00000000
AIVX     1  Mu1.0001  In1.029 Se1.057               0.22626318     -0.00021642      0.00055729     -0.00000012
AIVX     1  Mu1.0001  In1.028 Se1.058               0.28439472     -0.00076040      0.00089212     -0.00000068
AIVX     1  Mu1.0001  In1.029 Se1.058               0.25259837      0.00003246     -0.00006619     -0.00000000
AIVX     1  Mu1.0001  In1.028 Se1.059               0.29581541     -0.00123243      0.00164884     -0.00000203
AIVX     1  Mu1.0001  In1.029 Se1.059               0.26401906     -0.00042154      0.00013924     -0.00000006
AIVX     1  Mu1.0001  In1.029 Se1.060               0.27567872     -0.00119304      0.00234349     -0.00000280
AIVX     1  Mu1.0001  In1.029 Se1.061               0.29093007      0.00086577     -0.00130804     -0.00000113
--
 
   (Skipping property calculation,
    use PROP keyword to activate)
--
 
  Total CASPT2 energies:
::    CASPT2 Root  1     Total energy:   -455.38057572
::    CASPT2 Root  2     Total energy:   -455.16666726
::    CASPT2 Root  3     Total energy:   -455.17707839
::    CASPT2 Root  4     Total energy:   -455.14096416
::    CASPT2 Root  5     Total energy:   -455.12987625
::    CASPT2 Root  6     Total energy:   -455.10772257
::    CASPT2 Root  7     Total energy:   -455.08169890
 
++ Multi-State CASPT2 section:
********************************************************************************
  MULTI-STATE CASPT2 SECTION
--------------------------------------------------------------------------------
 
  Output diagonal energies have been shifted. Add   -455.000000000000     
 
  Effective Hamiltonian matrix (Symmetric):
 
                1               2               3               4               5
   1        -0.38057572
   2        -0.00022003     -0.16666726
   3         0.00102111      0.00047986     -0.17707839
   4        -0.01709070     -0.00072491      0.00140913     -0.14096416
   5        -0.00880515     -0.00120168      0.00256992      0.00426380     -0.12987625
   6        -0.01604865      0.00213306     -0.00364040     -0.00708199     -0.01283160
   7         0.01571310     -0.00037809      0.00056163      0.00666294      0.01292244
 
                6               7
   6        -0.10772257
   7         0.01610085     -0.08169890
 
       Total MS-CASPT2 energies:
::    MS-CASPT2 Root  1     Total energy:   -455.38414787
::    MS-CASPT2 Root  2     Total energy:   -455.17740992
::    MS-CASPT2 Root  3     Total energy:   -455.16672888
::    MS-CASPT2 Root  4     Total energy:   -455.14194482
::    MS-CASPT2 Root  5     Total energy:   -455.14008916
::    MS-CASPT2 Root  6     Total energy:   -455.10138709
::    MS-CASPT2 Root  7     Total energy:   -455.07287551
 
       Eigenvectors:
            0.99276158      0.00421875      0.00030527     -0.08485284     -0.07650255
            0.00073885     -0.05984897      0.99743013     -0.00567917      0.00210215
           -0.00458584      0.99607123      0.06220650      0.00891897      0.00874340
            0.07258769     -0.02261745      0.01282945      0.96909339     -0.03064255
            0.03943631     -0.03752233      0.01440469     -0.10014600      0.85054635
            0.06465718      0.04750704     -0.02918249      0.17668426      0.43472708
           -0.05829349     -0.00812517      0.00629927     -0.11090376     -0.28409645
 
            0.02975153      0.02165093
           -0.03884415      0.00226809
            0.06151480     -0.00337124
            0.22556421      0.05563006
            0.49665928      0.12923078
           -0.80270899      0.35800032
            0.22788271      0.92279749
 
--
 
  THE ORIGINAL CI ARRAYS ARE NOW MIXED AS LINEAR
  COMBINATIONS, GIVEN BY THE EIGENVECTORS.
  A NEW JOBIPH FILE NAMED 'JOBMIX' IS PREPARED.
********************************************************************************
 
++ Mixed CI coefficients:
  The CI coefficients for the MIXED state nr.   1
--------------------------------------------------------------------------------
 CI COEFFICIENTS LARGER THAN  0.50D-01
  Occupation of active orbitals, and spin coupling
  of open shells. (u,d: Spin up or down).
  SGUGA info is (Midvert:IsyUp:UpperWalk/LowerWalk)
        Conf  SGUGA info        Occupation    Coefficient         Weight
           1  ( 1:1:   1/   1)   22222200        0.969813       0.940538
           6  ( 1:1:   6/   1)   22220220       -0.094764       0.008980
          15  ( 1:1:  15/   1)   22222002       -0.094066       0.008848
          61  ( 2:1:   1/   3)   2u2222d0        0.075893       0.005760
          84  ( 2:1:   4/   4)   u222220d        0.098879       0.009777
         171  ( 3:1:   1/   8)   20222220       -0.083484       0.006970
         195  ( 3:1:   5/  10)   02222202       -0.076143       0.005798
 
  The CI coefficients for the MIXED state nr.   2
--------------------------------------------------------------------------------
 CI COEFFICIENTS LARGER THAN  0.50D-01
  Occupation of active orbitals, and spin coupling
  of open shells. (u,d: Spin up or down).
  SGUGA info is (Midvert:IsyUp:UpperWalk/LowerWalk)
        Conf  SGUGA info        Occupation    Coefficient         Weight
           8  ( 1:1:   8/   1)   2222u20d       -0.368482       0.135779
          44  ( 2:1:   4/   2)   22u2220d       -0.871371       0.759287
          46  ( 2:1:   6/   2)   22u2d2ud       -0.065961       0.004351
          48  ( 2:1:   8/   2)   22u2u2dd       -0.113834       0.012958
          52  ( 2:1:  12/   2)   22u2022d        0.077621       0.006025
          53  ( 2:1:  13/   2)   22u22d02        0.172804       0.029861
         165  ( 3:1:   5/   7)   u2d22202        0.127684       0.016303
         219  ( 4:1:   1/   4)   2uu222dd        0.059232       0.003508
         293  ( 5:1:   1/  15)   20u2222d       -0.084717       0.007177
 
  The CI coefficients for the MIXED state nr.   3
--------------------------------------------------------------------------------
 CI COEFFICIENTS LARGER THAN  0.50D-01
  Occupation of active orbitals, and spin coupling
  of open shells. (u,d: Spin up or down).
  SGUGA info is (Midvert:IsyUp:UpperWalk/LowerWalk)
        Conf  SGUGA info        Occupation    Coefficient         Weight
          21  ( 2:1:   1/   1)   222u22d0       -0.948680       0.899994
          23  ( 2:1:   3/   1)   222ud220        0.085187       0.007257
          24  ( 2:1:   4/   1)   222u220d        0.155651       0.024227
          35  ( 2:1:  15/   1)   222u20d2       -0.083760       0.007016
         111  ( 3:1:   1/   2)   22ud2220       -0.076854       0.005906
         121  ( 3:1:   1/   3)   2u2d2220        0.178946       0.032022
         213  ( 4:1:   1/   3)   u22u22dd       -0.070751       0.005006
         270  ( 5:1:   2/   9)   022u22d2        0.078414       0.006149
 
  The CI coefficients for the MIXED state nr.   4
--------------------------------------------------------------------------------
 CI COEFFICIENTS LARGER THAN  0.50D-01
  Occupation of active orbitals, and spin coupling
  of open shells. (u,d: Spin up or down).
  SGUGA info is (Midvert:IsyUp:UpperWalk/LowerWalk)
        Conf  SGUGA info        Occupation    Coefficient         Weight
           3  ( 1:1:   3/   1)   2222u2d0       -0.443951       0.197092
           6  ( 1:1:   6/   1)   22220220       -0.084314       0.007109
           7  ( 1:1:   7/   1)   22222u0d       -0.796784       0.634864
           8  ( 1:1:   8/   1)   2222u20d        0.186881       0.034924
          12  ( 1:1:  12/   1)   2222uudd        0.081420       0.006629
          14  ( 1:1:  14/   1)   22220u2d       -0.067236       0.004521
          15  ( 1:1:  15/   1)   22222002       -0.070130       0.004918
          44  ( 2:1:   4/   2)   22u2220d       -0.066224       0.004386
          63  ( 2:1:   3/   3)   2u22d220        0.117534       0.013814
          67  ( 2:1:   7/   3)   2u222udd        0.058608       0.003435
          84  ( 2:1:   4/   4)   u222220d        0.106282       0.011296
          93  ( 2:1:  13/   4)   u2222d02        0.184538       0.034054
         171  ( 3:1:   1/   8)   20222220        0.051185       0.002620
         173  ( 3:1:   3/   8)   20222u2d       -0.075738       0.005736
         195  ( 3:1:   5/  10)   02222202        0.057342       0.003288
 
  The CI coefficients for the MIXED state nr.   5
--------------------------------------------------------------------------------
 CI COEFFICIENTS LARGER THAN  0.50D-01
  Occupation of active orbitals, and spin coupling
  of open shells. (u,d: Spin up or down).
  SGUGA info is (Midvert:IsyUp:UpperWalk/LowerWalk)
        Conf  SGUGA info        Occupation    Coefficient         Weight
           3  ( 1:1:   3/   1)   2222u2d0       -0.764012       0.583714
           6  ( 1:1:   6/   1)   22220220       -0.146066       0.021335
           7  ( 1:1:   7/   1)   22222u0d        0.492123       0.242185
           8  ( 1:1:   8/   1)   2222u20d        0.151644       0.022996
          12  ( 1:1:  12/   1)   2222uudd       -0.061436       0.003774
          18  ( 1:1:  18/   1)   2222u0d2       -0.074559       0.005559
          41  ( 2:1:   1/   2)   22u222d0        0.065387       0.004275
          44  ( 2:1:   4/   2)   22u2220d       -0.087399       0.007639
          63  ( 2:1:   3/   3)   2u22d220        0.203241       0.041307
          64  ( 2:1:   4/   3)   2u22220d       -0.051001       0.002601
          88  ( 2:1:   8/   4)   u222u2dd       -0.068680       0.004717
          93  ( 2:1:  13/   4)   u2222d02       -0.134833       0.018180
         171  ( 3:1:   1/   8)   20222220        0.083265       0.006933
         197  ( 3:1:   7/  10)   0222u2d2        0.055971       0.003133
 
  The CI coefficients for the MIXED state nr.   6
--------------------------------------------------------------------------------
 CI COEFFICIENTS LARGER THAN  0.50D-01
  Occupation of active orbitals, and spin coupling
  of open shells. (u,d: Spin up or down).
  SGUGA info is (Midvert:IsyUp:UpperWalk/LowerWalk)
        Conf  SGUGA info        Occupation    Coefficient         Weight
           3  ( 1:1:   3/   1)   2222u2d0        0.245811       0.060423
           7  ( 1:1:   7/   1)   22222u0d        0.080913       0.006547
           8  ( 1:1:   8/   1)   2222u20d        0.840252       0.706023
          16  ( 1:1:  16/   1)   2222ud02        0.071568       0.005122
          44  ( 2:1:   4/   2)   22u2220d       -0.340527       0.115958
          63  ( 2:1:   3/   3)   2u22d220       -0.063593       0.004044
          66  ( 2:1:   6/   3)   2u22d2ud       -0.146691       0.021518
          68  ( 2:1:   8/   3)   2u22u2dd       -0.202750       0.041108
         174  ( 3:1:   4/   8)   2022u22d        0.120449       0.014508
 
  The CI coefficients for the MIXED state nr.   7
--------------------------------------------------------------------------------
 CI COEFFICIENTS LARGER THAN  0.50D-01
  Occupation of active orbitals, and spin coupling
  of open shells. (u,d: Spin up or down).
  SGUGA info is (Midvert:IsyUp:UpperWalk/LowerWalk)
        Conf  SGUGA info        Occupation    Coefficient         Weight
          21  ( 2:1:   1/   1)   222u22d0        0.146538       0.021473
          24  ( 2:1:   4/   1)   222u220d        0.871664       0.759798
          26  ( 2:1:   6/   1)   222ud2ud       -0.233764       0.054646
          28  ( 2:1:   8/   1)   222uu2dd       -0.318511       0.101449
          33  ( 2:1:  13/   1)   222u2d02        0.054634       0.002985
          34  ( 2:1:  14/   1)   222ud202        0.051214       0.002623
         112  ( 3:1:   2/   2)   22ud22ud       -0.103417       0.010695
         201  ( 4:1:   1/   1)   22uu22dd        0.100630       0.010126
         209  ( 4:1:   3/   2)   2u2ud22d       -0.079825       0.006372
         261  ( 5:1:   1/   7)   202u222d        0.079284       0.006286
 
--
 
--- Stop Module: caspt2 at Tue Jun 10 18:51:31 2025 /rc=_RC_ALL_IS_WELL_ ---
*** files: xmldump
    saved to directory /home/pcaah4/diamide_project
--- Module caspt2 spent 6 minutes 56 seconds ---

.##################.
.# Happy landing! #.
.##################.

    Timing: Wall=661.35 User=574.23 System=77.56
******************************************************
*** WorkDir at /srv/COMMUNAL_SCRATCH/12409 cleaned ***
******************************************************
