   This run of MOLCAS is using the pymolcas driver

                             OPE
                             OPE          NMOL  CASOP  ENMOLC A   SO
                 OPE        NMOLC        AS  OP EN  MO LC     AS  OP
                OPENM       OL CA        SO  PE NM  OL CA     SOP EN
                OP EN      MO   LC       AS  OP ENMOL  CASO   PENMOL
                OP  EN     MO   LC       AS  OP EN     MO     LC ASO
               OP   E  NMOL  C  AS       OP  EN MO     LC     AS  OP
               OP  E   NMO   LC AS        OPEN  MO     LCASOP EN   M
               O  PEN   MO  LCA  SO
            OPE   NMO   L   CAS    OP
        OPENMOL  CASOP     ENMOL   CASOPE
     OPENMOLCA   SOPENMOLCASOPEN   MOLCASOPE
    OPENMOLCAS   OP           EN   MOL    CAS
    OPENMOLCAS       OP  ENM        O     LCA
    OPENMOLCAS    OPEN  MOLCASO     P  E  NMO
    OPENMOLCAS     OP               E  N  MOL
    OPENMOLCA   SO           PENM   O  L  CAS    OPEN    MO    LCAS
    OPENMOLCA   SOP           ENM   O  L  CAS   OP  EN  MOLC  AS   O
    OPENMOLCA   SOPE           NM      O  LCA   S      OP  EN MO
    OPENMOLC                AS         O  PEN   M      OL  CA  SOPE
    OPENMO        LCASOPE  NMOL        C  ASO   P      ENMOLC     AS
    OPE     NMO      LCA  SO     P     E   NM   OL  CA SO  PE N   MO
          OPENMOLCA            SOPE   NMO        LCAS  O    P  ENMO
     OPENMOLCASOPENMOLCASOPENMOLCASOPENMOLCA
        OPENMOLCASOPENMOLCASOPENMOLCASOPE
            OPENMOLCASOPENMOLCASOPENM
               OPENMOLCASOPENMOLCA        version: v23.06
                   OPENMOLCASO
                       OPE                tag:

 OpenMolcas is free software; you can redistribute it and/or modify it
 under the terms of the GNU Lesser General Public License version 2.1.
 OpenMolcas is distributed in the hope that it will be useful, but it
 is provided "as is" and without any express or implied warranties.
 For more details see the full text of the license in the file
 LICENSE or in <http://www.gnu.org/licenses/>.

                 Copyright (C) The OpenMolcas Authors
           For the author list and the recommended citation,
                   consult the file CONTRIBUTORS.md

           *************************************************
           * pymolcas version py2.24                       *
           *   build 4567b286dd94b1984b333a4ddf893180      *
           *   (after the EMIL interpreter by V. Veryazov) *
           *************************************************

configuration info
------------------
Host name: loginchem01.nottingham.ac.uk (Linux)
C Compiler ID: Intel
C flags: -std=gnu99 -gcc-sys -qopenmp
Fortran Compiler ID: Intel
Fortran flags: -fpp -i8 -heap-arrays -qopenmp
Definitions: _MOLCAS_;_I8_;_LINUX_
Parallel: OFF (GA=OFF)


   --------------------------------------------------------------------------------------------------
  |
  |              Project: orca_geometry_optimisation_75_30_BP86_def2-SVP_def2J_scf_cas1_ras12i11_cas8
  |       Submitted from: /home/pcaah4/diamide_project
  |         Scratch area: /srv/COMMUNAL_SCRATCH/12510
  |      Save outputs to: /home/pcaah4/diamide_project
  |               Molcas: /software/chemistry/openmolcas/openmolcas-23.06-openmp
  |
  | Scratch area is empty
  |
  |       MOLCAS_DRIVER = /software/chemistry/openmolcas/openmolcas-23.06-openmp/sbin/pymolcas
  | MOLCAS_KEEP_WORKDIR = NO
  |       MOLCAS_NPROCS = 1
  |       MOLCAS_SOURCE = /software/chemistry/openmolcas/openmolcas-23.06-openmp
  |    MOLCAS_STRUCTURE = 0
  |
   --------------------------------------------------------------------------------------------------

++ ---------   Input file   ---------

&SEWARD
TITLE
orca_geometry_optimisation_75_30_BP86_def2-SVP_def2J_scf_cas1_ras12i11
MULTIPOLES
2
SDIPOLE
ANGMOM
0 0 0
BASIS SET
C.ANO-S...4S3P1D.
C1           -0.066737   -0.061053    0.031403 /Angstrom
C3            2.107561    1.104856    0.113960 /Angstrom
C4            2.128322    1.842902    1.471433 /Angstrom
C6            1.956722    1.544206    3.918147 /Angstrom
C19          -0.768717   -1.395755   -0.200580 /Angstrom
END OF BASIS
BASIS SET
N.ANO-S...4S3P1D.
N2            1.317188   -0.118082    0.071954 /Angstrom
N5            1.993462    1.027155    2.564523 /Angstrom
END OF BASIS
BASIS SET
O.ANO-S...4S3P1D.
O7           -0.670744    0.997229    0.168294 /Angstrom
O8            2.356124    3.047761    1.526286 /Angstrom
END OF BASIS
BASIS SET
H.ANO-S...2S1P.
H9           -1.142618   -1.430026   -1.244763 /Angstrom
H10          -1.652797   -1.450712    0.462578 /Angstrom
H11          -0.124029   -2.280451   -0.027910 /Angstrom
H12           1.778247   -0.992063   -0.185868 /Angstrom
H13           3.155124    0.861775   -0.156485 /Angstrom
H14           1.727504    1.846726   -0.618052 /Angstrom
H15           1.701151    0.064792    2.380863 /Angstrom
H16           2.233030    2.614791    3.865929 /Angstrom
H17           0.944222    1.461827    4.369971 /Angstrom
H18           2.680409    1.016466    4.574978 /Angstrom
END OF BASIS
END OF INPUT

&RASSCF
TITLE
orca_geometry_optimisation_75_30_BP86_def2-SVP_def2J_scf_cas1_ras12i11
LUMORB
SPIN
1
SYMMETRY
1
NACTEL
12  0  0
INACTIVE
29
DELETED  ! delete Rydberg orbitals from an initial CAS(12,11) if done
3
FROZEN
0
RAS2
8
ITERATIONS
64 25
CIROOT
7 7
1 2 3 4 5 6 7
1 1 1 1 1 1 1
LEVSHFT
0.3
CIMX
20
FILEorb = /home/pcaah4/diamide_project/cas/ras12i11/ras_orb/orca_geometry_optimisation_75_30_BP86_def2-SVP_def2J_scf_cas1_ras12i11.RasOrb
ALTEr
1
 1 37 38
END OF INPUT

&RASSI
NROF JOBIPH
    1 7
    1 2 3 5 4 6 7
TOFILE
TRDI
TDMN
1.0D-6
END OF INPUT

&CASPT2
TITLE
orca_geometry_optimisation_75_30_BP86_def2-SVP_def2J_scf_cas1_ras12i11
MULTISTATE
7 1 2 3 4 5 6 7
SHIFT
0.35
MAXITER
50
END OF INPUT

-- ----------------------------------

--- Start Module: seward at Tue Jun 10 22:50:33 2025 ---
 
()()()()()()()()()()()()()()()()()()()()()()()()()()()()()()()()()()()()()()()()()()()()()()()()()()

                                              &SEWARD

                                   only a single process is used
                       available to each process: 2.0 GB of memory, 1 thread
                                            pid: 3144483
()()()()()()()()()()()()()()()()()()()()()()()()()()()()()()()()()()()()()()()()()()()()()()()()()()
 
               SEWARD will generate:
                  Multipole Moment integrals up to order  2
                  Kinetic Energy integrals
                  Nuclear Attraction integrals (point charge)
                  One-Electron Hamiltonian integrals
                  Velocity integrals
                  Orbital angular momentum around ( 0.0000  0.0000  0.0000 )
                  Velocity quadrupole around ( 2.1646  1.6791  2.0566 )
                  Two-Electron Repulsion integrals
 
 Title:
             orca_geometry_optimisation_75_30_BP86_def2-SVP_def2J_scf_cas1_ras12i11     
 
 
                   Integrals are discarded if absolute value <: 0.10E-13
                   Integral cutoff threshold is set to       <: 0.10E-15
 
++    Symmetry information:
      ---------------------
 
                    Character Table for C1 
 
                             E  
                    a        1  x, y, xy, Rz, z, xz, Ry, yz, Rx, I
--
 
 
++    Basis set information:
      ----------------------
 
 
      Basis set label: C.ANO-S...4S3P1D......
 
      Electronic valence basis set:
      ------------------
      Associated Effective Charge   6.000000 au
      Associated Actual Charge      6.000000 au
      Nuclear Model: Point charge
 
      Shell  nPrim  nBasis  Cartesian Spherical Contaminant
         s      10       4        X                  
         p       6       3        X                  
         d       3       1                 X         
 
 
      Basis set label: N.ANO-S...4S3P1D......
 
      Electronic valence basis set:
      ------------------
      Associated Effective Charge   7.000000 au
      Associated Actual Charge      7.000000 au
      Nuclear Model: Point charge
 
      Shell  nPrim  nBasis  Cartesian Spherical Contaminant
         s      10       4        X                  
         p       6       3        X                  
         d       3       1                 X         
 
 
      Basis set label: O.ANO-S...4S3P1D......
 
      Electronic valence basis set:
      ------------------
      Associated Effective Charge   8.000000 au
      Associated Actual Charge      8.000000 au
      Nuclear Model: Point charge
 
      Shell  nPrim  nBasis  Cartesian Spherical Contaminant
         s      10       4        X                  
         p       6       3        X                  
         d       3       1                 X         
 
 
      Basis set label: H.ANO-S...2S1P......
 
      Electronic valence basis set:
      ------------------
      Associated Effective Charge   1.000000 au
      Associated Actual Charge      1.000000 au
      Nuclear Model: Point charge
 
      Shell  nPrim  nBasis  Cartesian Spherical Contaminant
         s       7       2        X                  
         p       3       1        X                  
--
 
 
++    Molecular structure info:
      -------------------------
 
                    ************************************************ 
                    **** Cartesian Coordinates / Bohr, Angstrom **** 
                    ************************************************ 
 
     Center  Label                x              y              z                     x              y              z
        1      C1              -0.126115      -0.115373       0.059343             -0.066737      -0.061053       0.031403
        2      C3               3.982713       2.087875       0.215353              2.107561       1.104856       0.113960
        3      C4               4.021946       3.482580       2.780605              2.128322       1.842902       1.471433
        4      C6               3.697669       2.918126       7.404225              1.956722       1.544206       3.918147
        5      C19             -1.452665      -2.637595      -0.379041             -0.768717      -1.395755      -0.200580
        6      N2               2.489125      -0.223143       0.135973              1.317188      -0.118082       0.071954
        7      N5               3.767097       1.941042       4.846246              1.993462       1.027155       2.564523
        8      O7              -1.267522       1.884490       0.318030             -0.670744       0.997229       0.168294
        9      O8               4.452429       5.759434       2.884263              2.356124       3.047761       1.526286
       10      H9              -2.159235      -2.702357      -2.352261             -1.142618      -1.430026      -1.244763
       11      H10             -3.123334      -2.741448       0.874146             -1.652797      -1.450712       0.462578
       12      H11             -0.234381      -4.309428      -0.052742             -0.124029      -2.280451      -0.027910
       13      H12              3.360400      -1.874727      -0.351240              1.778247      -0.992063      -0.185868
       14      H13              5.962320       1.628519      -0.295714              3.155124       0.861775      -0.156485
       15      H14              3.264509       3.489806      -1.167949              1.727504       1.846726      -0.618052
       16      H15              3.214709       0.122439       4.499179              1.701151       0.064792       2.380863
       17      H16              4.219815       4.941239       7.305547              2.233030       2.614791       3.865929
       18      H17              1.784321       2.762453       8.258048              0.944222       1.461827       4.369971
       19      H18              5.065239       1.920842       8.645455              2.680409       1.016466       4.574978
 
                    ************************************************* 
                    **** InterNuclear Distances / Bohr, Angstrom **** 
                    ************************************************* 
 
     Atom centers         Bohr        Angstrom
   13 H12       6 N2      1.929826        1.021220
   16 H15       7 N5      1.932072        1.022409
   11 H10       5 C19     2.091028        1.106524
   17 H16       4 C6      2.091736        1.106899
   12 H11       5 C19     2.094209        1.108208
   14 H13       2 C3      2.095481        1.108881
   15 H14       2 C3      2.096366        1.109349
   10 H9        5 C19     2.096910        1.109637
   19 H18       4 C6      2.098923        1.110702
   18 H17       4 C6      2.100988        1.111795
    8 O7        1 C1      2.317150        1.226183
    9 O8        3 C4      2.319509        1.227431
    7 N5        3 C4      2.590012        1.370575
    6 N2        1 C1      2.618580        1.385693
    7 N5        4 C6      2.739118        1.449479
    6 N2        2 C3      2.752801        1.456719
    5 C19       1 C1      2.883317        1.525786
    3 C4        2 C3      2.920147        1.545275
   11 H10      10 H9      3.367598        1.782056
   15 H14      14 H13     3.391662        1.794790
   12 H11      10 H9      3.402282        1.800410
   18 H17      17 H16     3.403821        1.801225
   19 H18      18 H17     3.409225        1.804084
   19 H18      17 H16     3.410702        1.804866
   12 H11      11 H10     3.415220        1.807257
   16 H15       3 C4      3.859491        2.042355
   17 H16       7 N5      3.905675        2.066794
   13 H12       1 C1      3.926791        2.077968
   14 H13       6 N2      3.959557        2.095307
   15 H14       6 N2      4.010913        2.122484
   19 H18       7 N5      4.014919        2.124603
   15 H14       3 C4      4.020553        2.127585
   18 H17       7 N5      4.030696        2.132953
   13 H12       2 C3      4.050990        2.143692
   16 H15       4 C6      4.060592        2.148773
   11 H10       1 C1      4.067370        2.152359
   10 H9        1 C1      4.079449        2.158751
   14 H13       3 C4      4.082442        2.160336
   12 H11       1 C1      4.196949        2.220930
    8 O7        6 N2      4.311340        2.281463
    9 O8        7 N5      4.347318        2.300502
   13 H12      12 H11     4.351932        2.302943
   14 H13      13 H12     4.364150        2.309409
   16 H15       6 N2      4.436605        2.347750
   17 H16       9 O8      4.502367        2.382550
    9 O8        2 C3      4.563338        2.414814
    8 O7        5 C19     4.579239        2.423229
    7 N5        2 C3      4.638235        2.454448
    6 N2        5 C19     4.651077        2.461244
    2 C3        1 C1      4.664880        2.468548
    4 C6        3 C4      4.669220        2.470845
   17 H16       3 C4      4.758354        2.518013
   16 H15       2 C3      4.775346        2.527004
   15 H14       9 O8      4.794036        2.536894
    6 N2        3 C4      4.803749        2.542034
   18 H17      16 H15     4.810902        2.545820
   13 H12       5 C19     4.873226        2.578800
   19 H18      16 H15     4.883679        2.584332
   12 H11       6 N2      4.914349        2.600561
   11 H10       8 O7      5.015237        2.653949
   15 H14       8 O7      5.032344        2.663002
   15 H14       1 C1      5.099010        2.698280
   16 H15      13 H12     5.247519        2.776868
    8 O7        2 C3      5.255177        2.780920
    7 N5        6 N2      5.338874        2.825211
   10 H9        8 O7      5.381893        2.847975
    9 O8        4 C6      5.391915        2.853279
   15 H14      13 H12     5.427194        2.871947
   14 H13       9 O8      5.427382        2.872047
   16 H15       1 C1      5.561457        2.942996
   14 H13       7 N5      5.599681        2.963224
   17 H16      16 H15     5.666284        2.998468
--
 
 
            Nuclear Potential Energy            460.15282299 au
 
 
      Basis set specifications :
      Symmetry species         a  
      Basis functions          212
 
 
      Input file to MOLDEN was generated!
 
--- Stop Module: seward at Tue Jun 10 22:52:23 2025 /rc=_RC_ALL_IS_WELL_ ---
*** files: orca_geometry_optimisation_75_30_BP86_def2-SVP_def2J_scf_cas1_ras12i11_cas8.GssOrb
           orca_geometry_optimisation_75_30_BP86_def2-SVP_def2J_scf_cas1_ras12i11_cas8.guessorb.molden xmldump
    saved to directory /home/pcaah4/diamide_project
--- Module seward spent 1 minute 50 seconds ---

*** symbolic link created: INPORB -> orca_geometry_optimisation_75_30_BP86_def2-SVP_def2J_scf_cas1_ras12i11_cas8.GssOrb
--- Start Module: rasscf at Tue Jun 10 22:52:24 2025 ---
 
()()()()()()()()()()()()()()()()()()()()()()()()()()()()()()()()()()()()()()()()()()()()()()()()()()

                                              &RASSCF

                                   only a single process is used
                       available to each process: 2.0 GB of memory, 1 thread
                                            pid: 3144522
()()()()()()()()()()()()()()()()()()()()()()()()()()()()()()()()()()()()()()()()()()()()()()()()()()
 
 
      Header of the ONEINT file:
      --------------------------
      orca_geometry_optimisation_75_30_BP86_def2-SVP_def2J_scf_cas1_ras12i11
      Integrals generated by Gateway/Seward, Tue Jun 10 22:50:33 2025
 
 
      OrdInt status: non-squared
 
 
      Cartesian coordinates in Angstrom:
      -----------------------------------------------------
      No.  Label        X            Y            Z        
      -----------------------------------------------------
       1   C1        -0.06673700  -0.06105300   0.03140300
       2   C3         2.10756100   1.10485600   0.11396000
       3   C4         2.12832200   1.84290200   1.47143300
       4   C6         1.95672200   1.54420600   3.91814700
       5   C19       -0.76871700  -1.39575500  -0.20058000
       6   N2         1.31718800  -0.11808200   0.07195400
       7   N5         1.99346200   1.02715500   2.56452300
       8   O7        -0.67074400   0.99722900   0.16829400
       9   O8         2.35612400   3.04776100   1.52628600
      10   H9        -1.14261800  -1.43002600  -1.24476300
      11   H10       -1.65279700  -1.45071200   0.46257800
      12   H11       -0.12402900  -2.28045100  -0.02791000
      13   H12        1.77824700  -0.99206300  -0.18586800
      14   H13        3.15512400   0.86177500  -0.15648500
      15   H14        1.72750400   1.84672600  -0.61805200
      16   H15        1.70115100   0.06479200   2.38086300
      17   H16        2.23303000   2.61479100   3.86592900
      18   H17        0.94422200   1.46182700   4.36997100
      19   H18        2.68040900   1.01646600   4.57497800
      -----------------------------------------------------
      Nuclear repulsion energy =  460.15282299
 
++    Wave function specifications:
      -----------------------------
 
      Number of closed shell electrons          58
      Number of electrons in active shells      12
      Max number of holes in RAS1 space          0
      Max nr of electrons in RAS3 space          0
      Number of inactive orbitals               29
      Number of active orbitals                  8
      Number of secondary orbitals             172
      Spin quantum number                      0.0
      State symmetry                             1
--
 
++    Orbital specifications:
      -----------------------
 
      Symmetry species                           1
                                                 a
      Frozen orbitals                            0
      Inactive orbitals                         29
      Active orbitals                            8
      RAS1 orbitals                              0
      RAS2 orbitals                              8
      RAS3 orbitals                              0
      Secondary orbitals                       172
      Deleted orbitals                           3
      Number of basis functions                212
--
 
++    CI expansion specifications:
      ----------------------------
 
      Number of CSFs                           336
      Number of determinants                   406
      Number of root(s) required                 7
      Root chosen for geometry opt.              7
      CI roots used                              1     2     3     4     5     6     7
      weights                                0.143 0.143 0.143 0.143 0.143 0.143 0.143
      highest root included in the CI            7
      max. size of the explicit Hamiltonian    200
--
 
++    Optimization specifications:
      ----------------------------
 
      RASSCF algorithm: Conventional
      Maximum number of macro iterations        64
      Maximum number of SX iterations           25
      Threshold for RASSCF energy            0.100E-07
      Threshold for max MO rotation          0.100E+00
      Threshold for max BLB element          0.100E-03
      Level shift parameter                  0.300E+00
      Make Quasi-Newton update
--
 
      The MO-coefficients are taken from the file:
      /home/pcaah4/diamide_project/cas/ras12i11/ras_orb/orca_geometry_optimisation_75_30_BP86_def2-SVP_def2J_scf_cas1_ras12i11.RasOrb                                                                                                                                 
      Title: RASSCF average (pseudo-natural) orbitals                                      
 
      Total molecular charge    0.00
 
      Molecular orbitals exchanged:
        In symmetry  1 :  37  38
 
 
      ************************************************************************************************************************
      *                                                                                                                      *
      *                                            Wave function control section                                             *
      *                                                                                                                      *
      ************************************************************************************************************************
 
 
                                         RASSCF iterations: Energy and convergence statistics
                                         ----------------------------------------------------
 
      Iter CI   SX   CI       RASSCF       Energy    max ROT     max BLB   max BLB  Level Ln srch  Step   QN   Walltime
          iter iter root      energy       change     param      element    value   shift minimum  type update hh:mm:ss
 Nr of preliminary CI iterations:   4
        1   1   25    0  -453.68756926    0.00E+00   0.64E-01   24  72 1 -0.15E-01*  0.14   0.00    SX    NO    0:00:13
        2   5   11    0  -453.70122725   -0.14E-01* -0.40E-01   32  39 1  0.80E-02*  0.13   0.00    SX    NO    0:00:07
        3   3   13    0  -453.70341283   -0.22E-02* -0.23E-01   33  38 1 -0.45E-02*  0.14   0.00    SX    NO    0:00:07
        4   5   11    0  -453.70465288   -0.12E-02* -0.13E-01   33  38 1 -0.36E-02*  0.14   0.00    SX    NO    0:00:07
        5   4   11    0  -453.70500541   -0.35E-03* -0.31E-01   24  73 1 -0.16E-02*  0.15   1.39    QN   YES    0:00:06
        6   6   11    0  -453.70525641   -0.25E-03* -0.86E-02   33  38 1  0.41E-02*  0.15   0.73    QN   YES    0:00:06
        7   8   10    0  -453.70529498   -0.39E-04*  0.75E-03   10  84 1  0.20E-02*  0.15   0.55    SX   YES    0:00:06
        8   6   10    0  -453.70533243   -0.37E-04* -0.11E-02   33  38 1  0.12E-02*  0.15   0.69    QN   YES    0:00:06
        9   4    9    0  -453.70533820   -0.58E-05*  0.54E-03   20  99 1 -0.25E-03*  0.15   0.82    QN   YES    0:00:07
       10   4    8    0  -453.70533964   -0.14E-05*  0.80E-03   24 165 1  0.68E-04   0.15   2.50    LS   YES    0:00:06
       11   4    9    0  -453.70533925    0.39E-06*  0.34E-03   33  38 1 -0.47E-03*  0.15   0.39    LS   YES    0:00:06
       12   5    9    0  -453.70533979   -0.53E-06*  0.27E-03   33  38 1 -0.29E-03*  0.15   1.51    QN   YES    0:00:06
       13   4    7    0  -453.70534011   -0.32E-06*  0.20E-03   33  38 1 -0.52E-04   0.15   1.25    QN   YES    0:00:06
       14   1    7    0  -453.70534017   -0.56E-07*  0.20E-03   33  38 1  0.22E-04   0.15   1.52    QN   YES    0:00:06
       15   4    6    0  -453.70534019   -0.25E-07* -0.10E-03   33  38 1  0.16E-04   0.15   1.29    QN   YES    0:00:06
       16   3    6    0  -453.70534020   -0.61E-08   0.22E-04   33  38 1  0.52E-05   0.15   1.09    QN   YES    0:00:06
      Convergence after 16 iterations
       17   1    6    0  -453.70534020   -0.71E-09   0.22E-04   22  97 1  0.17E-05   0.15   1.09    QN   YES    0:00:06
 
      ************************************************************************************************************************
                                                      Wave function printout:
                       occupation of active orbitals, and spin coupling of open shells (u,d: Spin up or down)
      ************************************************************************************************************************
 
      Note: transformation to natural orbitals
      has been made, which may change the order of the CSFs.
 
      printout of CI-coefficients larger than  0.05 for root  1
      energy=    -453.958445
      conf/sym  11111111     Coeff  Weight
             1  22222200   0.95685 0.91555
             2  22222ud0   0.11835 0.01401
             4  22222020  -0.09269 0.00859
            21  222u22d0   0.07536 0.00568
            61  2u2222d0   0.08828 0.00779
            62  2u222d20  -0.06851 0.00469
            84  u222220d   0.11035 0.01218
           145  22022202  -0.07145 0.00510
           165  u2d22202   0.05526 0.00305
           171  20222220  -0.09035 0.00816
           195  02222202  -0.07900 0.00624
 
      printout of CI-coefficients larger than  0.05 for root  2
      energy=    -453.746946
      conf/sym  11111111     Coeff  Weight
             3  2222u2d0   0.95520 0.91241
             5  2222ud20  -0.12785 0.01635
            23  222ud220   0.05828 0.00340
            63  2u22d220  -0.15967 0.02549
            86  u222d2ud   0.05949 0.00354
            88  u222u2dd   0.09804 0.00961
           147  2202u2d2  -0.07244 0.00525
           167  u2d2u2d2   0.05457 0.00298
           197  0222u2d2  -0.07897 0.00624
 
      printout of CI-coefficients larger than  0.05 for root  3
      energy=    -453.744369
      conf/sym  11111111     Coeff  Weight
             7  22222u0d  -0.08835 0.00781
            24  222u220d  -0.85881 0.73756
            25  222u2dud  -0.05390 0.00291
            27  222u2udd  -0.07920 0.00627
            29  222u202d   0.08531 0.00728
            44  22u2220d   0.39014 0.15221
           102  222022ud  -0.06428 0.00413
           105  22202202  -0.09406 0.00885
           115  22ud2202  -0.11640 0.01355
           135  u22d2202   0.11672 0.01362
           145  22022202   0.08810 0.00776
           165  u2d22202  -0.05843 0.00341
           207  2u2u22dd   0.07519 0.00565
           208  2u2u2d2d  -0.05064 0.00256
           261  202u222d  -0.07967 0.00635
 
      printout of CI-coefficients larger than  0.05 for root  4
      energy=    -453.642642
      conf/sym  11111111     Coeff  Weight
             8  2222u20d  -0.51089 0.26101
            10  2222udud   0.05588 0.00312
            12  2222uudd   0.07891 0.00623
            21  222u22d0  -0.05575 0.00311
            24  222u220d   0.34442 0.11862
            44  22u2220d   0.70866 0.50220
            45  22u22dud   0.05074 0.00257
            47  22u22udd   0.08863 0.00786
            49  22u2202d  -0.07415 0.00550
            84  u222220d   0.08826 0.00779
           135  u22d2202  -0.08034 0.00645
           165  u2d22202  -0.16322 0.02664
           195  02222202   0.06200 0.00384
           219  2uu222dd  -0.06913 0.00478
           293  20u2222d   0.06704 0.00449
 
      printout of CI-coefficients larger than  0.05 for root  5
      energy=    -453.625607
      conf/sym  11111111     Coeff  Weight
             1  22222200  -0.09508 0.00904
             2  22222ud0   0.87012 0.75711
             4  22222020   0.14787 0.02186
             7  22222u0d  -0.22866 0.05229
             8  2222u20d   0.18176 0.03304
            12  2222uudd  -0.06255 0.00391
            21  222u22d0  -0.07557 0.00571
            44  22u2220d   0.05700 0.00325
            61  2u2222d0  -0.07788 0.00607
            62  2u222d20  -0.23262 0.05411
            85  u2222dud   0.05358 0.00287
            87  u2222udd   0.09428 0.00889
           146  22022ud2  -0.06459 0.00417
           171  20222220  -0.08607 0.00741
           196  02222ud2  -0.07175 0.00515
 
      printout of CI-coefficients larger than  0.05 for root  6
      energy=    -453.618186
      conf/sym  11111111     Coeff  Weight
             2  22222ud0   0.20687 0.04280
             7  22222u0d   0.91696 0.84082
             8  2222u20d   0.06991 0.00489
            24  222u220d  -0.05318 0.00283
            25  222u2dud  -0.10731 0.01152
            44  22u2220d   0.09437 0.00891
            53  22u22d02  -0.05141 0.00264
            62  2u222d20  -0.05647 0.00319
            65  2u222dud  -0.15744 0.02479
            67  2u222udd  -0.15992 0.02558
           173  20222u2d   0.11926 0.01422
 
      printout of CI-coefficients larger than  0.05 for root  7
      energy=    -453.601186
      conf/sym  11111111     Coeff  Weight
             1  22222200   0.05107 0.00261
             2  22222ud0  -0.19382 0.03756
             4  22222020  -0.05424 0.00294
             7  22222u0d  -0.05332 0.00284
             8  2222u20d   0.73791 0.54451
            10  2222udud  -0.15160 0.02298
            12  2222uudd  -0.22347 0.04994
            24  222u220d   0.18258 0.03334
            26  222ud2ud  -0.12287 0.01510
            28  222uu2dd   0.13872 0.01924
            44  22u2220d   0.45909 0.21076
            48  22u2u2dd  -0.05740 0.00330
            61  2u2222d0   0.05291 0.00280
           165  u2d22202  -0.09688 0.00939
           174  2022u22d   0.05892 0.00347
 
      Natural orbitals and occupation numbers for root  1
      sym 1:   1.995901   1.962604   1.996192   1.999673   1.999771   1.952691   0.051769   0.041399
 
      Natural orbitals and occupation numbers for root  2
      sym 1:   1.962411   1.999273   1.995717   1.998073   1.005860   1.999927   0.995428   0.043311
 
      Natural orbitals and occupation numbers for root  3
      sym 1:   1.999878   1.995468   1.999596   1.002001   1.998002   1.952992   0.053342   0.998720
 
      Natural orbitals and occupation numbers for root  4
      sym 1:   1.979171   1.986859   1.118914   1.993128   1.963173   1.939186   0.081289   0.938280
 
      Natural orbitals and occupation numbers for root  5
      sym 1:   1.954536   1.964555   1.994588   1.996873   1.975797   1.092020   0.941275   0.080356
 
      Natural orbitals and occupation numbers for root  6
      sym 1:   1.999296   1.910205   1.995557   1.990749   1.997694   1.026624   0.101181   0.978694
 
      Natural orbitals and occupation numbers for root  7
      sym 1:   1.992860   1.971186   1.931503   1.980317   1.168215   1.895011   0.154093   0.906813
 
      ************************************************************************************************************************
      *                                                                                                                      *
      *                                                    Final results                                                     *
      *                                                                                                                      *
      ************************************************************************************************************************
 
 
++    Wave function specifications:
      -----------------------------
 
      Number of closed shell electrons          58
      Number of electrons in active shells      12
      Max number of holes in RAS1 space          0
      Max nr of electrons in RAS3 space          0
      Number of inactive orbitals               29
      Number of active orbitals                  8
      Number of secondary orbitals             172
      Spin quantum number                      0.0
      State symmetry                             1
--
 
++    Orbital specifications:
      -----------------------
 
      Symmetry species                           1
                                                 a
      Frozen orbitals                            0
      Inactive orbitals                         29
      Active orbitals                            8
      RAS1 orbitals                              0
      RAS2 orbitals                              8
      RAS3 orbitals                              0
      Secondary orbitals                       172
      Deleted orbitals                           3
      Number of basis functions                212
--
 
++    CI expansion specifications:
      ----------------------------
 
      Number of CSFs                           336
      Number of determinants                   406
      Number of root(s) required                 7
      CI roots used                              1     2     3     4     5     6     7
      weights                                0.143 0.143 0.143 0.143 0.143 0.143 0.143
      highest root included in the CI            7
      Root passed to geometry opt.               7
--
 
++    Final optimization conditions:
      ------------------------------
 
      Average CI energy                            -453.70534020
      RASSCF energy for state  7                   -453.60118568
      Super-CI energy                                -0.00000000
      RASSCF energy change                            0.00000000
      Max change in MO coefficients              -0.239E-04
      Max non-diagonal density matrix element     0.221E-04
      Maximum BLB matrix element                  0.173E-05
      (orbital pair  22,  97 in symmetry   1)
      Norm of electronic gradient            0.254E+00
--
 
 
      Final state energy(ies):
      ------------------------
 
::    RASSCF root number  1 Total energy:   -453.95844541
::    RASSCF root number  2 Total energy:   -453.74694624
::    RASSCF root number  3 Total energy:   -453.74436862
::    RASSCF root number  4 Total energy:   -453.64264230
::    RASSCF root number  5 Total energy:   -453.62560702
::    RASSCF root number  6 Total energy:   -453.61818610
::    RASSCF root number  7 Total energy:   -453.60118568
 
++    Molecular orbitals:
      -------------------
 
      Pseudonatural active orbitals and approximate occupation numbers
 
 
 
 
      Molecular orbitals for symmetry species 1: a  
 
 
      Orbital                 1         2         3         4         5         6         7         8         9        10
      Energy           -20.5997  -20.5128  -15.6364  -15.5950  -11.3400  -11.2933  -11.2922  -11.2749  -11.2252   -1.4248
      Occ. No.           2.0000    2.0000    2.0000    2.0000    2.0000    2.0000    2.0000    2.0000    2.0000    2.0000
 
     1 C1     1s        -0.0001    0.0003    0.0000    0.0002   -0.0001   -0.0007   -0.0000    0.9999    0.0061    0.0007
     2 C1     2s        -0.0006    0.0006    0.0001    0.0010   -0.0004   -0.0009   -0.0000    0.0022    0.0003    0.0305
     3 C1     3s        -0.0004   -0.0007   -0.0000    0.0004   -0.0003   -0.0008   -0.0001   -0.0001    0.0005    0.0137
     4 C1     4s        -0.0001   -0.0004   -0.0001    0.0001   -0.0001   -0.0003   -0.0000    0.0014    0.0002    0.0041
     5 C1     2px       -0.0002   -0.0009   -0.0002    0.0017   -0.0000    0.0000   -0.0002    0.0019    0.0003    0.0142
     6 C1     3px       -0.0001   -0.0006   -0.0002    0.0014   -0.0001   -0.0003   -0.0002    0.0020   -0.0003    0.0135
     7 C1     4px       -0.0000    0.0001   -0.0000   -0.0000   -0.0000   -0.0003   -0.0000    0.0007   -0.0003    0.0016
     8 C1     2py        0.0001    0.0030   -0.0003    0.0001   -0.0003    0.0001   -0.0002    0.0005    0.0007    0.0193
     9 C1     3py        0.0001    0.0022   -0.0004    0.0000   -0.0004   -0.0003   -0.0004    0.0007   -0.0001    0.0200
    10 C1     4py       -0.0000   -0.0003   -0.0001   -0.0000   -0.0001   -0.0003   -0.0001    0.0006   -0.0003    0.0046
    11 C1     2pz        0.0000    0.0005   -0.0001    0.0000   -0.0001    0.0001   -0.0002    0.0002    0.0000    0.0043
    12 C1     3pz        0.0000    0.0004   -0.0001    0.0001   -0.0001    0.0001   -0.0003    0.0005   -0.0001    0.0041
    13 C1     4pz        0.0000   -0.0000   -0.0000    0.0000   -0.0000    0.0000   -0.0001    0.0002   -0.0001    0.0008
    14 C1     3d2-      -0.0000    0.0001   -0.0000    0.0001   -0.0000    0.0000    0.0000   -0.0003   -0.0001   -0.0004
    15 C1     3d1-       0.0000    0.0000   -0.0000    0.0000   -0.0000   -0.0000   -0.0000    0.0001    0.0000    0.0002
    16 C1     3d0       -0.0000   -0.0000    0.0000    0.0001    0.0000   -0.0001    0.0000   -0.0003   -0.0001   -0.0015
    17 C1     3d1+      -0.0000    0.0000   -0.0000   -0.0000   -0.0000   -0.0000   -0.0000   -0.0000   -0.0000    0.0003
    18 C1     3d2+      -0.0000    0.0001   -0.0000   -0.0002    0.0000    0.0000    0.0000   -0.0001    0.0001    0.0006
    19 C3     1s         0.0001    0.0003   -0.0000    0.0004    0.0059    0.9995   -0.0014    0.0005   -0.0000   -0.0122
    20 C3     2s         0.0007    0.0017   -0.0001    0.0022   -0.0002   -0.0015    0.0006   -0.0001   -0.0003    0.0092
    21 C3     3s         0.0005    0.0011   -0.0000    0.0010   -0.0003   -0.0027    0.0004   -0.0001   -0.0001   -0.0355
    22 C3     4s         0.0000    0.0002   -0.0000    0.0001    0.0000    0.0007    0.0000   -0.0001   -0.0000   -0.0050
    23 C3     2px        0.0003   -0.0003   -0.0003   -0.0006   -0.0002    0.0001   -0.0002    0.0004   -0.0004    0.0090
    24 C3     3px        0.0003   -0.0001   -0.0003   -0.0001   -0.0004   -0.0001   -0.0003    0.0007   -0.0005    0.0121
    25 C3     4px       -0.0000    0.0001    0.0000    0.0002   -0.0001   -0.0005   -0.0001    0.0002   -0.0001    0.0015
    26 C3     2py       -0.0012   -0.0002    0.0009   -0.0005    0.0006   -0.0006   -0.0002    0.0004    0.0003    0.0247
    27 C3     3py       -0.0012   -0.0001    0.0009    0.0001    0.0003   -0.0004   -0.0005    0.0003    0.0002    0.0087
    28 C3     4py       -0.0001    0.0000    0.0000    0.0002   -0.0001   -0.0005   -0.0002   -0.0000   -0.0000    0.0022
    29 C3     2pz        0.0003    0.0000    0.0001    0.0003    0.0000   -0.0002    0.0002    0.0003   -0.0002    0.0052
    30 C3     3pz        0.0000   -0.0000    0.0001    0.0004   -0.0004   -0.0002    0.0000    0.0004   -0.0002   -0.0119
    31 C3     4pz       -0.0002   -0.0001   -0.0000    0.0001   -0.0001    0.0004   -0.0001    0.0001   -0.0000    0.0082
    32 C3     3d2-       0.0000    0.0000    0.0000    0.0000   -0.0001   -0.0001   -0.0000    0.0000   -0.0000   -0.0003
    33 C3     3d1-      -0.0001   -0.0000    0.0000    0.0000    0.0001   -0.0000    0.0000   -0.0000   -0.0000    0.0058
    34 C3     3d0        0.0001    0.0000    0.0000    0.0001   -0.0000   -0.0001    0.0001   -0.0000    0.0000   -0.0018
    35 C3     3d1+      -0.0001    0.0000    0.0000    0.0000    0.0000   -0.0000    0.0000    0.0000    0.0000    0.0018
    36 C3     3d2+       0.0000   -0.0000   -0.0001    0.0000    0.0001    0.0001    0.0000    0.0000   -0.0000   -0.0006
    37 C4     1s         0.0003   -0.0001    0.0002   -0.0002    1.0000   -0.0059    0.0002   -0.0001    0.0000   -0.0396
    38 C4     2s         0.0011   -0.0003    0.0006   -0.0013    0.0025    0.0009    0.0001   -0.0011    0.0001    0.3538
    39 C4     3s        -0.0004   -0.0002    0.0001   -0.0009   -0.0000    0.0002   -0.0000   -0.0009    0.0001   -0.0069
    40 C4     4s        -0.0004   -0.0000    0.0000   -0.0002    0.0013    0.0000   -0.0001   -0.0003    0.0000    0.0028
    41 C4     2px        0.0006   -0.0001   -0.0002    0.0000    0.0003   -0.0001    0.0001   -0.0002    0.0002    0.0280
    42 C4     3px        0.0005   -0.0001   -0.0001   -0.0001   -0.0002    0.0001    0.0002   -0.0004    0.0003   -0.0135
    43 C4     4px       -0.0000   -0.0001   -0.0000   -0.0001    0.0000    0.0001    0.0000   -0.0001    0.0000    0.0057
    44 C4     2py        0.0033   -0.0000   -0.0008    0.0002    0.0001   -0.0005    0.0002    0.0001   -0.0001    0.1016
    45 C4     3py        0.0024    0.0001   -0.0006    0.0002   -0.0001    0.0001    0.0001    0.0003   -0.0001   -0.0684
    46 C4     4py       -0.0003    0.0001   -0.0000    0.0000    0.0003    0.0003   -0.0001    0.0001   -0.0000    0.0266
    47 C4     2pz        0.0002   -0.0000    0.0016    0.0000    0.0013   -0.0013   -0.0002    0.0002   -0.0000    0.0314
    48 C4     3pz        0.0001   -0.0002    0.0012   -0.0002    0.0009   -0.0010   -0.0009    0.0001   -0.0000   -0.0001
    49 C4     4pz       -0.0001   -0.0001   -0.0002   -0.0001    0.0006   -0.0000   -0.0006   -0.0001   -0.0000    0.0073
    50 C4     3d2-      -0.0000   -0.0000   -0.0000    0.0001    0.0002   -0.0000    0.0000   -0.0000   -0.0000    0.0157
    51 C4     3d1-      -0.0000   -0.0000    0.0002   -0.0000   -0.0002    0.0000   -0.0001   -0.0000    0.0000   -0.0007
    52 C4     3d0        0.0002   -0.0000   -0.0000   -0.0000   -0.0001    0.0000    0.0001    0.0000   -0.0000   -0.0167
    53 C4     3d1+       0.0000   -0.0000    0.0000   -0.0001   -0.0000    0.0000   -0.0000   -0.0000   -0.0000   -0.0003
    54 C4     3d2+       0.0001   -0.0000    0.0001   -0.0000   -0.0006    0.0001   -0.0001    0.0000   -0.0000   -0.0392
    55 C6     1s         0.0001   -0.0000    0.0004   -0.0001   -0.0002    0.0016    0.9996    0.0000    0.0001   -0.0082
    56 C6     2s         0.0005   -0.0001    0.0019   -0.0004    0.0001    0.0006   -0.0005   -0.0001    0.0005    0.0211
    57 C6     3s         0.0003   -0.0001    0.0007   -0.0003   -0.0002    0.0005   -0.0020   -0.0001    0.0003   -0.0122
    58 C6     4s         0.0001   -0.0000   -0.0000   -0.0001   -0.0002    0.0001    0.0008   -0.0001    0.0001   -0.0002
    59 C6     2px        0.0002   -0.0002    0.0001   -0.0001   -0.0001   -0.0000   -0.0000   -0.0001    0.0001   -0.0044
    60 C6     3px        0.0002   -0.0001    0.0001   -0.0000   -0.0001   -0.0000   -0.0001   -0.0001    0.0001   -0.0046
    61 C6     4px       -0.0000    0.0000    0.0000    0.0000   -0.0000   -0.0000    0.0000    0.0000   -0.0000    0.0007
    62 C6     2py        0.0001   -0.0000   -0.0003   -0.0001   -0.0001   -0.0001   -0.0001   -0.0001   -0.0000    0.0001
    63 C6     3py        0.0001   -0.0000   -0.0001   -0.0000   -0.0003   -0.0000    0.0002   -0.0001    0.0000    0.0028
    64 C6     4py       -0.0001    0.0000    0.0000    0.0000   -0.0001    0.0000   -0.0002   -0.0000    0.0000   -0.0005
    65 C6     2pz       -0.0003    0.0001   -0.0005    0.0000    0.0004   -0.0003   -0.0000    0.0001   -0.0001   -0.0212
    66 C6     3pz       -0.0002    0.0001    0.0001    0.0000    0.0006   -0.0002    0.0003    0.0002   -0.0001    0.0021
    67 C6     4pz        0.0000    0.0000    0.0003    0.0000    0.0001    0.0001   -0.0007    0.0001   -0.0000   -0.0034
    68 C6     3d2-       0.0000    0.0000   -0.0000   -0.0000    0.0000    0.0000   -0.0000    0.0000   -0.0000    0.0004
    69 C6     3d1-       0.0000    0.0000   -0.0001    0.0000   -0.0001    0.0000   -0.0001   -0.0000    0.0000    0.0021
    70 C6     3d0        0.0000   -0.0000   -0.0000    0.0000    0.0000    0.0000   -0.0000    0.0000   -0.0000    0.0038
    71 C6     3d1+      -0.0000   -0.0000    0.0000    0.0000   -0.0000   -0.0000   -0.0000   -0.0000    0.0000   -0.0005
    72 C6     3d2+      -0.0000    0.0000    0.0001    0.0000   -0.0000   -0.0000    0.0000    0.0000   -0.0000   -0.0004
    73 C19    1s         0.0000    0.0002   -0.0000    0.0000    0.0000    0.0001   -0.0000    0.0060   -0.9999    0.0004
    74 C19    2s         0.0001    0.0012   -0.0002    0.0001    0.0001    0.0006   -0.0002    0.0003   -0.0019    0.0072
    75 C19    3s        -0.0000    0.0007   -0.0001    0.0002    0.0000    0.0003   -0.0002    0.0001    0.0004    0.0066
    76 C19    4s        -0.0000    0.0001   -0.0000    0.0000   -0.0000   -0.0000   -0.0001    0.0001   -0.0012    0.0029
    77 C19    2px        0.0001    0.0008    0.0001   -0.0002    0.0001    0.0002   -0.0000   -0.0001    0.0002   -0.0009
    78 C19    3px        0.0001    0.0005    0.0001   -0.0002    0.0001    0.0002    0.0000   -0.0004    0.0001   -0.0014
    79 C19    4px       -0.0000   -0.0002    0.0000   -0.0000   -0.0000   -0.0000    0.0000   -0.0001   -0.0002    0.0002
    80 C19    2py       -0.0000   -0.0001   -0.0000    0.0004    0.0000    0.0002   -0.0001    0.0005    0.0004    0.0060
    81 C19    3py       -0.0001   -0.0002    0.0000    0.0003    0.0000    0.0001   -0.0001    0.0001   -0.0000    0.0046
    82 C19    4py       -0.0000   -0.0001    0.0000   -0.0001    0.0000   -0.0001   -0.0000   -0.0000   -0.0003   -0.0001
    83 C19    2pz       -0.0001    0.0001    0.0001   -0.0001   -0.0000   -0.0000    0.0000   -0.0002    0.0002    0.0016
    84 C19    3pz       -0.0001    0.0001    0.0002   -0.0001    0.0000   -0.0001    0.0000   -0.0003    0.0001    0.0009
    85 C19    4pz        0.0000   -0.0001    0.0000   -0.0000    0.0000   -0.0000    0.0000   -0.0000   -0.0001   -0.0003
    86 C19    3d2-       0.0000    0.0001    0.0000   -0.0000    0.0000    0.0001   -0.0000   -0.0000    0.0001    0.0003
    87 C19    3d1-       0.0000   -0.0000    0.0000    0.0000    0.0000    0.0000   -0.0000   -0.0000    0.0000    0.0000
    88 C19    3d0        0.0000   -0.0001   -0.0000   -0.0001   -0.0000   -0.0000    0.0000    0.0001   -0.0001    0.0001
    89 C19    3d1+       0.0000    0.0000    0.0000   -0.0000    0.0000    0.0000    0.0000    0.0000    0.0000   -0.0002
    90 C19    3d2+      -0.0000    0.0001    0.0000   -0.0000   -0.0000   -0.0000    0.0000   -0.0001   -0.0001   -0.0001
    91 N2     1s        -0.0000   -0.0000   -0.0001    0.9998    0.0000    0.0001    0.0000   -0.0003   -0.0001   -0.0013
    92 N2     2s        -0.0002   -0.0001    0.0001   -0.0003    0.0002    0.0016    0.0002   -0.0007   -0.0004    0.0256
    93 N2     3s        -0.0000   -0.0000    0.0001   -0.0016    0.0002    0.0008    0.0001   -0.0006   -0.0003   -0.0046
    94 N2     4s         0.0000   -0.0000    0.0000    0.0004    0.0000    0.0003    0.0000   -0.0000   -0.0001   -0.0021
    95 N2     2px       -0.0005   -0.0000    0.0001    0.0003    0.0002    0.0005   -0.0000   -0.0002    0.0004    0.0104
    96 N2     3px       -0.0006   -0.0001    0.0003    0.0002    0.0002    0.0001   -0.0001   -0.0001    0.0003    0.0100
    97 N2     4px       -0.0000   -0.0000    0.0001   -0.0000   -0.0000   -0.0001   -0.0000   -0.0003   -0.0001   -0.0004
    98 N2     2py        0.0002   -0.0016    0.0004   -0.0006    0.0005    0.0007   -0.0000    0.0008    0.0000   -0.0024
    99 N2     3py        0.0003   -0.0019    0.0005    0.0002    0.0005    0.0007   -0.0001    0.0010   -0.0000   -0.0146
   100 N2     4py       -0.0000    0.0000    0.0000    0.0007   -0.0000    0.0002   -0.0000    0.0001   -0.0001   -0.0016
   101 N2     2pz        0.0002   -0.0003   -0.0001   -0.0001    0.0001    0.0001    0.0002    0.0001   -0.0000   -0.0000
   102 N2     3pz        0.0003   -0.0004   -0.0002    0.0003    0.0001    0.0001    0.0004    0.0004   -0.0001   -0.0045
   103 N2     4pz        0.0000   -0.0000   -0.0000   -0.0001    0.0000    0.0000    0.0001    0.0001   -0.0000   -0.0009
   104 N2     3d2-       0.0000    0.0001    0.0000   -0.0002    0.0001   -0.0000    0.0000   -0.0001    0.0000    0.0002
   105 N2     3d1-      -0.0000    0.0000   -0.0000    0.0000    0.0000    0.0000    0.0000   -0.0001   -0.0000    0.0006
   106 N2     3d0        0.0000   -0.0000   -0.0000    0.0001   -0.0000    0.0001   -0.0000    0.0001    0.0001   -0.0007
   107 N2     3d1+      -0.0000    0.0000   -0.0000   -0.0000    0.0000    0.0000    0.0000   -0.0000   -0.0000    0.0008
   108 N2     3d2+      -0.0000   -0.0000    0.0000   -0.0000   -0.0000   -0.0000   -0.0000    0.0000   -0.0000    0.0001
   109 N5     1s         0.0002   -0.0000    0.9999    0.0000   -0.0003   -0.0000    0.0001    0.0000   -0.0000   -0.0181
   110 N5     2s         0.0011   -0.0002    0.0003   -0.0002   -0.0003   -0.0000    0.0018    0.0000   -0.0003    0.1126
   111 N5     3s         0.0007   -0.0001   -0.0012   -0.0001   -0.0004    0.0001    0.0011   -0.0000   -0.0002   -0.0471
   112 N5     4s         0.0002   -0.0000    0.0005    0.0000    0.0000    0.0000    0.0004   -0.0000   -0.0000   -0.0109
   113 N5     2px       -0.0003    0.0002   -0.0004    0.0002    0.0003    0.0000   -0.0001    0.0003   -0.0001    0.0149
   114 N5     3px       -0.0003    0.0003   -0.0002    0.0002   -0.0001    0.0000   -0.0001    0.0005   -0.0002    0.0063
   115 N5     4px        0.0000    0.0001   -0.0001    0.0000   -0.0001   -0.0000    0.0000    0.0001   -0.0001    0.0000
   116 N5     2py       -0.0013    0.0002   -0.0011    0.0004    0.0001   -0.0001    0.0002   -0.0000   -0.0000    0.0453
   117 N5     3py       -0.0015    0.0002   -0.0008    0.0005   -0.0001   -0.0000    0.0005    0.0002   -0.0001    0.0003
   118 N5     4py       -0.0000   -0.0000    0.0004    0.0001    0.0000    0.0000    0.0003    0.0001   -0.0001   -0.0017
   119 N5     2pz       -0.0007    0.0002   -0.0006    0.0003   -0.0000   -0.0003    0.0012    0.0002   -0.0003    0.0005
   120 N5     3pz       -0.0008    0.0002   -0.0007    0.0004   -0.0002   -0.0002    0.0011    0.0004   -0.0005    0.0259
   121 N5     4pz        0.0001    0.0000   -0.0001    0.0001   -0.0004    0.0001    0.0002    0.0001   -0.0001   -0.0072
   122 N5     3d2-       0.0000   -0.0000    0.0001    0.0000   -0.0000    0.0000   -0.0000    0.0000   -0.0000    0.0009
   123 N5     3d1-       0.0001    0.0000   -0.0000   -0.0000   -0.0001    0.0000    0.0000    0.0000   -0.0000   -0.0053
   124 N5     3d0        0.0001    0.0000   -0.0001   -0.0000   -0.0001    0.0000   -0.0001   -0.0000    0.0000   -0.0004
   125 N5     3d1+       0.0000    0.0000    0.0000   -0.0000   -0.0000   -0.0000    0.0000    0.0000   -0.0000   -0.0017
   126 N5     3d2+      -0.0000    0.0000   -0.0001    0.0000    0.0001   -0.0000    0.0000   -0.0000    0.0000   -0.0030
   127 O7     1s        -0.0000    0.9997    0.0000    0.0000    0.0000   -0.0000    0.0000   -0.0002   -0.0001   -0.0012
   128 O7     2s        -0.0000   -0.0013    0.0000    0.0000    0.0001   -0.0001    0.0000    0.0006   -0.0004    0.0150
   129 O7     3s         0.0000   -0.0013   -0.0000   -0.0000    0.0001    0.0000    0.0000    0.0000   -0.0003   -0.0029
   130 O7     4s         0.0000    0.0001   -0.0000   -0.0001    0.0001    0.0000    0.0000   -0.0000   -0.0001   -0.0007
   131 O7     2px       -0.0000    0.0002   -0.0001   -0.0004   -0.0000   -0.0000   -0.0000    0.0003   -0.0001    0.0053
   132 O7     3px       -0.0000   -0.0002   -0.0001   -0.0005   -0.0001   -0.0000   -0.0000   -0.0003   -0.0001    0.0036
   133 O7     4px       -0.0000    0.0008   -0.0000   -0.0001   -0.0000   -0.0000   -0.0000   -0.0001    0.0000    0.0018
   134 O7     2py        0.0000   -0.0003    0.0001   -0.0002   -0.0001   -0.0000    0.0000   -0.0008    0.0002   -0.0030
   135 O7     3py       -0.0000    0.0004    0.0001   -0.0002   -0.0001   -0.0001    0.0001   -0.0005    0.0001    0.0020
   136 O7     4py       -0.0000   -0.0011    0.0000    0.0000   -0.0000   -0.0000    0.0000   -0.0003   -0.0000    0.0007
   137 O7     2pz        0.0000   -0.0000   -0.0000   -0.0000   -0.0001   -0.0000    0.0000   -0.0003    0.0000    0.0015
   138 O7     3pz        0.0000    0.0001   -0.0001   -0.0000   -0.0001   -0.0000    0.0001   -0.0002    0.0001    0.0018
   139 O7     4pz       -0.0000   -0.0001   -0.0000    0.0000   -0.0001   -0.0000    0.0000   -0.0001    0.0000    0.0007
   140 O7     3d2-       0.0000    0.0001    0.0000    0.0000   -0.0000    0.0000    0.0000   -0.0002    0.0000   -0.0006
   141 O7     3d1-      -0.0000    0.0000   -0.0000    0.0000   -0.0000   -0.0000   -0.0000    0.0000   -0.0000    0.0001
   142 O7     3d0        0.0000   -0.0000    0.0000   -0.0000    0.0000   -0.0000    0.0000   -0.0001    0.0000   -0.0006
   143 O7     3d1+       0.0000    0.0000   -0.0000    0.0000   -0.0000    0.0000   -0.0000   -0.0000   -0.0000    0.0001
   144 O7     3d2+      -0.0000    0.0000   -0.0000   -0.0001    0.0000    0.0000    0.0000   -0.0001    0.0000   -0.0002
   145 O8     1s         0.9997    0.0000    0.0000    0.0000   -0.0003    0.0001   -0.0000    0.0000   -0.0000   -0.0242
   146 O8     2s        -0.0015    0.0001    0.0002    0.0000    0.0003    0.0003   -0.0003    0.0002   -0.0000    0.6896
   147 O8     3s        -0.0014    0.0001    0.0001    0.0000   -0.0001    0.0002   -0.0002    0.0001   -0.0000   -0.0346
   148 O8     4s         0.0001    0.0000    0.0000   -0.0000    0.0000    0.0001   -0.0000    0.0000   -0.0000   -0.0138
   149 O8     2px       -0.0001   -0.0000   -0.0000   -0.0000    0.0002   -0.0000    0.0000    0.0000   -0.0000   -0.0195
   150 O8     3px        0.0001   -0.0000    0.0001    0.0000    0.0000    0.0000   -0.0000    0.0001   -0.0001    0.0070
   151 O8     4px       -0.0003    0.0000    0.0000    0.0000   -0.0000    0.0000   -0.0000    0.0000   -0.0000   -0.0008
   152 O8     2py       -0.0003   -0.0001    0.0000   -0.0000   -0.0007   -0.0002    0.0001   -0.0001    0.0000   -0.1480
   153 O8     3py        0.0005   -0.0001    0.0001   -0.0001   -0.0002   -0.0002    0.0000   -0.0001    0.0000    0.0447
   154 O8     4py       -0.0014   -0.0000    0.0001   -0.0000   -0.0003    0.0000   -0.0000    0.0000    0.0000    0.0008
   155 O8     2pz        0.0000    0.0000   -0.0003   -0.0000    0.0000    0.0001   -0.0001   -0.0000    0.0000    0.0007
   156 O8     3pz        0.0000    0.0000   -0.0003    0.0000   -0.0001    0.0001   -0.0000    0.0000    0.0000   -0.0009
   157 O8     4pz       -0.0000    0.0000    0.0000    0.0000   -0.0001    0.0000    0.0000    0.0000   -0.0000   -0.0018
   158 O8     3d2-      -0.0000    0.0000    0.0000    0.0000    0.0000    0.0000   -0.0000    0.0000    0.0000    0.0063
   159 O8     3d1-       0.0000    0.0000    0.0001    0.0000   -0.0000    0.0000    0.0000    0.0000    0.0000    0.0004
   160 O8     3d0        0.0001   -0.0000    0.0000   -0.0000   -0.0001    0.0000    0.0000   -0.0000   -0.0000   -0.0113
   161 O8     3d1+      -0.0000    0.0000    0.0000   -0.0000    0.0000   -0.0000    0.0000    0.0000   -0.0000    0.0000
   162 O8     3d2+       0.0000   -0.0000   -0.0000    0.0000   -0.0001   -0.0000    0.0000   -0.0000    0.0000   -0.0180
   163 H9     1s        -0.0001    0.0003    0.0001    0.0000   -0.0001   -0.0002   -0.0001   -0.0001   -0.0002    0.0052
   164 H9     2s        -0.0000    0.0002    0.0001   -0.0000   -0.0000   -0.0001   -0.0001    0.0000    0.0003    0.0036
   165 H9     2px       -0.0000   -0.0000   -0.0000    0.0000   -0.0000   -0.0000   -0.0000    0.0000    0.0000    0.0005
   166 H9     2py        0.0000   -0.0000   -0.0000   -0.0000   -0.0000   -0.0000   -0.0000    0.0001   -0.0000    0.0000
   167 H9     2pz       -0.0000    0.0000   -0.0000    0.0000   -0.0000   -0.0000   -0.0000    0.0000    0.0001    0.0006
   168 H10    1s         0.0001    0.0001   -0.0001    0.0002    0.0000   -0.0001    0.0000    0.0004   -0.0004    0.0018
   169 H10    2s         0.0001    0.0001   -0.0000    0.0001    0.0000   -0.0001    0.0000    0.0002    0.0002    0.0014
   170 H10    2px        0.0000   -0.0000   -0.0000    0.0001    0.0000   -0.0000    0.0000    0.0001    0.0000    0.0003
   171 H10    2py       -0.0000   -0.0001    0.0000   -0.0000    0.0000   -0.0000    0.0000    0.0000   -0.0000    0.0000
   172 H10    2pz       -0.0000   -0.0000   -0.0000    0.0000   -0.0000    0.0000    0.0000   -0.0001   -0.0001   -0.0002
   173 H11    1s        -0.0000   -0.0004   -0.0000    0.0003   -0.0001    0.0000   -0.0001    0.0004   -0.0002    0.0066
   174 H11    2s        -0.0000   -0.0002   -0.0000    0.0003   -0.0001    0.0000   -0.0001    0.0002    0.0003    0.0042
   175 H11    2px        0.0000   -0.0000    0.0000   -0.0000    0.0000    0.0000    0.0000   -0.0000   -0.0001   -0.0006
   176 H11    2py       -0.0000   -0.0000    0.0000   -0.0000   -0.0000    0.0000   -0.0000    0.0001    0.0001    0.0006
   177 H11    2pz        0.0000    0.0000    0.0000   -0.0000    0.0000   -0.0000   -0.0000   -0.0000   -0.0000   -0.0003
   178 H12    1s         0.0003   -0.0010    0.0005   -0.0004    0.0004   -0.0002   -0.0002    0.0007    0.0002   -0.0038
   179 H12    2s         0.0002   -0.0006    0.0003   -0.0003    0.0002   -0.0001   -0.0002    0.0004    0.0001   -0.0054
   180 H12    2px       -0.0000    0.0000   -0.0000    0.0002   -0.0000    0.0000    0.0000   -0.0002   -0.0000    0.0000
   181 H12    2py        0.0000   -0.0000    0.0000   -0.0004    0.0000   -0.0000   -0.0000    0.0001    0.0000    0.0007
   182 H12    2pz       -0.0000   -0.0000    0.0000   -0.0002    0.0000   -0.0000   -0.0000   -0.0000    0.0000    0.0003
   183 H13    1s        -0.0005    0.0001    0.0006   -0.0003    0.0003    0.0006   -0.0001   -0.0001    0.0003    0.0109
   184 H13    2s        -0.0003    0.0000    0.0003   -0.0001    0.0003   -0.0000   -0.0001   -0.0001    0.0002    0.0008
   185 H13    2px        0.0001   -0.0000   -0.0001   -0.0000   -0.0000    0.0000    0.0000   -0.0000   -0.0000   -0.0007
   186 H13    2py       -0.0000    0.0000   -0.0000    0.0000    0.0000   -0.0000    0.0000   -0.0000   -0.0000    0.0003
   187 H13    2pz       -0.0000    0.0000   -0.0000    0.0000    0.0001    0.0000   -0.0000   -0.0000    0.0000    0.0017
   188 H14    1s         0.0005   -0.0005   -0.0003   -0.0008   -0.0003    0.0011   -0.0002   -0.0007   -0.0003    0.0146
   189 H14    2s         0.0004   -0.0003   -0.0002   -0.0004   -0.0002    0.0002   -0.0001   -0.0004   -0.0002    0.0003
   190 H14    2px        0.0000    0.0001   -0.0000    0.0000    0.0000    0.0000   -0.0000    0.0000    0.0000    0.0002
   191 H14    2py       -0.0000    0.0001    0.0000    0.0001   -0.0000   -0.0001    0.0000    0.0001    0.0000    0.0000
   192 H14    2pz       -0.0000   -0.0001    0.0000    0.0000    0.0000    0.0001   -0.0000   -0.0000   -0.0000    0.0014
   193 H15    1s        -0.0015    0.0007   -0.0011    0.0005   -0.0001   -0.0003   -0.0004   -0.0004    0.0002    0.0435
   194 H15    2s        -0.0008    0.0004   -0.0008    0.0004   -0.0002   -0.0001   -0.0002   -0.0003    0.0001    0.0014
   195 H15    2px       -0.0000    0.0000   -0.0002    0.0000    0.0000    0.0000   -0.0000    0.0000   -0.0000    0.0019
   196 H15    2py       -0.0001    0.0000   -0.0005    0.0001    0.0001   -0.0000   -0.0000   -0.0000    0.0000    0.0062
   197 H15    2pz       -0.0000   -0.0000   -0.0001   -0.0001   -0.0001   -0.0000    0.0000    0.0000   -0.0000    0.0003
   198 H16    1s        -0.0002    0.0000   -0.0002    0.0000   -0.0001    0.0000    0.0010    0.0001   -0.0001    0.0114
   199 H16    2s        -0.0000    0.0000   -0.0000    0.0000   -0.0000    0.0000    0.0001    0.0000   -0.0000   -0.0031
   200 H16    2px       -0.0000    0.0000   -0.0000   -0.0000    0.0000   -0.0000   -0.0000    0.0000   -0.0000    0.0002
   201 H16    2py        0.0000   -0.0000   -0.0000   -0.0000    0.0000   -0.0000   -0.0001   -0.0000    0.0000   -0.0006
   202 H16    2pz        0.0000    0.0000   -0.0000    0.0000   -0.0000   -0.0000   -0.0000    0.0000   -0.0000   -0.0009
   203 H17    1s         0.0005   -0.0002   -0.0004   -0.0000   -0.0004    0.0000    0.0006   -0.0001    0.0000    0.0057
   204 H17    2s         0.0003   -0.0001   -0.0002   -0.0000   -0.0003    0.0000   -0.0001   -0.0001    0.0000   -0.0014
   205 H17    2px        0.0000   -0.0000   -0.0000   -0.0000   -0.0001    0.0000    0.0000   -0.0000    0.0000    0.0006
   206 H17    2py       -0.0000   -0.0000    0.0000    0.0000   -0.0000    0.0000   -0.0000    0.0000    0.0000   -0.0004
   207 H17    2pz       -0.0000    0.0000    0.0001   -0.0000    0.0000    0.0000   -0.0001    0.0000    0.0000   -0.0007
   208 H18    1s         0.0002   -0.0000   -0.0005   -0.0000   -0.0004    0.0001    0.0006   -0.0002    0.0000    0.0105
   209 H18    2s         0.0001   -0.0000   -0.0002   -0.0000   -0.0003    0.0001   -0.0001   -0.0001    0.0000    0.0025
   210 H18    2px       -0.0000    0.0000    0.0000    0.0000    0.0001   -0.0000    0.0000    0.0000    0.0000   -0.0007
   211 H18    2py        0.0000    0.0000   -0.0000    0.0000   -0.0000    0.0000   -0.0000    0.0000   -0.0000    0.0006
   212 H18    2pz       -0.0000   -0.0000    0.0000   -0.0000    0.0000   -0.0000   -0.0000    0.0000   -0.0000   -0.0010
 
 
      Orbital                11        12        13        14        15        16        17        18        19        20
      Energy            -1.3562   -1.2616   -1.2170   -1.0147   -0.9690   -0.9267   -0.8158   -0.7790   -0.7156   -0.6935
      Occ. No.           2.0000    2.0000    2.0000    2.0000    2.0000    2.0000    2.0000    2.0000    2.0000    2.0000
 
     1 C1     1s        -0.0398    0.0028    0.0040   -0.0137    0.0083    0.0031    0.0065   -0.0137   -0.0024   -0.0027
     2 C1     2s         0.3632    0.0096   -0.0822    0.1920   -0.1715    0.0125   -0.1097    0.3649    0.0181    0.0620
     3 C1     3s        -0.0056    0.0133   -0.0016   -0.0179    0.0055    0.0096    0.0060    0.0021   -0.0107   -0.0032
     4 C1     4s         0.0020    0.0040    0.0004   -0.0060    0.0019    0.0033    0.0025   -0.0022   -0.0023   -0.0018
     5 C1     2px       -0.0401    0.0428   -0.1170    0.0280    0.0542   -0.1098   -0.0700    0.1571    0.0035   -0.0088
     6 C1     3px        0.0038    0.0028    0.0621   -0.0459    0.0183    0.0165    0.0149   -0.0340   -0.0151    0.0120
     7 C1     4px       -0.0141    0.0087   -0.0202   -0.0037    0.0131   -0.0157   -0.0057    0.0112   -0.0013    0.0015
     8 C1     2py        0.0980    0.0003    0.0511   -0.1128    0.1139   -0.0227    0.0060    0.0043    0.0567   -0.0376
     9 C1     3py       -0.0661    0.0358   -0.0470   -0.0059   -0.0250    0.0632    0.0003   -0.0107   -0.0222    0.0161
    10 C1     4py        0.0224    0.0009    0.0087   -0.0191    0.0192    0.0010   -0.0004    0.0014    0.0025    0.0002
    11 C1     2pz        0.0078    0.0058    0.0090   -0.0177    0.0271   -0.0086   -0.0034    0.0084   -0.0060   -0.0150
    12 C1     3pz       -0.0115    0.0116   -0.0012    0.0035    0.0081    0.0065   -0.0013   -0.0049   -0.0040    0.0011
    13 C1     4pz        0.0021    0.0025    0.0022   -0.0023    0.0055   -0.0018    0.0002    0.0003   -0.0033   -0.0027
    14 C1     3d2-      -0.0293    0.0046   -0.0120    0.0029   -0.0091    0.0111    0.0006    0.0104    0.0119   -0.0055
    15 C1     3d1-       0.0079   -0.0007    0.0026    0.0011   -0.0027    0.0022   -0.0005    0.0016    0.0005    0.0010
    16 C1     3d0       -0.0268    0.0003    0.0034   -0.0086    0.0051    0.0025    0.0050   -0.0126   -0.0009   -0.0018
    17 C1     3d1+      -0.0033    0.0014   -0.0019    0.0011   -0.0023    0.0013   -0.0005    0.0051   -0.0010   -0.0038
    18 C1     3d2+      -0.0121    0.0073   -0.0279    0.0082    0.0050   -0.0137   -0.0069    0.0140    0.0028   -0.0028
    19 C3     1s        -0.0112   -0.0104    0.0319    0.0361   -0.0079   -0.0265   -0.0066   -0.0016   -0.0061   -0.0060
    20 C3     2s         0.0318    0.0706   -0.1781   -0.3167    0.0681    0.3716    0.1029    0.0622    0.0965    0.0377
    21 C3     3s        -0.0226   -0.0187    0.0610    0.0634   -0.0144   -0.0285   -0.0070   -0.0058   -0.0082   -0.0211
    22 C3     4s        -0.0037   -0.0030    0.0147    0.0169   -0.0044   -0.0089   -0.0027   -0.0028   -0.0023   -0.0055
    23 C3     2px       -0.0317   -0.0026    0.0461   -0.0409   -0.0024    0.0522    0.0146   -0.0645   -0.0868    0.0975
    24 C3     3px       -0.0098    0.0206   -0.0205   -0.0352    0.0297    0.0140    0.0009    0.0075    0.0183   -0.0123
    25 C3     4px       -0.0036    0.0052   -0.0014   -0.0124    0.0070    0.0115    0.0024   -0.0034   -0.0028    0.0030
    26 C3     2py       -0.0193   -0.0295    0.1002   -0.0117   -0.0121    0.0579   -0.0640    0.1877   -0.1372    0.1214
    27 C3     3py        0.0061    0.0089    0.0074    0.0218    0.0478   -0.0086   -0.0056    0.0065    0.0237   -0.0281
    28 C3     4py       -0.0032    0.0066    0.0085   -0.0060    0.0042    0.0109   -0.0060    0.0128    0.0020    0.0009
    29 C3     2pz       -0.0079    0.0249    0.0173   -0.0532   -0.0369    0.0013   -0.0810    0.0330   -0.2102   -0.1761
    30 C3     3pz       -0.0128   -0.0046    0.0254    0.0210    0.0164   -0.0180    0.0058   -0.0078    0.0285    0.0122
    31 C3     4pz       -0.0033   -0.0013    0.0107    0.0084   -0.0044   -0.0160   -0.0088   -0.0017   -0.0061   -0.0058
    32 C3     3d2-       0.0056    0.0051   -0.0184    0.0014    0.0055   -0.0062    0.0003   -0.0010    0.0113   -0.0170
    33 C3     3d1-       0.0003   -0.0003   -0.0030   -0.0067   -0.0029    0.0039   -0.0056   -0.0006   -0.0172   -0.0028
    34 C3     3d0       -0.0022    0.0025    0.0091   -0.0077   -0.0101    0.0036   -0.0109    0.0116   -0.0186   -0.0055
    35 C3     3d1+       0.0005   -0.0012   -0.0011    0.0011    0.0007   -0.0000   -0.0009    0.0023    0.0010    0.0047
    36 C3     3d2+      -0.0013    0.0001    0.0098    0.0007   -0.0043    0.0008   -0.0043    0.0101    0.0045    0.0034
    37 C4     1s         0.0031   -0.0068   -0.0047    0.0143    0.0091   -0.0004    0.0172    0.0003    0.0059   -0.0006
    38 C4     2s         0.0167    0.1459   -0.0250   -0.2409   -0.1637    0.0692   -0.3614   -0.0073   -0.2418    0.0047
    39 C4     3s         0.0138    0.0079   -0.0175    0.0205    0.0038    0.0029    0.0207   -0.0057    0.0066   -0.0095
    40 C4     4s         0.0038    0.0022   -0.0042    0.0075    0.0014    0.0003    0.0065   -0.0026    0.0037   -0.0004
    41 C4     2px        0.0023   -0.0245   -0.0005    0.0066   -0.0040    0.0123   -0.0147    0.0040   -0.0302    0.0450
    42 C4     3px        0.0100    0.0067    0.0003    0.0003   -0.0153    0.0018   -0.0056    0.0074    0.0088   -0.0143
    43 C4     4px        0.0020   -0.0037   -0.0018    0.0005   -0.0013    0.0025   -0.0000    0.0006   -0.0018    0.0038
    44 C4     2py       -0.0183   -0.1192   -0.0028    0.1056    0.0803    0.0100    0.0394   -0.0017   -0.0473    0.2466
    45 C4     3py        0.0003    0.0659    0.0035   -0.0417   -0.0038    0.0268   -0.0056   -0.0033    0.0190   -0.0758
    46 C4     4py       -0.0056   -0.0215   -0.0011    0.0087    0.0106    0.0033    0.0011   -0.0004   -0.0081    0.0168
    47 C4     2pz       -0.0050    0.1127    0.0745    0.0847    0.0037   -0.0982   -0.1247   -0.1149    0.1950   -0.0470
    48 C4     3pz        0.0037    0.0327    0.0064    0.0101    0.0896    0.1036    0.0198    0.0717   -0.0752   -0.0222
    49 C4     4pz        0.0006    0.0280    0.0103    0.0119    0.0098    0.0027   -0.0105   -0.0005    0.0051   -0.0104
    50 C4     3d2-      -0.0006   -0.0024    0.0002   -0.0000   -0.0020   -0.0022   -0.0016    0.0016   -0.0045    0.0020
    51 C4     3d1-       0.0003   -0.0202   -0.0103   -0.0012    0.0133    0.0184    0.0064    0.0073   -0.0125    0.0073
    52 C4     3d0        0.0017    0.0216    0.0030   -0.0129   -0.0037    0.0094   -0.0189   -0.0007    0.0163   -0.0017
    53 C4     3d1+       0.0007   -0.0036   -0.0031    0.0012    0.0026    0.0007   -0.0009    0.0017    0.0029   -0.0007
    54 C4     3d2+       0.0016    0.0046    0.0013    0.0045    0.0066    0.0042    0.0047    0.0008    0.0135   -0.0012
    55 C6     1s         0.0028   -0.0298   -0.0162   -0.0323   -0.0382   -0.0241    0.0068   -0.0010    0.0081    0.0058
    56 C6     2s         0.0234    0.1628    0.0373    0.2343    0.3136    0.2750   -0.0979    0.0132   -0.0586   -0.0805
    57 C6     3s         0.0162   -0.0428   -0.0408   -0.0537   -0.0660   -0.0287    0.0150   -0.0030    0.0238    0.0177
    58 C6     4s         0.0045   -0.0060   -0.0089   -0.0108   -0.0147   -0.0057    0.0049   -0.0010    0.0061    0.0063
    59 C6     2px        0.0055    0.0016    0.0000    0.0091    0.0029    0.0090   -0.0300   -0.0153    0.0422    0.0165
    60 C6     3px        0.0052   -0.0006   -0.0019    0.0057    0.0019    0.0061   -0.0039    0.0021   -0.0006   -0.0028
    61 C6     4px       -0.0005   -0.0001   -0.0004   -0.0009    0.0007   -0.0006   -0.0013   -0.0016    0.0011    0.0012
    62 C6     2py       -0.0032   -0.0351   -0.0063   -0.0177   -0.0098    0.0062   -0.1394   -0.0526    0.0667   -0.1314
    63 C6     3py       -0.0017    0.0031    0.0064   -0.0006   -0.0057   -0.0085    0.0053    0.0028   -0.0031    0.0196
    64 C6     4py        0.0003   -0.0025   -0.0011    0.0037    0.0041    0.0038   -0.0108   -0.0041    0.0032   -0.0039
    65 C6     2pz       -0.0075   -0.1001   -0.0279   -0.0249    0.0138    0.0349   -0.0415    0.0322   -0.2140   -0.2645
    66 C6     3pz       -0.0064    0.0154    0.0166    0.0162    0.0208   -0.0024   -0.0021   -0.0028    0.0312    0.0406
    67 C6     4pz       -0.0008   -0.0000    0.0021    0.0115    0.0181    0.0133   -0.0059    0.0023   -0.0100   -0.0140
    68 C6     3d2-      -0.0003    0.0000    0.0003    0.0000    0.0004   -0.0001   -0.0023   -0.0014    0.0034   -0.0017
    69 C6     3d1-       0.0003    0.0141    0.0045    0.0050    0.0017   -0.0029    0.0169    0.0034    0.0068    0.0221
    70 C6     3d0        0.0002    0.0184    0.0068    0.0054    0.0007   -0.0043    0.0020   -0.0042    0.0211    0.0268
    71 C6     3d1+       0.0000   -0.0005   -0.0002    0.0002   -0.0003    0.0000    0.0039    0.0013   -0.0037   -0.0004
    72 C6     3d2+      -0.0001   -0.0020   -0.0012   -0.0029   -0.0018   -0.0005   -0.0008    0.0012   -0.0075   -0.0048
    73 C19    1s        -0.0149   -0.0008    0.0065   -0.0335    0.0521   -0.0370   -0.0096    0.0113   -0.0026    0.0042
    74 C19    2s        -0.0077   -0.0022   -0.0044    0.1598   -0.3089    0.2782    0.0472   -0.0882    0.0388   -0.0314
    75 C19    3s        -0.0407    0.0006    0.0202   -0.0707    0.1000   -0.0597   -0.0238    0.0255   -0.0041    0.0092
    76 C19    4s        -0.0047    0.0018    0.0034   -0.0152    0.0221   -0.0135   -0.0057    0.0074   -0.0019    0.0024
    77 C19    2px       -0.0075    0.0036   -0.0230    0.0426   -0.0301   -0.0071   -0.0280    0.0561   -0.0424    0.0452
    78 C19    3px       -0.0078   -0.0004    0.0002    0.0026    0.0049   -0.0036    0.0029   -0.0071    0.0037   -0.0057
    79 C19    4px        0.0083    0.0001    0.0000   -0.0028    0.0111   -0.0128   -0.0030    0.0040   -0.0046    0.0028
    80 C19    2py        0.0191    0.0061    0.0027    0.0261   -0.0231   -0.0011   -0.0251    0.0650   -0.0285    0.0554
    81 C19    3py       -0.0102    0.0068    0.0088   -0.0180    0.0276   -0.0156    0.0013   -0.0098   -0.0038   -0.0057
    82 C19    4py        0.0039   -0.0002    0.0004   -0.0059    0.0140   -0.0136   -0.0045    0.0117    0.0002    0.0020
    83 C19    2pz        0.0079    0.0037   -0.0060    0.0091   -0.0145    0.0096    0.0006    0.0186   -0.0155    0.0045
    84 C19    3pz        0.0037    0.0042   -0.0035    0.0002   -0.0056    0.0067    0.0068    0.0055   -0.0007   -0.0047
    85 C19    4pz        0.0011    0.0007    0.0007   -0.0020    0.0025   -0.0033    0.0008    0.0032   -0.0009   -0.0001
    86 C19    3d2-       0.0017    0.0013   -0.0047    0.0082   -0.0077    0.0012   -0.0031    0.0086   -0.0020    0.0045
    87 C19    3d1-       0.0012    0.0000    0.0004    0.0016   -0.0023    0.0009   -0.0002    0.0014   -0.0013    0.0011
    88 C19    3d0        0.0012   -0.0000    0.0007   -0.0052    0.0064   -0.0028    0.0013   -0.0035    0.0034   -0.0033
    89 C19    3d1+      -0.0010    0.0000   -0.0009    0.0016   -0.0013   -0.0004   -0.0011    0.0021   -0.0009    0.0014
    90 C19    3d2+      -0.0062    0.0013   -0.0037   -0.0026    0.0047   -0.0029    0.0003   -0.0018    0.0014   -0.0030
    91 N2     1s        -0.0191   -0.0101    0.0357   -0.0073   -0.0007    0.0049   -0.0012    0.0052    0.0016   -0.0019
    92 N2     2s         0.1674    0.1248   -0.5753    0.1175    0.1229   -0.2036   -0.0220   -0.0988    0.0003   -0.0542
    93 N2     3s        -0.0457   -0.0203    0.0570   -0.0111    0.0071   -0.0001   -0.0055    0.0092    0.0038   -0.0093
    94 N2     4s        -0.0120   -0.0067    0.0213   -0.0031   -0.0007    0.0023   -0.0015    0.0027    0.0001   -0.0012
    95 N2     2px       -0.0275    0.0032    0.0147   -0.1128    0.0767    0.0645    0.1304   -0.3807   -0.0238   -0.0285
    96 N2     3px        0.0223   -0.0059    0.0124    0.0354    0.0062   -0.0458   -0.0429    0.1008   -0.0113    0.0038
    97 N2     4px       -0.0050    0.0012   -0.0019   -0.0014    0.0071   -0.0063   -0.0021    0.0015   -0.0038    0.0014
    98 N2     2py        0.0317    0.0011    0.0090   -0.1010    0.0548    0.0729    0.0265    0.1763    0.3034   -0.1500
    99 N2     3py       -0.0021   -0.0219    0.0579    0.0437    0.0069   -0.0619   -0.0188   -0.0295   -0.0509    0.0242
   100 N2     4py       -0.0078   -0.0044    0.0150   -0.0009    0.0012   -0.0042   -0.0054    0.0081   -0.0001   -0.0003
   101 N2     2pz       -0.0067   -0.0012    0.0214   -0.0409   -0.0137    0.0018    0.0098    0.0558   -0.0378   -0.0908
   102 N2     3pz       -0.0051   -0.0110    0.0087   -0.0093   -0.0079   -0.0223    0.0078   -0.0113    0.0008    0.0236
   103 N2     4pz       -0.0038   -0.0026    0.0064   -0.0048   -0.0027   -0.0034    0.0009    0.0018    0.0026    0.0036
   104 N2     3d2-      -0.0028    0.0024   -0.0068   -0.0052   -0.0009    0.0100    0.0048    0.0014    0.0122   -0.0060
   105 N2     3d1-      -0.0003    0.0009   -0.0029    0.0002   -0.0003   -0.0022   -0.0010   -0.0049   -0.0081   -0.0019
   106 N2     3d0       -0.0036   -0.0026    0.0140   -0.0009   -0.0027    0.0024    0.0014   -0.0015   -0.0026    0.0001
   107 N2     3d1+      -0.0001    0.0004   -0.0006    0.0002   -0.0018    0.0005   -0.0015    0.0049   -0.0004   -0.0027
   108 N2     3d2+       0.0042    0.0008   -0.0036    0.0089   -0.0034   -0.0065   -0.0075    0.0192    0.0006    0.0018
   109 N5     1s        -0.0024   -0.0412   -0.0101   -0.0026    0.0029    0.0013   -0.0029   -0.0006    0.0042    0.0015
   110 N5     2s         0.0052    0.5614    0.1845   -0.0136   -0.1214   -0.1872    0.1613   -0.0047    0.1510    0.1175
   111 N5     3s        -0.0060   -0.0800   -0.0195   -0.0166   -0.0050   -0.0098   -0.0018   -0.0020    0.0204    0.0084
   112 N5     4s        -0.0009   -0.0256   -0.0078   -0.0050   -0.0010    0.0000   -0.0020   -0.0001    0.0018    0.0005
   113 N5     2px       -0.0072   -0.0037   -0.0024   -0.0185   -0.0049    0.0062   -0.0963   -0.0432    0.0529    0.0001
   114 N5     3px       -0.0125    0.0048    0.0018   -0.0102    0.0055   -0.0096    0.0299   -0.0012   -0.0161    0.0024
   115 N5     4px       -0.0031   -0.0020   -0.0000   -0.0038    0.0026   -0.0007   -0.0003   -0.0013   -0.0010    0.0006
   116 N5     2py       -0.0075    0.0052    0.0085    0.0121    0.0017    0.0226   -0.3807   -0.1758    0.2817    0.0762
   117 N5     3py       -0.0097   -0.0447   -0.0108   -0.0119   -0.0301   -0.0413    0.0800    0.0159   -0.0497    0.0098
   118 N5     4py       -0.0026   -0.0127   -0.0006   -0.0057   -0.0017   -0.0038   -0.0077   -0.0010    0.0003    0.0016
   119 N5     2pz       -0.0221   -0.0341    0.0358    0.1591    0.1790    0.0730    0.1545    0.0431    0.0660    0.3608
   120 N5     3pz       -0.0308   -0.0270    0.0290   -0.0652   -0.0705   -0.0810   -0.0409   -0.0154   -0.0321   -0.0552
   121 N5     4pz       -0.0055   -0.0035    0.0064   -0.0003    0.0003   -0.0081   -0.0027   -0.0012   -0.0019   -0.0068
   122 N5     3d2-      -0.0000    0.0039    0.0015   -0.0014   -0.0020   -0.0032    0.0057    0.0022   -0.0038   -0.0016
   123 N5     3d1-      -0.0003   -0.0040   -0.0002    0.0089    0.0118    0.0059    0.0181    0.0062   -0.0005    0.0132
   124 N5     3d0        0.0010    0.0156    0.0034    0.0011    0.0029    0.0054   -0.0080   -0.0020    0.0066    0.0021
   125 N5     3d1+      -0.0000   -0.0021   -0.0009    0.0000    0.0003   -0.0006    0.0026    0.0013   -0.0006   -0.0010
   126 N5     3d2+      -0.0000   -0.0090   -0.0036   -0.0001    0.0028    0.0058   -0.0034    0.0000   -0.0004    0.0007
   127 O7     1s        -0.0241    0.0019   -0.0051   -0.0017    0.0031   -0.0015    0.0022   -0.0101   -0.0037   -0.0013
   128 O7     2s         0.6627   -0.1133    0.3240   -0.1516    0.1428   -0.0383    0.0732   -0.3022   -0.0984   -0.0169
   129 O7     3s        -0.0301   -0.0011    0.0040   -0.0127    0.0158   -0.0072    0.0082   -0.0362   -0.0128   -0.0042
   130 O7     4s        -0.0124    0.0008   -0.0017   -0.0021    0.0029   -0.0019    0.0015   -0.0070   -0.0028   -0.0009
   131 O7     2px        0.0799   -0.0023   -0.0026   -0.0017    0.0166   -0.0250   -0.0392    0.1354    0.0527   -0.0063
   132 O7     3px       -0.0188    0.0060   -0.0102   -0.0075    0.0041    0.0078    0.0028   -0.0182   -0.0083    0.0008
   133 O7     4px       -0.0003    0.0016   -0.0020   -0.0018    0.0001    0.0032    0.0004   -0.0020   -0.0005   -0.0001
   134 O7     2py       -0.1177    0.0196   -0.0525   -0.0096    0.0204   -0.0157    0.0150   -0.1005   -0.0534   -0.0176
   135 O7     3py        0.0402   -0.0012    0.0001    0.0059   -0.0092    0.0030   -0.0045    0.0198    0.0053    0.0020
   136 O7     4py        0.0005    0.0005    0.0003   -0.0015    0.0001    0.0015   -0.0002    0.0019    0.0009   -0.0001
   137 O7     2pz       -0.0186    0.0034   -0.0081   -0.0085    0.0025   -0.0009   -0.0027   -0.0142   -0.0119   -0.0000
   138 O7     3pz        0.0054   -0.0004   -0.0009   -0.0019   -0.0042    0.0019   -0.0017    0.0016    0.0016    0.0016
   139 O7     4pz       -0.0000   -0.0001   -0.0002   -0.0009   -0.0008    0.0007   -0.0005   -0.0001    0.0006    0.0003
   140 O7     3d2-      -0.0161    0.0017   -0.0038    0.0006   -0.0022    0.0025    0.0024   -0.0090   -0.0036    0.0002
   141 O7     3d1-       0.0035   -0.0006    0.0018   -0.0001   -0.0003    0.0007    0.0001    0.0003    0.0010    0.0004
   142 O7     3d0       -0.0099    0.0013   -0.0045    0.0018   -0.0011   -0.0004    0.0005   -0.0029   -0.0018   -0.0000
   143 O7     3d1+      -0.0022    0.0005   -0.0004   -0.0002   -0.0002    0.0003    0.0002   -0.0012   -0.0009   -0.0003
   144 O7     3d2+      -0.0079    0.0018   -0.0057   -0.0001    0.0027   -0.0036   -0.0013    0.0014   -0.0001   -0.0013
   145 O8     1s         0.0006    0.0028    0.0006    0.0031    0.0024   -0.0026    0.0135    0.0001    0.0141   -0.0167
   146 O8     2s        -0.0529   -0.3073   -0.0175    0.1783    0.0875   -0.0941    0.3488    0.0077    0.2321   -0.2824
   147 O8     3s        -0.0015   -0.0084   -0.0003    0.0138    0.0084   -0.0106    0.0428    0.0002    0.0399   -0.0474
   148 O8     4s         0.0001    0.0003   -0.0004    0.0018    0.0010   -0.0021    0.0083   -0.0001    0.0080   -0.0101
   149 O8     2px        0.0019    0.0078   -0.0010   -0.0019    0.0012   -0.0019    0.0308    0.0087    0.0388   -0.0732
   150 O8     3px       -0.0008   -0.0017    0.0012    0.0018   -0.0002   -0.0025   -0.0041   -0.0026   -0.0036    0.0063
   151 O8     4px       -0.0005   -0.0009    0.0008    0.0016    0.0000   -0.0012   -0.0002   -0.0009   -0.0002    0.0011
   152 O8     2py        0.0117    0.0340   -0.0001    0.0306    0.0233   -0.0226    0.2243    0.0114    0.2568   -0.3694
[...]
AIVX     1  Mu1.0001  In1.027 Se1.046               0.10227473      0.00333388     -0.00706094     -0.00002354
AIVX     1  Mu1.0001  In1.028 Se1.046               0.12854421     -0.00009745      0.00029774     -0.00000003
AIVX     1  Mu1.0001  In1.029 Se1.046               0.11414098     -0.00054750      0.00107180     -0.00000059
AIVX     1  Mu1.0001  In1.022 Se1.047               0.24205448     -0.00099664      0.00182976     -0.00000182
AIVX     1  Mu1.0001  In1.023 Se1.047               0.28848721      0.00054513     -0.00099396     -0.00000054
AIVX     1  Mu1.0001  In1.024 Se1.047               0.27329244     -0.00055351      0.00084409     -0.00000047
AIVX     1  Mu1.0001  In1.025 Se1.047               0.18599257      0.00045683     -0.00095007     -0.00000043
AIVX     1  Mu1.0001  In1.026 Se1.047               0.25184798      0.00064843     -0.00103111     -0.00000067
AIVX     1  Mu1.0001  In1.027 Se1.047               0.11298070     -0.00084480      0.00165280     -0.00000140
AIVX     1  Mu1.0001  In1.028 Se1.047               0.13925018     -0.00090715      0.00224415     -0.00000204
AIVX     1  Mu1.0001  In1.029 Se1.047               0.12484695     -0.00030170      0.00072085     -0.00000022
AIVX     1  Mu1.0001  In1.022 Se1.048               0.25722133     -0.00145249      0.00338489     -0.00000492
AIVX     1  Mu1.0001  In1.024 Se1.048               0.28845929      0.00101463     -0.00063348     -0.00000064
AIVX     1  Mu1.0001  In1.025 Se1.048               0.20115942     -0.00113130      0.00233911     -0.00000265
AIVX     1  Mu1.0001  In1.026 Se1.048               0.26701483      0.00058625     -0.00082023     -0.00000048
AIVX     1  Mu1.0001  In1.027 Se1.048               0.12814755      0.00059413     -0.00206958     -0.00000123
AIVX     1  Mu1.0001  In1.028 Se1.048               0.15441703      0.00006983      0.00024822      0.00000002
AIVX     1  Mu1.0001  In1.029 Se1.048               0.14001380     -0.00054180      0.00081977     -0.00000044
AIVX     1  Mu1.0001  In1.022 Se1.049               0.26665925     -0.00027749      0.00048702     -0.00000014
AIVX     1  Mu1.0001  In1.024 Se1.049               0.29789721     -0.00063064      0.00115518     -0.00000073
AIVX     1  Mu1.0001  In1.025 Se1.049               0.21059734      0.00268301     -0.00476220     -0.00001278
AIVX     1  Mu1.0001  In1.026 Se1.049               0.27645275     -0.00057740      0.00099412     -0.00000057
AIVX     1  Mu1.0001  In1.027 Se1.049               0.13758546     -0.00132689      0.00249396     -0.00000331
AIVX     1  Mu1.0001  In1.028 Se1.049               0.16385495      0.00014564     -0.00054245     -0.00000008
AIVX     1  Mu1.0001  In1.029 Se1.049               0.14945172     -0.00050741      0.00108461     -0.00000055
AIVX     1  Mu1.0001  In1.022 Se1.050               0.27205716     -0.00050091      0.00137132     -0.00000069
AIVX     1  Mu1.0001  In1.025 Se1.050               0.21599525     -0.00309546      0.00539829     -0.00001671
AIVX     1  Mu1.0001  In1.026 Se1.050               0.28185066      0.00306744     -0.00465622     -0.00001428
AIVX     1  Mu1.0001  In1.027 Se1.050               0.14298337      0.00080210     -0.00208741     -0.00000167
AIVX     1  Mu1.0001  In1.028 Se1.050               0.16925286      0.00097281     -0.00207560     -0.00000202
AIVX     1  Mu1.0001  In1.029 Se1.050               0.15484963     -0.00139545      0.00245271     -0.00000342
AIVX     1  Mu1.0001  In1.022 Se1.051               0.28302932     -0.00175047      0.00326122     -0.00000571
AIVX     1  Mu1.0001  In1.025 Se1.051               0.22696741      0.00008805      0.00007598      0.00000001
AIVX     1  Mu1.0001  In1.026 Se1.051               0.29282282      0.00128893     -0.00214701     -0.00000277
AIVX     1  Mu1.0001  In1.027 Se1.051               0.15395554     -0.00023298      0.00007561     -0.00000002
AIVX     1  Mu1.0001  In1.028 Se1.051               0.18022502     -0.00110971      0.00292173     -0.00000324
AIVX     1  Mu1.0001  In1.029 Se1.051               0.16582179     -0.00016833      0.00027047     -0.00000005
AIVX     1  Mu1.0001  In1.025 Se1.052               0.25631730      0.00109116     -0.00176829     -0.00000193
AIVX     1  Mu1.0001  In1.027 Se1.052               0.18330543      0.00109280     -0.00160024     -0.00000175
AIVX     1  Mu1.0001  In1.028 Se1.052               0.20957491     -0.00063876      0.00092598     -0.00000059
AIVX     1  Mu1.0001  In1.029 Se1.052               0.19517168      0.00139144     -0.00254532     -0.00000354
AIVX     1  Mu1.0001  In1.025 Se1.053               0.27489966     -0.00144514      0.00211503     -0.00000306
AIVX     1  Mu1.0001  In1.027 Se1.053               0.20188779      0.00172872     -0.00258058     -0.00000446
AIVX     1  Mu1.0001  In1.028 Se1.053               0.22815727     -0.00001514      0.00010621     -0.00000000
AIVX     1  Mu1.0001  In1.029 Se1.053               0.21375404     -0.00158987      0.00290145     -0.00000461
AIVX     1  Mu1.0001  In1.025 Se1.054               0.28525332     -0.00159214      0.00230607     -0.00000367
AIVX     1  Mu1.0001  In1.027 Se1.054               0.21224144      0.00057996     -0.00103719     -0.00000060
AIVX     1  Mu1.0001  In1.028 Se1.054               0.23851093      0.00047044     -0.00070173     -0.00000033
AIVX     1  Mu1.0001  In1.029 Se1.054               0.22410770     -0.00064216      0.00115138     -0.00000074
AIVX     1  Mu1.0001  In1.025 Se1.055               0.29632113     -0.00031483     -0.00032359      0.00000010
AIVX     1  Mu1.0001  In1.027 Se1.055               0.22330925     -0.00060147      0.00096917     -0.00000058
AIVX     1  Mu1.0001  In1.028 Se1.055               0.24957874     -0.00067652      0.00127866     -0.00000087
AIVX     1  Mu1.0001  In1.029 Se1.055               0.23517551     -0.00204456      0.00332642     -0.00000680
AIVX     1  Mu1.0001  In1.027 Se1.056               0.23489123      0.00036815     -0.00120405     -0.00000044
AIVX     1  Mu1.0001  In1.028 Se1.056               0.26116072      0.00213928     -0.00385764     -0.00000825
AIVX     1  Mu1.0001  In1.029 Se1.056               0.24675749     -0.00071930      0.00071883     -0.00000052
AIVX     1  Mu1.0001  In1.027 Se1.057               0.26188873      0.00182015     -0.00267090     -0.00000486
AIVX     1  Mu1.0001  In1.028 Se1.057               0.28815821      0.00110213     -0.00212014     -0.00000234
AIVX     1  Mu1.0001  In1.029 Se1.057               0.27375498      0.00080230     -0.00112182     -0.00000090
AIVX     1  Mu1.0001  In1.027 Se1.058               0.25812153     -0.00103505      0.00116684     -0.00000121
AIVX     1  Mu1.0001  In1.028 Se1.058               0.28439101     -0.00008142     -0.00000779      0.00000000
AIVX     1  Mu1.0001  In1.029 Se1.058               0.26998778      0.00123434     -0.00240686     -0.00000297
AIVX     1  Mu1.0001  In1.027 Se1.059               0.27875033     -0.00133593      0.00193163     -0.00000258
AIVX     1  Mu1.0001  In1.029 Se1.059               0.29061658     -0.00088568      0.00142447     -0.00000126
AIVX     1  Mu1.0001  In1.027 Se1.060               0.28963718      0.00108531     -0.00127408     -0.00000138
--
 
   (Skipping property calculation,
    use PROP keyword to activate)
--
 
  Total CASPT2 energies:
::    CASPT2 Root  1     Total energy:   -455.38019541
::    CASPT2 Root  2     Total energy:   -455.16830770
::    CASPT2 Root  3     Total energy:   -455.17625189
::    CASPT2 Root  4     Total energy:   -455.12894722
::    CASPT2 Root  5     Total energy:   -455.12890963
::    CASPT2 Root  6     Total energy:   -455.08040509
::    CASPT2 Root  7     Total energy:   -455.07625337
 
++ Multi-State CASPT2 section:
********************************************************************************
  MULTI-STATE CASPT2 SECTION
--------------------------------------------------------------------------------
 
  Output diagonal energies have been shifted. Add   -455.000000000000     
 
  Effective Hamiltonian matrix (Symmetric):
 
                1               2               3               4               5
   1        -0.38019541
   2         0.00019435     -0.16830770
   3        -0.00000742     -0.00059983     -0.17625189
   4        -0.00776966     -0.00042238     -0.00116553     -0.12894722
   5         0.01934692     -0.00049796      0.00017348      0.00028879     -0.12890963
   6         0.00471881     -0.00098137     -0.00072374     -0.00148820     -0.00825464
   7        -0.01267192     -0.00013096      0.00013383     -0.00997092      0.01236069
 
                6               7
   6        -0.08040509
   7         0.00233353     -0.07625337
 
       Total MS-CASPT2 energies:
::    MS-CASPT2 Root  1     Total energy:   -455.38264220
::    MS-CASPT2 Root  2     Total energy:   -455.17633435
::    MS-CASPT2 Root  3     Total energy:   -455.16828363
::    MS-CASPT2 Root  4     Total energy:   -455.13211972
::    MS-CASPT2 Root  5     Total energy:   -455.12926041
::    MS-CASPT2 Root  6     Total energy:   -455.07900670
::    MS-CASPT2 Root  7     Total energy:   -455.07162329
 
       Eigenvectors:
            0.99517336     -0.00094572      0.00209155      0.09223849      0.02381703
           -0.00107524      0.07683286      0.99680170     -0.00519704     -0.01889294
            0.00018871      0.99667685     -0.07716286      0.01608242     -0.01896170
            0.03225103      0.02556878      0.00933474     -0.59023712      0.78861789
           -0.07871950     -0.00141727      0.01413729      0.75251387      0.60147618
           -0.01788324      0.00859819      0.01185315      0.10636513      0.12228646
            0.04552032      0.00116996      0.00063073     -0.25541315      0.00839703
 
            0.00737197     -0.02225276
           -0.00955376     -0.00258968
           -0.00744763      0.00272960
           -0.01745264     -0.16618163
           -0.17656146      0.18540955
            0.98163287      0.09795481
           -0.06868238      0.96327695
 
--
 
  THE ORIGINAL CI ARRAYS ARE NOW MIXED AS LINEAR
  COMBINATIONS, GIVEN BY THE EIGENVECTORS.
  A NEW JOBIPH FILE NAMED 'JOBMIX' IS PREPARED.
********************************************************************************
 
++ Mixed CI coefficients:
  The CI coefficients for the MIXED state nr.   1
--------------------------------------------------------------------------------
 CI COEFFICIENTS LARGER THAN  0.50D-01
  Occupation of active orbitals, and spin coupling
  of open shells. (u,d: Spin up or down).
  SGUGA info is (Midvert:IsyUp:UpperWalk/LowerWalk)
        Conf  SGUGA info        Occupation    Coefficient         Weight
           1  ( 1:1:   1/   1)   22222200        0.962805       0.926993
           4  ( 1:1:   4/   1)   22222020       -0.106849       0.011417
          21  ( 2:1:   1/   1)   222u22d0        0.080468       0.006475
          61  ( 2:1:   1/   3)   2u2222d0        0.097167       0.009441
          84  ( 2:1:   4/   4)   u222220d        0.115705       0.013388
         145  ( 3:1:   5/   5)   22022202       -0.073501       0.005402
         171  ( 3:1:   1/   8)   20222220       -0.082065       0.006735
         195  ( 3:1:   5/  10)   02222202       -0.076445       0.005844
 
  The CI coefficients for the MIXED state nr.   2
--------------------------------------------------------------------------------
 CI COEFFICIENTS LARGER THAN  0.50D-01
  Occupation of active orbitals, and spin coupling
  of open shells. (u,d: Spin up or down).
  SGUGA info is (Midvert:IsyUp:UpperWalk/LowerWalk)
        Conf  SGUGA info        Occupation    Coefficient         Weight
           7  ( 1:1:   7/   1)   22222u0d       -0.080871       0.006540
           8  ( 1:1:   8/   1)   2222u20d       -0.050381       0.002538
          24  ( 2:1:   4/   1)   222u220d       -0.850207       0.722852
          25  ( 2:1:   5/   1)   222u2dud       -0.054007       0.002917
          27  ( 2:1:   7/   1)   222u2udd       -0.077923       0.006072
          29  ( 2:1:   9/   1)   222u202d        0.084428       0.007128
          44  ( 2:1:   4/   2)   22u2220d        0.409284       0.167513
         102  ( 3:1:   2/   1)   222022ud       -0.063867       0.004079
         105  ( 3:1:   5/   1)   22202202       -0.093731       0.008786
         115  ( 3:1:   5/   2)   22ud2202       -0.116858       0.013656
         135  ( 3:1:   5/   4)   u22d2202        0.114593       0.013131
         145  ( 3:1:   5/   5)   22022202        0.087163       0.007597
         165  ( 3:1:   5/   7)   u2d22202       -0.062853       0.003951
         207  ( 4:1:   1/   2)   2u2u22dd        0.074354       0.005528
         208  ( 4:1:   2/   2)   2u2u2d2d       -0.050068       0.002507
         261  ( 5:1:   1/   7)   202u222d       -0.078870       0.006221
 
  The CI coefficients for the MIXED state nr.   3
--------------------------------------------------------------------------------
 CI COEFFICIENTS LARGER THAN  0.50D-01
  Occupation of active orbitals, and spin coupling
  of open shells. (u,d: Spin up or down).
  SGUGA info is (Midvert:IsyUp:UpperWalk/LowerWalk)
        Conf  SGUGA info        Occupation    Coefficient         Weight
           3  ( 1:1:   3/   1)   2222u2d0        0.954740       0.911528
           5  ( 1:1:   5/   1)   2222ud20       -0.127921       0.016364
          23  ( 2:1:   3/   1)   222ud220        0.058168       0.003383
          63  ( 2:1:   3/   3)   2u22d220       -0.159589       0.025469
          86  ( 2:1:   6/   4)   u222d2ud        0.059468       0.003536
          88  ( 2:1:   8/   4)   u222u2dd        0.097982       0.009600
         147  ( 3:1:   7/   5)   2202u2d2       -0.072422       0.005245
         167  ( 3:1:   7/   7)   u2d2u2d2        0.054564       0.002977
         197  ( 3:1:   7/  10)   0222u2d2       -0.078931       0.006230
 
  The CI coefficients for the MIXED state nr.   4
--------------------------------------------------------------------------------
 CI COEFFICIENTS LARGER THAN  0.50D-01
  Occupation of active orbitals, and spin coupling
  of open shells. (u,d: Spin up or down).
  SGUGA info is (Midvert:IsyUp:UpperWalk/LowerWalk)
        Conf  SGUGA info        Occupation    Coefficient         Weight
           2  ( 1:1:   2/   1)   22222ud0        0.713353       0.508873
           4  ( 1:1:   4/   1)   22222020        0.120204       0.014449
           8  ( 1:1:   8/   1)   2222u20d        0.255335       0.065196
          24  ( 2:1:   4/   1)   222u220d       -0.239973       0.057587
          44  ( 2:1:   4/   2)   22u2220d       -0.478097       0.228577
          47  ( 2:1:   7/   2)   22u22udd       -0.070659       0.004993
          49  ( 2:1:   9/   2)   22u2202d        0.050180       0.002518
          61  ( 2:1:   1/   3)   2u2222d0       -0.076052       0.005784
          62  ( 2:1:   2/   3)   2u222d20       -0.192283       0.036973
          84  ( 2:1:   4/   4)   u222220d       -0.067011       0.004491
          87  ( 2:1:   7/   4)   u2222udd        0.064558       0.004168
         135  ( 3:1:   5/   4)   u22d2202        0.055300       0.003058
         146  ( 3:1:   6/   5)   22022ud2       -0.051908       0.002694
         165  ( 3:1:   5/   7)   u2d22202        0.108722       0.011820
         166  ( 3:1:   6/   7)   u2d22ud2        0.055996       0.003136
         171  ( 3:1:   1/   8)   20222220       -0.077448       0.005998
         196  ( 3:1:   6/  10)   02222ud2       -0.063045       0.003975
 
  The CI coefficients for the MIXED state nr.   5
--------------------------------------------------------------------------------
 CI COEFFICIENTS LARGER THAN  0.50D-01
  Occupation of active orbitals, and spin coupling
  of open shells. (u,d: Spin up or down).
  SGUGA info is (Midvert:IsyUp:UpperWalk/LowerWalk)
        Conf  SGUGA info        Occupation    Coefficient         Weight
           2  ( 1:1:   2/   1)   22222ud0        0.580849       0.337386
           4  ( 1:1:   4/   1)   22222020        0.088202       0.007780
           8  ( 1:1:   8/   1)   2222u20d       -0.277786       0.077165
          21  ( 2:1:   1/   1)   222u22d0       -0.088408       0.007816
          24  ( 2:1:   4/   1)   222u220d        0.307729       0.094697
          44  ( 2:1:   4/   2)   22u2220d        0.600452       0.360542
          47  ( 2:1:   7/   2)   22u22udd        0.060193       0.003623
          49  ( 2:1:   9/   2)   22u2202d       -0.060968       0.003717
          62  ( 2:1:   2/   3)   2u222d20       -0.157828       0.024910
          84  ( 2:1:   4/   4)   u222220d        0.058796       0.003457
          87  ( 2:1:   7/   4)   u2222udd        0.074931       0.005615
         135  ( 3:1:   5/   4)   u22d2202       -0.071182       0.005067
         165  ( 3:1:   5/   7)   u2d22202       -0.140759       0.019813
         171  ( 3:1:   1/   8)   20222220       -0.059373       0.003525
         195  ( 3:1:   5/  10)   02222202        0.053471       0.002859
         219  ( 4:1:   1/   4)   2uu222dd       -0.058623       0.003437
         293  ( 5:1:   1/  15)   20u2222d        0.057298       0.003283
 
  The CI coefficients for the MIXED state nr.   6
--------------------------------------------------------------------------------
 CI COEFFICIENTS LARGER THAN  0.50D-01
  Occupation of active orbitals, and spin coupling
  of open shells. (u,d: Spin up or down).
  SGUGA info is (Midvert:IsyUp:UpperWalk/LowerWalk)
        Conf  SGUGA info        Occupation    Coefficient         Weight
           2  ( 1:1:   2/   1)   22222ud0        0.062656       0.003926
           7  ( 1:1:   7/   1)   22222u0d        0.945260       0.893517
          24  ( 2:1:   4/   1)   222u220d       -0.071313       0.005085
          25  ( 2:1:   5/   1)   222u2dud       -0.109104       0.011904
          53  ( 2:1:  13/   2)   22u22d02       -0.051528       0.002655
          65  ( 2:1:   5/   3)   2u222dud       -0.161720       0.026153
          67  ( 2:1:   7/   3)   2u222udd       -0.162221       0.026316
          93  ( 2:1:  13/   4)   u2222d02       -0.051192       0.002621
         173  ( 3:1:   3/   8)   20222u2d        0.122006       0.014885
 
  The CI coefficients for the MIXED state nr.   7
--------------------------------------------------------------------------------
 CI COEFFICIENTS LARGER THAN  0.50D-01
  Occupation of active orbitals, and spin coupling
  of open shells. (u,d: Spin up or down).
  SGUGA info is (Midvert:IsyUp:UpperWalk/LowerWalk)
        Conf  SGUGA info        Occupation    Coefficient         Weight
           8  ( 1:1:   8/   1)   2222u20d        0.836655       0.699992
          10  ( 1:1:  10/   1)   2222udud       -0.166022       0.027563
          12  ( 1:1:  12/   1)   2222uudd       -0.242943       0.059021
          24  ( 2:1:   4/   1)   222u220d        0.119062       0.014176
          26  ( 2:1:   6/   1)   222ud2ud       -0.127871       0.016351
          28  ( 2:1:   8/   1)   222uu2dd        0.144407       0.020853
          44  ( 2:1:   4/   2)   22u2220d        0.345714       0.119518
          48  ( 2:1:   8/   2)   22u2u2dd       -0.059175       0.003502
          71  ( 2:1:  11/   3)   2u22ud2d       -0.053061       0.002815
         165  ( 3:1:   5/   7)   u2d22202       -0.072585       0.005269
         174  ( 3:1:   4/   8)   2022u22d        0.067208       0.004517
         205  ( 4:1:   5/   1)   22uud2d2       -0.050250       0.002525
 
--
 
--- Stop Module: caspt2 at Tue Jun 10 23:02:20 2025 /rc=_RC_ALL_IS_WELL_ ---
*** files: xmldump
    saved to directory /home/pcaah4/diamide_project
--- Module caspt2 spent 7 minutes 1 second ---

.##################.
.# Happy landing! #.
.##################.

    Timing: Wall=702.60 User=610.61 System=82.02
******************************************************
*** WorkDir at /srv/COMMUNAL_SCRATCH/12510 cleaned ***
******************************************************
