   This run of MOLCAS is using the pymolcas driver

                             OPE
                             OPE          NMOL  CASOP  ENMOLC A   SO
                 OPE        NMOLC        AS  OP EN  MO LC     AS  OP
                OPENM       OL CA        SO  PE NM  OL CA     SOP EN
                OP EN      MO   LC       AS  OP ENMOL  CASO   PENMOL
                OP  EN     MO   LC       AS  OP EN     MO     LC ASO
               OP   E  NMOL  C  AS       OP  EN MO     LC     AS  OP
               OP  E   NMO   LC AS        OPEN  MO     LCASOP EN   M
               O  PEN   MO  LCA  SO
            OPE   NMO   L   CAS    OP
        OPENMOL  CASOP     ENMOL   CASOPE
     OPENMOLCA   SOPENMOLCASOPEN   MOLCASOPE
    OPENMOLCAS   OP           EN   MOL    CAS
    OPENMOLCAS       OP  ENM        O     LCA
    OPENMOLCAS    OPEN  MOLCASO     P  E  NMO
    OPENMOLCAS     OP               E  N  MOL
    OPENMOLCA   SO           PENM   O  L  CAS    OPEN    MO    LCAS
    OPENMOLCA   SOP           ENM   O  L  CAS   OP  EN  MOLC  AS   O
    OPENMOLCA   SOPE           NM      O  LCA   S      OP  EN MO
    OPENMOLC                AS         O  PEN   M      OL  CA  SOPE
    OPENMO        LCASOPE  NMOL        C  ASO   P      ENMOLC     AS
    OPE     NMO      LCA  SO     P     E   NM   OL  CA SO  PE N   MO
          OPENMOLCA            SOPE   NMO        LCAS  O    P  ENMO
     OPENMOLCASOPENMOLCASOPENMOLCASOPENMOLCA
        OPENMOLCASOPENMOLCASOPENMOLCASOPE
            OPENMOLCASOPENMOLCASOPENM
               OPENMOLCASOPENMOLCA        version: v23.06
                   OPENMOLCASO
                       OPE                tag:

 OpenMolcas is free software; you can redistribute it and/or modify it
 under the terms of the GNU Lesser General Public License version 2.1.
 OpenMolcas is distributed in the hope that it will be useful, but it
 is provided "as is" and without any express or implied warranties.
 For more details see the full text of the license in the file
 LICENSE or in <http://www.gnu.org/licenses/>.

                 Copyright (C) The OpenMolcas Authors
           For the author list and the recommended citation,
                   consult the file CONTRIBUTORS.md

           *************************************************
           * pymolcas version py2.24                       *
           *   build 4567b286dd94b1984b333a4ddf893180      *
           *   (after the EMIL interpreter by V. Veryazov) *
           *************************************************

configuration info
------------------
Host name: loginchem01.nottingham.ac.uk (Linux)
C Compiler ID: Intel
C flags: -std=gnu99 -gcc-sys -qopenmp
Fortran Compiler ID: Intel
Fortran flags: -fpp -i8 -heap-arrays -qopenmp
Definitions: _MOLCAS_;_I8_;_LINUX_
Parallel: OFF (GA=OFF)


   ----------------------------------------------------------------------------------------------------
  |
  |              Project: orca_geometry_optimisation_285_345_BP86_def2-SVP_def2J_scf_cas1_ras12i11_cas8
  |       Submitted from: /home/pcaah4/diamide_project
  |         Scratch area: /srv/COMMUNAL_SCRATCH/12446
  |      Save outputs to: /home/pcaah4/diamide_project
  |               Molcas: /software/chemistry/openmolcas/openmolcas-23.06-openmp
  |
  | Scratch area is empty
  |
  |       MOLCAS_DRIVER = /software/chemistry/openmolcas/openmolcas-23.06-openmp/sbin/pymolcas
  | MOLCAS_KEEP_WORKDIR = NO
  |       MOLCAS_NPROCS = 1
  |       MOLCAS_SOURCE = /software/chemistry/openmolcas/openmolcas-23.06-openmp
  |    MOLCAS_STRUCTURE = 0
  |
   ----------------------------------------------------------------------------------------------------

++ ---------   Input file   ---------

&SEWARD
TITLE
orca_geometry_optimisation_285_345_BP86_def2-SVP_def2J_scf_cas1_ras12i11
MULTIPOLES
2
SDIPOLE
ANGMOM
0 0 0
BASIS SET
C.ANO-S...4S3P1D.
C1           -0.042338   -0.196184    0.002212 /Angstrom
C3            2.004748    1.184019   -0.162448 /Angstrom
C4            1.962536    1.885833   -1.539394 /Angstrom
C6            1.439034    1.607421   -3.937235 /Angstrom
C19          -0.597324   -1.602393    0.209837 /Angstrom
END OF BASIS
BASIS SET
N.ANO-S...4S3P1D.
N2            1.338062   -0.104587   -0.054448 /Angstrom
N5            1.586859    1.095176   -2.590031 /Angstrom
END OF BASIS
BASIS SET
O.ANO-S...4S3P1D.
O7           -0.760042    0.793295   -0.101748 /Angstrom
O8            2.301428    3.062431   -1.637792 /Angstrom
END OF BASIS
BASIS SET
H.ANO-S...2S1P.
H9           -1.374065   -1.794775   -0.555863 /Angstrom
H10          -1.103066   -1.642684    1.195768 /Angstrom
H11           0.164066   -2.406216    0.166407 /Angstrom
H12           1.900128   -0.941104    0.107340 /Angstrom
H13           1.551357    1.910660    0.543059 /Angstrom
H14           3.069778    1.064867    0.121120 /Angstrom
H15           1.273168    0.149035   -2.366271 /Angstrom
H16           1.789356    2.657530   -3.925592 /Angstrom
H17           2.050933    1.032296   -4.664620 /Angstrom
H18           0.379911    1.588277   -4.273281 /Angstrom
END OF BASIS
END OF INPUT

&RASSCF
TITLE
orca_geometry_optimisation_285_345_BP86_def2-SVP_def2J_scf_cas1_ras12i11
LUMORB
SPIN
1
SYMMETRY
1
NACTEL
12  0  0
INACTIVE
29
DELETED  ! delete Rydberg orbitals from an initial CAS(12,11) if done
3
FROZEN
0
RAS2
8
ITERATIONS
64 25
CIROOT
7 7
1 2 3 4 5 6 7
1 1 1 1 1 1 1
LEVSHFT
0.3
CIMX
20
FILEorb = /home/pcaah4/diamide_project/cas/ras12i11/ras_orb/orca_geometry_optimisation_285_345_BP86_def2-SVP_def2J_scf_cas1_ras12i11.RasOrb
ALTEr
0
END OF INPUT

&RASSI
NROF JOBIPH
    1 7
    1 2 3 5 4 6 7
TOFILE
TRDI
TDMN
1.0D-6
END OF INPUT

&CASPT2
TITLE
orca_geometry_optimisation_285_345_BP86_def2-SVP_def2J_scf_cas1_ras12i11
MULTISTATE
7 1 2 3 4 5 6 7
SHIFT
0.35
MAXITER
50
END OF INPUT

-- ----------------------------------

--- Start Module: seward at Tue Jun 10 20:12:46 2025 ---
 
()()()()()()()()()()()()()()()()()()()()()()()()()()()()()()()()()()()()()()()()()()()()()()()()()()

                                              &SEWARD

                                   only a single process is used
                       available to each process: 2.0 GB of memory, 1 thread
                                            pid: 3126181
()()()()()()()()()()()()()()()()()()()()()()()()()()()()()()()()()()()()()()()()()()()()()()()()()()
 
               SEWARD will generate:
                  Multipole Moment integrals up to order  2
                  Kinetic Energy integrals
                  Nuclear Attraction integrals (point charge)
                  One-Electron Hamiltonian integrals
                  Velocity integrals
                  Orbital angular momentum around ( 0.0000  0.0000  0.0000 )
                  Velocity quadrupole around ( 1.9263  1.6230 -2.0882 )
                  Two-Electron Repulsion integrals
 
 Title:
            orca_geometry_optimisation_285_345_BP86_def2-SVP_def2J_scf_cas1_ras12i11    
 
 
                   Integrals are discarded if absolute value <: 0.10E-13
                   Integral cutoff threshold is set to       <: 0.10E-15
 
++    Symmetry information:
      ---------------------
 
                    Character Table for C1 
 
                             E  
                    a        1  x, y, xy, Rz, z, xz, Ry, yz, Rx, I
--
 
 
++    Basis set information:
      ----------------------
 
 
      Basis set label: C.ANO-S...4S3P1D......
 
      Electronic valence basis set:
      ------------------
      Associated Effective Charge   6.000000 au
      Associated Actual Charge      6.000000 au
      Nuclear Model: Point charge
 
      Shell  nPrim  nBasis  Cartesian Spherical Contaminant
         s      10       4        X                  
         p       6       3        X                  
         d       3       1                 X         
 
 
      Basis set label: N.ANO-S...4S3P1D......
 
      Electronic valence basis set:
      ------------------
      Associated Effective Charge   7.000000 au
      Associated Actual Charge      7.000000 au
      Nuclear Model: Point charge
 
      Shell  nPrim  nBasis  Cartesian Spherical Contaminant
         s      10       4        X                  
         p       6       3        X                  
         d       3       1                 X         
 
 
      Basis set label: O.ANO-S...4S3P1D......
 
      Electronic valence basis set:
      ------------------
      Associated Effective Charge   8.000000 au
      Associated Actual Charge      8.000000 au
      Nuclear Model: Point charge
 
      Shell  nPrim  nBasis  Cartesian Spherical Contaminant
         s      10       4        X                  
         p       6       3        X                  
         d       3       1                 X         
 
 
      Basis set label: H.ANO-S...2S1P......
 
      Electronic valence basis set:
      ------------------
      Associated Effective Charge   1.000000 au
      Associated Actual Charge      1.000000 au
      Nuclear Model: Point charge
 
      Shell  nPrim  nBasis  Cartesian Spherical Contaminant
         s       7       2        X                  
         p       3       1        X                  
--
 
 
++    Molecular structure info:
      -------------------------
 
                    ************************************************ 
                    **** Cartesian Coordinates / Bohr, Angstrom **** 
                    ************************************************ 
 
     Center  Label                x              y              z                     x              y              z
        1      C1              -0.080007      -0.370734       0.004180             -0.042338      -0.196184       0.002212
        2      C3               3.788425       2.237472      -0.306982              2.004748       1.184019      -0.162448
        3      C4               3.708656       3.563708      -2.909033              1.962536       1.885833      -1.539394
        4      C6               2.719380       3.037585      -7.440296              1.439034       1.607421      -3.937235
        5      C19             -1.128779      -3.028084       0.396534             -0.597324      -1.602393       0.209837
        6      N2               2.528571      -0.197641      -0.102892              1.338062      -0.104587      -0.054448
        7      N5               2.998729       2.069583      -4.894449              1.586859       1.095176      -2.590031
        8      O7              -1.436271       1.499110      -0.192276             -0.760042       0.793295      -0.101748
        9      O8               4.349069       5.787156      -3.094978              2.301428       3.062431      -1.637792
       10      H9              -2.596607      -3.391633      -1.050429             -1.374065      -1.794775      -0.555863
       11      H10             -2.084493      -3.104223       2.259674             -1.103066      -1.642684       1.195768
       12      H11              0.310040      -4.547089       0.314464              0.164066      -2.406216       0.166407
       13      H12              3.590722      -1.778429       0.202843              1.900128      -0.941104       0.107340
       14      H13              2.931640       3.610624       1.026233              1.551357       1.910660       0.543059
       15      H14              5.801040       2.012307       0.228884              3.069778       1.064867       0.121120
       16      H15              2.405939       0.281635      -4.471604              1.273168       0.149035      -2.366271
       17      H16              3.381393       5.022004      -7.418294              1.789356       2.657530      -3.925592
       18      H17              3.875702       1.950757      -8.814854              2.050933       1.032296      -4.664620
       19      H18              0.717928       3.001409      -8.075331              0.379911       1.588277      -4.273281
 
                    ************************************************* 
                    **** InterNuclear Distances / Bohr, Angstrom **** 
                    ************************************************* 
 
     Atom centers         Bohr        Angstrom
   13 H12       6 N2      1.928867        1.020713
   16 H15       7 N5      1.930532        1.021594
   17 H16       4 C6      2.092047        1.107064
   10 H9        5 C19     2.092938        1.107535
   12 H11       5 C19     2.093875        1.108031
   15 H14       2 C3      2.094868        1.108556
   11 H10       5 C19     2.095346        1.108809
   14 H13       2 C3      2.096924        1.109644
   18 H17       4 C6      2.099449        1.110981
   19 H18       4 C6      2.100093        1.111321
    8 O7        1 C1      2.318268        1.226774
    9 O8        3 C4      2.321298        1.228378
    7 N5        3 C4      2.584237        1.367520
    6 N2        1 C1      2.616506        1.384595
    7 N5        4 C6      2.737955        1.448864
    6 N2        2 C3      2.749301        1.454868
    5 C19       1 C1      2.883639        1.525956
    3 C4        2 C3      2.921632        1.546061
   11 H10      10 H9      3.361792        1.778984
   15 H14      14 H13     3.379917        1.788575
   12 H11      11 H10     3.405803        1.802273
   19 H18      17 H16     3.407132        1.802977
   19 H18      18 H17     3.409150        1.804044
   18 H17      17 H16     3.409880        1.804431
   12 H11      10 H9      3.412712        1.805929
   16 H15       3 C4      3.861437        2.043385
   17 H16       7 N5      3.902949        2.065352
   13 H12       1 C1      3.936410        2.083058
   15 H14       6 N2      3.962701        2.096971
   14 H13       6 N2      3.992527        2.112754
   14 H13       3 C4      4.011517        2.122804
   18 H17       7 N5      4.019052        2.126791
   19 H18       7 N5      4.023476        2.129132
   13 H12       2 C3      4.052958        2.144733
   16 H15       4 C6      4.062836        2.149960
   10 H9        1 C1      4.070787        2.154168
   11 H10       1 C1      4.071508        2.154549
   15 H14       3 C4      4.078166        2.158072
   12 H11       1 C1      4.205990        2.225714
   13 H12      12 H11     4.294277        2.272433
    8 O7        6 N2      4.313575        2.282645
    9 O8        7 N5      4.345327        2.299448
   15 H14      13 H12     4.388150        2.322109
   16 H15       6 N2      4.396634        2.326599
   17 H16       9 O8      4.495877        2.379116
    9 O8        2 C3      4.548352        2.406884
    8 O7        5 C19     4.575668        2.421339
    6 N2        5 C19     4.651563        2.461501
    7 N5        2 C3      4.657967        2.464890
    4 C6        3 C4      4.667742        2.470063
    2 C3        1 C1      4.675930        2.474396
   17 H16       3 C4      4.750491        2.513851
   16 H15       2 C3      4.804231        2.542290
   19 H18      16 H15     4.820103        2.550689
    6 N2        3 C4      4.838881        2.560626
   14 H13       9 O8      4.871424        2.577847
   18 H17      16 H15     4.879548        2.582146
   13 H12       5 C19     4.885984        2.585551
   12 H11       6 N2      4.900384        2.593172
   14 H13       8 O7      5.002190        2.647045
   14 H13       1 C1      5.095667        2.696511
   10 H9        8 O7      5.099233        2.698398
   16 H15       1 C1      5.161217        2.731198
   15 H14       9 O8      5.235051        2.770270
   16 H15      13 H12     5.243857        2.774929
   11 H10       8 O7      5.255752        2.781224
    8 O7        2 C3      5.277858        2.792922
    7 N5        6 N2      5.321689        2.816117
    9 O8        4 C6      5.394238        2.854508
   14 H13      13 H12     5.491289        2.905865
   17 H16      16 H15     5.666179        2.998413
--
 
 
            Nuclear Potential Energy            460.59196406 au
 
 
      Basis set specifications :
      Symmetry species         a  
      Basis functions          212
 
 
      Input file to MOLDEN was generated!
 
--- Stop Module: seward at Tue Jun 10 20:14:36 2025 /rc=_RC_ALL_IS_WELL_ ---
*** files: orca_geometry_optimisation_285_345_BP86_def2-SVP_def2J_scf_cas1_ras12i11_cas8.GssOrb
           orca_geometry_optimisation_285_345_BP86_def2-SVP_def2J_scf_cas1_ras12i11_cas8.guessorb.molden xmldump
    saved to directory /home/pcaah4/diamide_project
--- Module seward spent 1 minute 50 seconds ---

*** symbolic link created: INPORB -> orca_geometry_optimisation_285_345_BP86_def2-SVP_def2J_scf_cas1_ras12i11_cas8.GssOrb
--- Start Module: rasscf at Tue Jun 10 20:14:37 2025 ---
 
()()()()()()()()()()()()()()()()()()()()()()()()()()()()()()()()()()()()()()()()()()()()()()()()()()

                                              &RASSCF

                                   only a single process is used
                       available to each process: 2.0 GB of memory, 1 thread
                                            pid: 3126203
()()()()()()()()()()()()()()()()()()()()()()()()()()()()()()()()()()()()()()()()()()()()()()()()()()
 
 
      Header of the ONEINT file:
      --------------------------
      orca_geometry_optimisation_285_345_BP86_def2-SVP_def2J_scf_cas1_ras12i11
      Integrals generated by Gateway/Seward, Tue Jun 10 20:12:46 2025
 
 
      OrdInt status: non-squared
 
 
      Cartesian coordinates in Angstrom:
      -----------------------------------------------------
      No.  Label        X            Y            Z        
      -----------------------------------------------------
       1   C1        -0.04233800  -0.19618400   0.00221200
       2   C3         2.00474800   1.18401900  -0.16244800
       3   C4         1.96253600   1.88583300  -1.53939400
       4   C6         1.43903400   1.60742100  -3.93723500
       5   C19       -0.59732400  -1.60239300   0.20983700
       6   N2         1.33806200  -0.10458700  -0.05444800
       7   N5         1.58685900   1.09517600  -2.59003100
       8   O7        -0.76004200   0.79329500  -0.10174800
       9   O8         2.30142800   3.06243100  -1.63779200
      10   H9        -1.37406500  -1.79477500  -0.55586300
      11   H10       -1.10306600  -1.64268400   1.19576800
      12   H11        0.16406600  -2.40621600   0.16640700
      13   H12        1.90012800  -0.94110400   0.10734000
      14   H13        1.55135700   1.91066000   0.54305900
      15   H14        3.06977800   1.06486700   0.12112000
      16   H15        1.27316800   0.14903500  -2.36627100
      17   H16        1.78935600   2.65753000  -3.92559200
      18   H17        2.05093300   1.03229600  -4.66462000
      19   H18        0.37991100   1.58827700  -4.27328100
      -----------------------------------------------------
      Nuclear repulsion energy =  460.59196406
 
++    Wave function specifications:
      -----------------------------
 
      Number of closed shell electrons          58
      Number of electrons in active shells      12
      Max number of holes in RAS1 space          0
      Max nr of electrons in RAS3 space          0
      Number of inactive orbitals               29
      Number of active orbitals                  8
      Number of secondary orbitals             172
      Spin quantum number                      0.0
      State symmetry                             1
--
 
++    Orbital specifications:
      -----------------------
 
      Symmetry species                           1
                                                 a
      Frozen orbitals                            0
      Inactive orbitals                         29
      Active orbitals                            8
      RAS1 orbitals                              0
      RAS2 orbitals                              8
      RAS3 orbitals                              0
      Secondary orbitals                       172
      Deleted orbitals                           3
      Number of basis functions                212
--
 
++    CI expansion specifications:
      ----------------------------
 
      Number of CSFs                           336
      Number of determinants                   406
      Number of root(s) required                 7
      Root chosen for geometry opt.              7
      CI roots used                              1     2     3     4     5     6     7
      weights                                0.143 0.143 0.143 0.143 0.143 0.143 0.143
      highest root included in the CI            7
      max. size of the explicit Hamiltonian    200
--
 
++    Optimization specifications:
      ----------------------------
 
      RASSCF algorithm: Conventional
      Maximum number of macro iterations        64
      Maximum number of SX iterations           25
      Threshold for RASSCF energy            0.100E-07
      Threshold for max MO rotation          0.100E+00
      Threshold for max BLB element          0.100E-03
      Level shift parameter                  0.300E+00
      Make Quasi-Newton update
--
 
      The MO-coefficients are taken from the file:
      /home/pcaah4/diamide_project/cas/ras12i11/ras_orb/orca_geometry_optimisation_285_345_BP86_def2-SVP_def2J_scf_cas1_ras12i11.RasOrb                                                                                                                               
      Title: RASSCF average (pseudo-natural) orbitals                                      
 
      Total molecular charge    0.00
 
      ************************************************************************************************************************
      *                                                                                                                      *
      *                                            Wave function control section                                             *
      *                                                                                                                      *
      ************************************************************************************************************************
 
 
                                         RASSCF iterations: Energy and convergence statistics
                                         ----------------------------------------------------
 
      Iter CI   SX   CI       RASSCF       Energy    max ROT     max BLB   max BLB  Level Ln srch  Step   QN   Walltime
          iter iter root      energy       change     param      element    value   shift minimum  type update hh:mm:ss
 Nr of preliminary CI iterations:   4
        1   1   25    0  -453.68672780    0.00E+00  -0.34E-01   24  72 1 -0.18E-01*  0.15   0.00    SX    NO    0:00:13
        2   5   16    0  -453.69968608   -0.13E-01*  0.20E-01   32  38 1 -0.83E-02*  0.14   0.00    SX    NO    0:00:07
        3   4   16    0  -453.70195887   -0.23E-02*  0.12E-01   33  40 1  0.58E-02*  0.15   0.00    SX    NO    0:00:06
        4   6   12    0  -453.70356022   -0.16E-02*  0.67E-02   20  99 1 -0.23E-02*  0.16   0.00    SX    NO    0:00:06
        5   5   11    0  -453.70394599   -0.39E-03*  0.14E-01   19  73 1 -0.16E-02*  0.16   1.33    QN   YES    0:00:07
        6   5   10    0  -453.70411622   -0.17E-03*  0.33E-02   33  40 1 -0.29E-02*  0.16   0.70    QN   YES    0:00:07
        7   5   10    0  -453.70417517   -0.59E-04*  0.11E-02   20  99 1 -0.17E-02*  0.16   0.70    QN   YES    0:00:06
        8   4    9    0  -453.70419017   -0.15E-04*  0.16E-02   33  40 1 -0.32E-03*  0.16   2.50    LS   YES    0:00:06
        9   5    9    0  -453.70418111    0.91E-05*  0.76E-03   20  99 1  0.13E-02*  0.16   0.31    LS   YES    0:00:06
       10   5    9    0  -453.70419012   -0.90E-05*  0.35E-03   33  40 1 -0.46E-03*  0.16   2.50    QN   YES    0:00:07
       11   3    8    0  -453.70419255   -0.24E-05*  0.24E-03   20  99 1  0.19E-03*  0.16   1.19    QN   YES    0:00:07
       12   5    8    0  -453.70419331   -0.76E-06*  0.13E-03   33  40 1  0.52E-04   0.16   1.04    QN   YES    0:00:06
       13   3    7    0  -453.70419343   -0.12E-06*  0.57E-03   20  99 1  0.53E-04   0.16   1.45    QN   YES    0:00:06
       14   4    8    0  -453.70419327    0.16E-06*  0.24E-03   20  99 1 -0.14E-03*  0.16   0.39    LS   YES    0:00:06
       15   4    7    0  -453.70419347   -0.20E-06*  0.15E-03   20  99 1 -0.23E-04   0.16   1.61    LS   YES    0:00:07
       16   3    7    0  -453.70419350   -0.25E-07*  0.99E-04   33  40 1  0.20E-04   0.16   0.84    QN   YES    0:00:06
       17   1    6    0  -453.70419351   -0.11E-07*  0.39E-04   24  40 1  0.55E-05   0.16   1.32    QN   YES    0:00:06
       18   1    6    0  -453.70419351   -0.32E-08  -0.21E-04   33  40 1 -0.72E-05   0.16   1.20    QN   YES    0:00:06
      Convergence after 18 iterations
       19   1    6    0  -453.70419351   -0.77E-09  -0.21E-04   20  84 1  0.15E-05   0.16   1.20    QN   YES    0:00:06
 
      ************************************************************************************************************************
                                                      Wave function printout:
                       occupation of active orbitals, and spin coupling of open shells (u,d: Spin up or down)
      ************************************************************************************************************************
 
      Note: transformation to natural orbitals
      has been made, which may change the order of the CSFs.
 
      printout of CI-coefficients larger than  0.05 for root  1
      energy=    -453.957161
      conf/sym  11111111     Coeff  Weight
             1  22222200   0.96010 0.92180
             2  22222ud0  -0.11869 0.01409
             4  22222020  -0.09236 0.00853
            61  2u2222d0  -0.08865 0.00786
            62  2u222d20  -0.06468 0.00418
            84  u222220d   0.11049 0.01221
           145  22022202  -0.08498 0.00722
           165  u2d22202   0.05799 0.00336
           171  20222220  -0.09090 0.00826
           195  02222202  -0.07859 0.00618
 
      printout of CI-coefficients larger than  0.05 for root  2
      energy=    -453.742717
      conf/sym  11111111     Coeff  Weight
             3  2222u2d0  -0.95804 0.91784
             5  2222ud20  -0.12557 0.01577
            63  2u22d220  -0.15945 0.02543
            86  u222d2ud  -0.05935 0.00352
            88  u222u2dd  -0.09789 0.00958
           147  2202u2d2   0.08602 0.00740
           167  u2d2u2d2  -0.05733 0.00329
           197  0222u2d2   0.07871 0.00619
 
      printout of CI-coefficients larger than  0.05 for root  3
      energy=    -453.740197
      conf/sym  11111111     Coeff  Weight
            24  222u220d  -0.94976 0.90205
            25  222u2dud   0.05604 0.00314
            27  222u2udd   0.09507 0.00904
            29  222u202d   0.09258 0.00857
           115  22ud2202  -0.17457 0.03047
           135  u22d2202   0.12858 0.01653
           207  2u2u22dd  -0.07949 0.00632
           208  2u2u2d2d  -0.05382 0.00290
           261  202u222d  -0.08912 0.00794
 
      printout of CI-coefficients larger than  0.05 for root  4
      energy=    -453.645105
      conf/sym  11111111     Coeff  Weight
             7  22222u0d  -0.17840 0.03183
             8  2222u20d  -0.52144 0.27190
            10  2222udud  -0.06025 0.00363
            12  2222uudd  -0.08383 0.00703
            44  22u2220d   0.76551 0.58601
            45  22u22dud  -0.05672 0.00322
            47  22u22udd  -0.09436 0.00890
            49  22u2202d  -0.07986 0.00638
            84  u222220d   0.08011 0.00642
           165  u2d22202  -0.18155 0.03296
           195  02222202   0.05764 0.00332
           219  2uu222dd   0.07343 0.00539
           293  20u2222d   0.07223 0.00522
 
      printout of CI-coefficients larger than  0.05 for root  5
      energy=    -453.624662
      conf/sym  11111111     Coeff  Weight
             1  22222200  -0.07964 0.00634
             2  22222ud0  -0.71285 0.50816
             4  22222020   0.11738 0.01378
             7  22222u0d  -0.57248 0.32774
             8  2222u20d   0.18897 0.03571
            12  2222uudd   0.06418 0.00412
            62  2u222d20  -0.19492 0.03799
            65  2u222dud  -0.09460 0.00895
            67  2u222udd  -0.09039 0.00817
            87  u2222udd  -0.08369 0.00700
           146  22022ud2   0.06361 0.00405
           171  20222220  -0.06879 0.00473
           173  20222u2d  -0.07205 0.00519
           196  02222ud2   0.05840 0.00341
 
      printout of CI-coefficients larger than  0.05 for root  6
      energy=    -453.620363
      conf/sym  11111111     Coeff  Weight
             1  22222200  -0.06755 0.00456
             2  22222ud0  -0.55307 0.30589
             4  22222020   0.07983 0.00637
             7  22222u0d   0.74087 0.54889
            25  222u2dud  -0.05528 0.00306
            44  22u2220d   0.18308 0.03352
            62  2u222d20  -0.15266 0.02330
            65  2u222dud   0.13255 0.01757
            67  2u222udd   0.14070 0.01980
           146  22022ud2   0.05034 0.00253
           173  20222u2d   0.10223 0.01045
 
      printout of CI-coefficients larger than  0.05 for root  7
      energy=    -453.599149
      conf/sym  11111111     Coeff  Weight
             1  22222200   0.05610 0.00315
             2  22222ud0   0.18096 0.03275
             4  22222020  -0.05230 0.00274
             7  22222u0d   0.05109 0.00261
             8  2222u20d   0.74979 0.56218
            10  2222udud   0.15354 0.02357
            12  2222uudd   0.22562 0.05091
            26  222ud2ud  -0.07184 0.00516
            28  222uu2dd   0.08829 0.00780
            44  22u2220d   0.50808 0.25814
            71  2u22ud2d  -0.05502 0.00303
           165  u2d22202  -0.11292 0.01275
           174  2022u22d   0.06381 0.00407
 
      Natural orbitals and occupation numbers for root  1
      sym 1:   1.995433   1.965390   1.995693   1.999803   1.999775   1.954790   0.050026   0.039089
 
      Natural orbitals and occupation numbers for root  2
      sym 1:   1.965049   1.999277   1.995241   1.998192   1.004627   1.999910   0.996657   0.041048
 
      Natural orbitals and occupation numbers for root  3
      sym 1:   1.999919   1.995105   1.999661   1.002838   1.998040   1.955249   0.051457   0.997731
 
      Natural orbitals and occupation numbers for root  4
      sym 1:   1.985730   1.982227   1.115693   1.997973   1.964964   1.941194   0.075650   0.936569
 
      Natural orbitals and occupation numbers for root  5
      sym 1:   1.983702   1.948798   1.993952   1.997612   1.971346   1.027912   0.987877   0.088801
 
      Natural orbitals and occupation numbers for root  6
      sym 1:   1.989231   1.929471   1.977679   1.997142   1.999265   1.034550   0.101530   0.971132
 
      Natural orbitals and occupation numbers for root  7
      sym 1:   1.992695   1.973946   1.939779   1.994682   1.162482   1.900605   0.132660   0.903151
 
      ************************************************************************************************************************
      *                                                                                                                      *
      *                                                    Final results                                                     *
      *                                                                                                                      *
      ************************************************************************************************************************
 
 
++    Wave function specifications:
      -----------------------------
 
      Number of closed shell electrons          58
      Number of electrons in active shells      12
      Max number of holes in RAS1 space          0
      Max nr of electrons in RAS3 space          0
      Number of inactive orbitals               29
      Number of active orbitals                  8
      Number of secondary orbitals             172
      Spin quantum number                      0.0
      State symmetry                             1
--
 
++    Orbital specifications:
      -----------------------
 
      Symmetry species                           1
                                                 a
      Frozen orbitals                            0
      Inactive orbitals                         29
      Active orbitals                            8
      RAS1 orbitals                              0
      RAS2 orbitals                              8
      RAS3 orbitals                              0
      Secondary orbitals                       172
      Deleted orbitals                           3
      Number of basis functions                212
--
 
++    CI expansion specifications:
      ----------------------------
 
      Number of CSFs                           336
      Number of determinants                   406
      Number of root(s) required                 7
      CI roots used                              1     2     3     4     5     6     7
      weights                                0.143 0.143 0.143 0.143 0.143 0.143 0.143
      highest root included in the CI            7
      Root passed to geometry opt.               7
--
 
++    Final optimization conditions:
      ------------------------------
 
      Average CI energy                            -453.70419351
      RASSCF energy for state  7                   -453.59914883
      Super-CI energy                                -0.00000000
      RASSCF energy change                            0.00000000
      Max change in MO coefficients              -0.244E-04
      Max non-diagonal density matrix element    -0.212E-04
      Maximum BLB matrix element                  0.151E-05
      (orbital pair  20,  84 in symmetry   1)
      Norm of electronic gradient            0.279E+00
--
 
 
      Final state energy(ies):
      ------------------------
 
::    RASSCF root number  1 Total energy:   -453.95716123
::    RASSCF root number  2 Total energy:   -453.74271704
::    RASSCF root number  3 Total energy:   -453.74019729
::    RASSCF root number  4 Total energy:   -453.64510482
::    RASSCF root number  5 Total energy:   -453.62466189
::    RASSCF root number  6 Total energy:   -453.62036348
::    RASSCF root number  7 Total energy:   -453.59914883
 
++    Molecular orbitals:
      -------------------
 
      Pseudonatural active orbitals and approximate occupation numbers
 
 
 
 
      Molecular orbitals for symmetry species 1: a  
 
 
      Orbital                 1         2         3         4         5         6         7         8         9        10
      Energy           -20.6013  -20.5100  -15.6385  -15.5955  -11.3412  -11.2940  -11.2932  -11.2762  -11.2256   -1.4265
      Occ. No.           2.0000    2.0000    2.0000    2.0000    2.0000    2.0000    2.0000    2.0000    2.0000    2.0000
 
     1 C1     1s        -0.0001    0.0003   -0.0000    0.0002   -0.0000   -0.0007   -0.0000    1.0000    0.0060    0.0006
     2 C1     2s        -0.0005    0.0006   -0.0002    0.0010   -0.0003   -0.0009   -0.0000    0.0024    0.0002    0.0288
     3 C1     3s        -0.0003   -0.0007   -0.0002    0.0004   -0.0002   -0.0007   -0.0000    0.0001    0.0004    0.0130
     4 C1     4s        -0.0000   -0.0004   -0.0001    0.0001   -0.0001   -0.0003   -0.0000    0.0015    0.0001    0.0038
     5 C1     2px       -0.0002   -0.0013   -0.0001    0.0016   -0.0000   -0.0000   -0.0001    0.0019    0.0002    0.0115
     6 C1     3px       -0.0002   -0.0009   -0.0001    0.0013   -0.0001   -0.0003   -0.0001    0.0019   -0.0003    0.0107
     7 C1     4px       -0.0000    0.0001    0.0000   -0.0000   -0.0000   -0.0002    0.0000    0.0006   -0.0002    0.0011
     8 C1     2py        0.0001    0.0030   -0.0001    0.0002   -0.0003    0.0001   -0.0003    0.0007    0.0007    0.0194
     9 C1     3py        0.0001    0.0022   -0.0002    0.0001   -0.0004   -0.0004   -0.0004    0.0009   -0.0002    0.0202
    10 C1     4py        0.0000   -0.0003   -0.0001   -0.0000   -0.0001   -0.0003   -0.0001    0.0007   -0.0003    0.0045
    11 C1     2pz        0.0001   -0.0004    0.0001   -0.0001    0.0000   -0.0001    0.0001   -0.0004    0.0000   -0.0036
    12 C1     3pz        0.0001   -0.0003    0.0001   -0.0001    0.0000   -0.0001    0.0002   -0.0006    0.0002   -0.0030
    13 C1     4pz       -0.0000    0.0000    0.0000   -0.0000   -0.0000   -0.0000    0.0000   -0.0002    0.0001   -0.0006
    14 C1     3d2-      -0.0000    0.0002   -0.0000    0.0001   -0.0000    0.0000    0.0000   -0.0003   -0.0001   -0.0001
    15 C1     3d1-      -0.0000   -0.0000    0.0000   -0.0000    0.0000   -0.0000    0.0000   -0.0001   -0.0000   -0.0002
    16 C1     3d0        0.0000   -0.0000    0.0000    0.0001   -0.0000   -0.0001    0.0000   -0.0003   -0.0001   -0.0013
    17 C1     3d1+       0.0000   -0.0000    0.0000    0.0000    0.0000   -0.0000    0.0000    0.0000   -0.0000   -0.0004
    18 C1     3d2+       0.0000    0.0001   -0.0000   -0.0002    0.0000    0.0000   -0.0000    0.0000    0.0001    0.0005
    19 C3     1s         0.0002    0.0003   -0.0000    0.0005    0.0058    0.9995   -0.0019    0.0006   -0.0000   -0.0127
    20 C3     2s         0.0010    0.0016   -0.0002    0.0024   -0.0001   -0.0014    0.0005   -0.0000   -0.0002    0.0066
    21 C3     3s         0.0006    0.0010   -0.0001    0.0012   -0.0002   -0.0026    0.0003   -0.0001   -0.0001   -0.0370
    22 C3     4s         0.0001    0.0002   -0.0001    0.0001    0.0000    0.0007    0.0000   -0.0001   -0.0000   -0.0050
    23 C3     2px        0.0003   -0.0003   -0.0002   -0.0007   -0.0002    0.0001   -0.0002    0.0003   -0.0004    0.0109
    24 C3     3px        0.0003   -0.0001   -0.0002   -0.0003   -0.0003   -0.0001   -0.0003    0.0007   -0.0004    0.0131
    25 C3     4px        0.0000    0.0001    0.0000    0.0002   -0.0001   -0.0004   -0.0001    0.0003   -0.0001    0.0007
    26 C3     2py       -0.0010   -0.0002    0.0009   -0.0006    0.0005   -0.0005   -0.0003    0.0004    0.0002    0.0220
    27 C3     3py       -0.0011   -0.0002    0.0009    0.0000    0.0002   -0.0004   -0.0006    0.0005    0.0002    0.0079
    28 C3     4py       -0.0001    0.0000    0.0000    0.0002   -0.0001   -0.0006   -0.0002    0.0000   -0.0000    0.0028
    29 C3     2pz       -0.0001    0.0001   -0.0002   -0.0004   -0.0001    0.0002   -0.0001   -0.0003    0.0001   -0.0084
    30 C3     3pz        0.0002    0.0001   -0.0002   -0.0004    0.0004    0.0002    0.0000   -0.0005    0.0002    0.0089
    31 C3     4pz        0.0002    0.0000    0.0000   -0.0000    0.0001   -0.0004    0.0001   -0.0001    0.0000   -0.0089
    32 C3     3d2-       0.0000    0.0000    0.0000    0.0000   -0.0001   -0.0001   -0.0000    0.0000   -0.0000   -0.0008
    33 C3     3d1-       0.0001    0.0000   -0.0000   -0.0000   -0.0001    0.0000   -0.0000    0.0000    0.0000   -0.0058
    34 C3     3d0        0.0001    0.0000    0.0000    0.0001    0.0000   -0.0001    0.0001   -0.0000    0.0000   -0.0010
    35 C3     3d1+       0.0001   -0.0000   -0.0000   -0.0000   -0.0000    0.0000    0.0000   -0.0000   -0.0000   -0.0023
    36 C3     3d2+       0.0000   -0.0000   -0.0001    0.0000    0.0001    0.0001    0.0000    0.0000    0.0000   -0.0004
    37 C4     1s         0.0003   -0.0000    0.0002   -0.0003    1.0000   -0.0058    0.0002   -0.0002   -0.0000   -0.0390
    38 C4     2s         0.0010   -0.0001    0.0003   -0.0018    0.0024    0.0008    0.0002   -0.0013   -0.0000    0.3587
    39 C4     3s        -0.0004   -0.0000   -0.0001   -0.0013   -0.0001    0.0002    0.0000   -0.0011   -0.0000   -0.0037
    40 C4     4s        -0.0004   -0.0000   -0.0001   -0.0003    0.0012    0.0000   -0.0001   -0.0003    0.0000    0.0036
    41 C4     2px        0.0009   -0.0001   -0.0004    0.0001    0.0000   -0.0000    0.0002   -0.0002    0.0002    0.0280
    42 C4     3px        0.0007   -0.0001   -0.0003    0.0001   -0.0002    0.0001    0.0003   -0.0004    0.0003   -0.0212
    43 C4     4px       -0.0000   -0.0000   -0.0000   -0.0001   -0.0000    0.0001    0.0001   -0.0001    0.0000    0.0070
    44 C4     2py        0.0032   -0.0000   -0.0006    0.0005    0.0001   -0.0006    0.0002    0.0001   -0.0001    0.0973
    45 C4     3py        0.0024    0.0000   -0.0005    0.0004   -0.0001    0.0000    0.0001    0.0002   -0.0001   -0.0682
    46 C4     4py       -0.0003    0.0001   -0.0000   -0.0000    0.0003    0.0003   -0.0001    0.0001   -0.0000    0.0258
    47 C4     2pz       -0.0004    0.0000   -0.0016   -0.0001   -0.0014    0.0012    0.0002   -0.0002    0.0000   -0.0342
    48 C4     3pz       -0.0002    0.0001   -0.0012    0.0000   -0.0010    0.0009    0.0009   -0.0001    0.0001    0.0038
    49 C4     4pz        0.0001    0.0001    0.0001    0.0001   -0.0006    0.0000    0.0006    0.0000    0.0000   -0.0083
    50 C4     3d2-      -0.0000   -0.0000   -0.0001    0.0001    0.0004   -0.0000    0.0000   -0.0000    0.0000    0.0232
    51 C4     3d1-       0.0000    0.0000   -0.0002    0.0000    0.0001   -0.0000    0.0000    0.0000   -0.0000   -0.0020
    52 C4     3d0        0.0002   -0.0000   -0.0000   -0.0000   -0.0001    0.0000    0.0001    0.0000   -0.0000   -0.0165
    53 C4     3d1+       0.0000    0.0000   -0.0001    0.0000    0.0001   -0.0000    0.0000    0.0000    0.0000    0.0014
    54 C4     3d2+       0.0001   -0.0000    0.0001   -0.0000   -0.0005    0.0001   -0.0000    0.0000   -0.0000   -0.0351
    55 C6     1s         0.0001   -0.0000    0.0004   -0.0000   -0.0002    0.0021    0.9996   -0.0000    0.0001   -0.0087
    56 C6     2s         0.0005   -0.0001    0.0021   -0.0002    0.0001    0.0006   -0.0006   -0.0001    0.0005    0.0175
    57 C6     3s         0.0004   -0.0001    0.0009   -0.0001   -0.0001    0.0005   -0.0021   -0.0002    0.0004   -0.0149
    58 C6     4s         0.0001   -0.0001    0.0000   -0.0000   -0.0002    0.0001    0.0008   -0.0001    0.0001   -0.0008
    59 C6     2px        0.0002   -0.0003    0.0002   -0.0001   -0.0001    0.0000   -0.0000   -0.0001    0.0001   -0.0011
    60 C6     3px        0.0002   -0.0002    0.0001   -0.0000   -0.0001    0.0000   -0.0000   -0.0001    0.0001   -0.0042
    61 C6     4px       -0.0000    0.0001   -0.0000    0.0000   -0.0001   -0.0000    0.0001    0.0000   -0.0000    0.0011
    62 C6     2py        0.0002   -0.0001   -0.0003   -0.0001   -0.0001   -0.0001   -0.0001   -0.0002    0.0000    0.0000
    63 C6     3py        0.0001   -0.0000   -0.0001   -0.0001   -0.0003   -0.0001    0.0002   -0.0002    0.0000    0.0029
    64 C6     4py       -0.0001    0.0000    0.0000    0.0000   -0.0001    0.0000   -0.0002    0.0000    0.0000   -0.0005
    65 C6     2pz        0.0003   -0.0001    0.0005    0.0000   -0.0004    0.0003   -0.0000   -0.0001    0.0001    0.0203
    66 C6     3pz        0.0003   -0.0001   -0.0001    0.0000   -0.0006    0.0002   -0.0003   -0.0002    0.0001   -0.0026
    67 C6     4pz       -0.0000   -0.0000   -0.0003   -0.0000   -0.0001   -0.0001    0.0007   -0.0001    0.0000    0.0036
    68 C6     3d2-       0.0000    0.0000   -0.0000   -0.0000    0.0000    0.0000   -0.0000   -0.0000   -0.0000    0.0001
    69 C6     3d1-      -0.0000   -0.0000    0.0001   -0.0000    0.0001   -0.0000    0.0001    0.0000   -0.0000   -0.0021
    70 C6     3d0        0.0000   -0.0000   -0.0000    0.0000    0.0000    0.0000   -0.0000    0.0000   -0.0000    0.0037
    71 C6     3d1+       0.0000    0.0000   -0.0000   -0.0000    0.0000    0.0000   -0.0000   -0.0000   -0.0000    0.0011
    72 C6     3d2+      -0.0000    0.0000    0.0001   -0.0000   -0.0000   -0.0000    0.0000    0.0000   -0.0000   -0.0002
    73 C19    1s         0.0000    0.0002    0.0000   -0.0000    0.0000    0.0001   -0.0000    0.0059   -0.9999    0.0003
    74 C19    2s         0.0001    0.0012    0.0001   -0.0000   -0.0000    0.0005   -0.0003    0.0002   -0.0018    0.0063
    75 C19    3s         0.0001    0.0008    0.0001    0.0001   -0.0000    0.0002   -0.0003    0.0000    0.0005    0.0058
    76 C19    4s         0.0000    0.0001    0.0000    0.0000   -0.0000   -0.0000   -0.0001    0.0001   -0.0012    0.0026
    77 C19    2px        0.0001    0.0008    0.0002   -0.0003    0.0001    0.0002   -0.0001   -0.0002    0.0001   -0.0011
    78 C19    3px        0.0001    0.0006    0.0002   -0.0002    0.0001    0.0002   -0.0000   -0.0004    0.0001   -0.0015
    79 C19    4px        0.0000   -0.0002   -0.0000   -0.0000   -0.0000    0.0000    0.0000   -0.0001   -0.0002    0.0001
    80 C19    2py        0.0000   -0.0001    0.0001    0.0003   -0.0000    0.0002   -0.0001    0.0004    0.0004    0.0046
    81 C19    3py        0.0000   -0.0002    0.0001    0.0003   -0.0000    0.0001   -0.0001    0.0000   -0.0000    0.0034
    82 C19    4py       -0.0000   -0.0002   -0.0000   -0.0000    0.0000   -0.0001    0.0000   -0.0000   -0.0003   -0.0000
    83 C19    2pz        0.0001   -0.0001   -0.0001    0.0001    0.0000    0.0001    0.0000    0.0002   -0.0002   -0.0020
    84 C19    3pz        0.0001    0.0000   -0.0002    0.0001   -0.0000    0.0001    0.0000    0.0003   -0.0001   -0.0014
    85 C19    4pz       -0.0000    0.0000   -0.0000    0.0000   -0.0000    0.0000   -0.0000    0.0000    0.0001    0.0003
    86 C19    3d2-       0.0000    0.0001    0.0000   -0.0000    0.0000    0.0001   -0.0000   -0.0000    0.0001    0.0002
    87 C19    3d1-      -0.0000   -0.0000   -0.0000   -0.0000   -0.0000   -0.0000    0.0000    0.0000   -0.0000    0.0000
    88 C19    3d0        0.0000   -0.0001   -0.0000   -0.0001   -0.0000   -0.0000    0.0000    0.0001   -0.0001    0.0001
    89 C19    3d1+      -0.0000   -0.0000   -0.0000   -0.0000   -0.0000   -0.0000   -0.0000   -0.0000   -0.0000    0.0002
    90 C19    3d2+      -0.0000    0.0001   -0.0000   -0.0000   -0.0000   -0.0000    0.0000   -0.0001   -0.0001   -0.0002
    91 N2     1s        -0.0000   -0.0000   -0.0000    0.9998    0.0000    0.0001    0.0000   -0.0003   -0.0001   -0.0012
    92 N2     2s        -0.0002   -0.0000    0.0002   -0.0002    0.0002    0.0015    0.0002   -0.0007   -0.0004    0.0250
    93 N2     3s        -0.0000    0.0000    0.0002   -0.0016    0.0001    0.0008    0.0001   -0.0007   -0.0003   -0.0046
    94 N2     4s         0.0000   -0.0000    0.0001    0.0004    0.0000    0.0003    0.0000   -0.0001   -0.0001   -0.0022
    95 N2     2px       -0.0004    0.0001    0.0001    0.0004    0.0001    0.0004   -0.0001   -0.0002    0.0004    0.0093
    96 N2     3px       -0.0005    0.0000    0.0002    0.0002    0.0001    0.0000   -0.0002   -0.0002    0.0004    0.0104
    97 N2     4px        0.0000   -0.0000    0.0001   -0.0001   -0.0000   -0.0001   -0.0000   -0.0003   -0.0001    0.0000
    98 N2     2py        0.0002   -0.0016    0.0004   -0.0007    0.0004    0.0008   -0.0000    0.0006    0.0001   -0.0019
    99 N2     3py        0.0002   -0.0019    0.0005    0.0001    0.0005    0.0007   -0.0001    0.0008    0.0001   -0.0138
   100 N2     4py        0.0000    0.0000    0.0000    0.0006   -0.0000    0.0002   -0.0000    0.0000   -0.0001   -0.0018
   101 N2     2pz       -0.0002    0.0002    0.0002    0.0001   -0.0000   -0.0002   -0.0002   -0.0000    0.0000   -0.0008
   102 N2     3pz       -0.0004    0.0002    0.0002   -0.0002   -0.0001   -0.0002   -0.0004   -0.0002    0.0001    0.0046
   103 N2     4pz       -0.0001    0.0000    0.0000   -0.0001   -0.0000   -0.0000   -0.0001   -0.0000    0.0000    0.0010
   104 N2     3d2-       0.0000    0.0001    0.0000   -0.0002    0.0000   -0.0000    0.0000   -0.0001    0.0000    0.0001
   105 N2     3d1-       0.0000   -0.0000    0.0000    0.0000   -0.0000   -0.0000   -0.0000    0.0000    0.0000   -0.0008
   106 N2     3d0        0.0000   -0.0000   -0.0000    0.0001   -0.0000    0.0001   -0.0000    0.0001    0.0001   -0.0006
   107 N2     3d1+       0.0000   -0.0000    0.0000    0.0000   -0.0000   -0.0000   -0.0000    0.0000    0.0000   -0.0007
   108 N2     3d2+       0.0000   -0.0001    0.0000    0.0000   -0.0000   -0.0000   -0.0000    0.0000   -0.0000   -0.0001
   109 N5     1s         0.0002   -0.0000    0.9999    0.0001   -0.0003   -0.0000    0.0001    0.0000   -0.0001   -0.0185
   110 N5     2s         0.0011   -0.0002    0.0004    0.0000   -0.0003   -0.0001    0.0019    0.0001   -0.0003    0.1114
   111 N5     3s         0.0007   -0.0002   -0.0012    0.0001   -0.0004    0.0000    0.0011    0.0000   -0.0002   -0.0488
   112 N5     4s         0.0002   -0.0001    0.0005    0.0000    0.0000    0.0000    0.0004    0.0000   -0.0000   -0.0113
   113 N5     2px       -0.0003    0.0002   -0.0004    0.0001    0.0001    0.0000   -0.0002    0.0003   -0.0000    0.0176
   114 N5     3px       -0.0003    0.0004   -0.0002    0.0002   -0.0001    0.0000   -0.0002    0.0005   -0.0001    0.0026
   115 N5     4px        0.0000    0.0001   -0.0000    0.0000    0.0000   -0.0000    0.0000    0.0001   -0.0001    0.0013
   116 N5     2py       -0.0014    0.0002   -0.0012    0.0004    0.0001   -0.0001    0.0002    0.0001    0.0000    0.0460
   117 N5     3py       -0.0016    0.0002   -0.0009    0.0005   -0.0002   -0.0000    0.0005    0.0003   -0.0001    0.0021
   118 N5     4py       -0.0000   -0.0000    0.0004    0.0001    0.0000    0.0001    0.0003    0.0001   -0.0001   -0.0015
   119 N5     2pz        0.0008   -0.0002    0.0008   -0.0001    0.0000    0.0002   -0.0012   -0.0002    0.0003   -0.0053
   120 N5     3pz        0.0009   -0.0003    0.0009   -0.0002    0.0002    0.0002   -0.0012   -0.0003    0.0005   -0.0297
   121 N5     4pz       -0.0001   -0.0000    0.0001   -0.0001    0.0004   -0.0001   -0.0002   -0.0001    0.0001    0.0072
   122 N5     3d2-       0.0000   -0.0000    0.0001    0.0000   -0.0000    0.0000   -0.0000   -0.0000   -0.0000    0.0022
   123 N5     3d1-      -0.0001   -0.0000    0.0000    0.0000    0.0001   -0.0000   -0.0000    0.0000    0.0000    0.0049
   124 N5     3d0        0.0001    0.0000   -0.0001   -0.0000   -0.0001    0.0000   -0.0001   -0.0000    0.0000   -0.0008
   125 N5     3d1+      -0.0000   -0.0000   -0.0000    0.0000   -0.0000    0.0000   -0.0000   -0.0000    0.0000    0.0022
   126 N5     3d2+      -0.0000    0.0000   -0.0001    0.0000    0.0001   -0.0000    0.0000   -0.0000    0.0000   -0.0024
   127 O7     1s        -0.0000    0.9997   -0.0000    0.0000    0.0000   -0.0000    0.0000   -0.0002   -0.0001   -0.0011
   128 O7     2s         0.0000   -0.0014   -0.0001    0.0000    0.0001   -0.0001    0.0000    0.0006   -0.0003    0.0139
   129 O7     3s         0.0000   -0.0014   -0.0001   -0.0000    0.0001   -0.0000    0.0000    0.0000   -0.0003   -0.0023
   130 O7     4s         0.0000    0.0001   -0.0000   -0.0001    0.0000    0.0000    0.0000   -0.0000   -0.0001   -0.0006
   131 O7     2px        0.0000    0.0002   -0.0001   -0.0004   -0.0000   -0.0001   -0.0000    0.0004   -0.0001    0.0051
   132 O7     3px        0.0001   -0.0003   -0.0002   -0.0005   -0.0001   -0.0000   -0.0001   -0.0002   -0.0001    0.0029
   133 O7     4px       -0.0000    0.0009   -0.0000   -0.0001   -0.0000   -0.0000   -0.0000   -0.0000    0.0000    0.0014
   134 O7     2py        0.0000   -0.0003    0.0000   -0.0002   -0.0000   -0.0000    0.0001   -0.0008    0.0002   -0.0028
   135 O7     3py        0.0001    0.0004   -0.0000   -0.0002   -0.0001   -0.0000    0.0001   -0.0005    0.0001    0.0013
   136 O7     4py        0.0000   -0.0011   -0.0000    0.0000   -0.0000   -0.0000    0.0000   -0.0003   -0.0000    0.0005
   137 O7     2pz       -0.0000    0.0000    0.0001    0.0000    0.0001    0.0000   -0.0000    0.0003   -0.0000   -0.0020
   138 O7     3pz       -0.0001   -0.0001    0.0001    0.0000    0.0001    0.0000   -0.0000    0.0002   -0.0000   -0.0019
   139 O7     4pz       -0.0000    0.0001    0.0000   -0.0000    0.0001    0.0000    0.0000    0.0001   -0.0000   -0.0007
   140 O7     3d2-       0.0000    0.0001    0.0000    0.0000   -0.0000    0.0000    0.0000   -0.0003    0.0000   -0.0006
   141 O7     3d1-      -0.0000   -0.0000    0.0000   -0.0000    0.0000   -0.0000    0.0000   -0.0000    0.0000   -0.0001
   142 O7     3d0       -0.0000   -0.0000    0.0000   -0.0000    0.0000   -0.0000    0.0000   -0.0001    0.0000   -0.0005
   143 O7     3d1+      -0.0000   -0.0000    0.0000   -0.0000    0.0000   -0.0000    0.0000    0.0000    0.0000   -0.0001
   144 O7     3d2+       0.0000    0.0000   -0.0000   -0.0001    0.0000    0.0000    0.0000   -0.0001    0.0000   -0.0000
   145 O8     1s         0.9997    0.0000    0.0000   -0.0000   -0.0003    0.0001   -0.0000    0.0000   -0.0000   -0.0241
   146 O8     2s        -0.0015    0.0001    0.0002   -0.0001    0.0003    0.0004   -0.0003    0.0002   -0.0000    0.6890
   147 O8     3s        -0.0014    0.0001    0.0001   -0.0000   -0.0000    0.0003   -0.0002    0.0001   -0.0000   -0.0347
   148 O8     4s         0.0001    0.0000    0.0000   -0.0000    0.0000    0.0001   -0.0000    0.0000   -0.0000   -0.0140
   149 O8     2px       -0.0001   -0.0000    0.0000   -0.0000   -0.0000   -0.0000    0.0000    0.0000   -0.0000   -0.0380
   150 O8     3px        0.0001    0.0000    0.0001    0.0000    0.0000    0.0000    0.0000    0.0000   -0.0000    0.0119
   151 O8     4px       -0.0004    0.0000    0.0000    0.0000   -0.0001    0.0000   -0.0000    0.0000   -0.0000   -0.0002
   152 O8     2py       -0.0003   -0.0001    0.0000   -0.0000   -0.0007   -0.0002    0.0001   -0.0001    0.0000   -0.1440
   153 O8     3py        0.0005   -0.0001    0.0001   -0.0001   -0.0002   -0.0002    0.0000   -0.0001    0.0000    0.0434
   154 O8     4py       -0.0013   -0.0000    0.0001   -0.0000   -0.0003    0.0000   -0.0000    0.0000    0.0000    0.0008
   155 O8     2pz       -0.0000    0.0000    0.0003    0.0000   -0.0000   -0.0000    0.0001    0.0000   -0.0000    0.0040
   156 O8     3pz       -0.0001   -0.0000    0.0003    0.0000    0.0002   -0.0001    0.0000   -0.0000   -0.0000   -0.0010
   157 O8     4pz        0.0001   -0.0000   -0.0000    0.0000    0.0001   -0.0000   -0.0000   -0.0000   -0.0000    0.0017
   158 O8     3d2-      -0.0000   -0.0000    0.0000    0.0000    0.0001    0.0000   -0.0000    0.0000    0.0000    0.0099
   159 O8     3d1-      -0.0000   -0.0000   -0.0001   -0.0000    0.0000   -0.0000   -0.0000   -0.0000   -0.0000   -0.0017
   160 O8     3d0        0.0001   -0.0000    0.0000    0.0000   -0.0001    0.0000    0.0000   -0.0000    0.0000   -0.0112
   161 O8     3d1+       0.0000   -0.0000   -0.0000   -0.0000   -0.0000    0.0000   -0.0000   -0.0000    0.0000   -0.0005
   162 O8     3d2+       0.0000   -0.0000   -0.0000    0.0000   -0.0001   -0.0000   -0.0000    0.0000    0.0000   -0.0162
   163 H9     1s         0.0002    0.0002    0.0000    0.0002    0.0000   -0.0001    0.0000    0.0003   -0.0004    0.0015
   164 H9     2s         0.0001    0.0001    0.0000    0.0001    0.0000   -0.0000    0.0000    0.0002    0.0002    0.0012
   165 H9     2px        0.0000   -0.0000   -0.0000    0.0001   -0.0000   -0.0000    0.0000    0.0001    0.0000    0.0002
   166 H9     2py       -0.0000   -0.0001    0.0000   -0.0000    0.0000   -0.0000    0.0000    0.0001   -0.0000    0.0000
   167 H9     2pz        0.0000    0.0000    0.0000   -0.0000    0.0000   -0.0000   -0.0000    0.0001    0.0001    0.0002
   168 H10    1s        -0.0001    0.0002    0.0002    0.0000   -0.0001   -0.0002   -0.0001    0.0000   -0.0003    0.0053
   169 H10    2s        -0.0001    0.0001    0.0001   -0.0000   -0.0000   -0.0001   -0.0001    0.0001    0.0003    0.0036
   170 H10    2px       -0.0000   -0.0000   -0.0000    0.0000   -0.0000   -0.0000   -0.0000    0.0000    0.0000    0.0005
   171 H10    2py       -0.0000   -0.0000   -0.0000   -0.0000   -0.0000   -0.0000   -0.0000    0.0001   -0.0000    0.0001
   172 H10    2pz        0.0000   -0.0000   -0.0000   -0.0000    0.0000    0.0000    0.0000   -0.0001   -0.0001   -0.0005
   173 H11    1s        -0.0000   -0.0004   -0.0001    0.0004   -0.0001    0.0000   -0.0001    0.0004   -0.0002    0.0053
   174 H11    2s        -0.0000   -0.0002   -0.0000    0.0003   -0.0001    0.0000   -0.0001    0.0002    0.0003    0.0033
   175 H11    2px       -0.0000   -0.0000    0.0000   -0.0000    0.0000    0.0000   -0.0000   -0.0000   -0.0001   -0.0006
   176 H11    2py        0.0000   -0.0000   -0.0000   -0.0000   -0.0000    0.0000   -0.0000    0.0001    0.0001    0.0004
   177 H11    2pz       -0.0000   -0.0000   -0.0000   -0.0000   -0.0000   -0.0000    0.0000   -0.0000    0.0000    0.0002
   178 H12    1s         0.0003   -0.0010    0.0006   -0.0006    0.0003   -0.0002   -0.0002    0.0006    0.0002   -0.0039
   179 H12    2s         0.0002   -0.0006    0.0004   -0.0004    0.0002   -0.0001   -0.0001    0.0003    0.0001   -0.0056
   180 H12    2px       -0.0000    0.0000   -0.0000    0.0003   -0.0000    0.0000    0.0000   -0.0001   -0.0000    0.0000
   181 H12    2py        0.0000   -0.0000    0.0000   -0.0004    0.0000   -0.0000   -0.0000    0.0000    0.0000    0.0007
   182 H12    2pz        0.0000    0.0000   -0.0000    0.0001    0.0000    0.0000    0.0000    0.0000   -0.0000   -0.0005
   183 H13    1s         0.0003   -0.0005   -0.0002   -0.0008   -0.0002    0.0011   -0.0001   -0.0007   -0.0003    0.0193
   184 H13    2s         0.0002   -0.0003   -0.0001   -0.0004   -0.0001    0.0002   -0.0001   -0.0004   -0.0002    0.0039
   185 H13    2px       -0.0000    0.0001   -0.0000    0.0000    0.0000    0.0000   -0.0000    0.0000   -0.0000    0.0003
   186 H13    2py       -0.0000    0.0001   -0.0000    0.0001   -0.0000   -0.0001    0.0000    0.0001    0.0000   -0.0001
   187 H13    2pz        0.0000    0.0000   -0.0000   -0.0000   -0.0000   -0.0001    0.0000    0.0000    0.0000   -0.0018
   188 H14    1s        -0.0006    0.0001    0.0005   -0.0001    0.0003    0.0007   -0.0001   -0.0001    0.0002    0.0114
   189 H14    2s        -0.0004    0.0000    0.0003   -0.0000    0.0002    0.0000   -0.0001   -0.0001    0.0002    0.0006
   190 H14    2px        0.0001   -0.0000   -0.0001   -0.0000   -0.0000    0.0000    0.0000   -0.0000    0.0000   -0.0007
   191 H14    2py       -0.0000    0.0000   -0.0000    0.0000    0.0000   -0.0000    0.0000   -0.0000   -0.0000    0.0006
   192 H14    2pz        0.0001   -0.0000   -0.0000   -0.0000   -0.0001   -0.0000    0.0000    0.0000   -0.0000   -0.0016
   193 H15    1s        -0.0015    0.0005   -0.0013    0.0004   -0.0002   -0.0004   -0.0005   -0.0003    0.0004    0.0453
   194 H15    2s        -0.0009    0.0003   -0.0009    0.0003   -0.0003   -0.0002   -0.0002   -0.0002    0.0003    0.0023
   195 H15    2px       -0.0001    0.0000   -0.0002    0.0000    0.0001   -0.0000   -0.0000   -0.0000    0.0000    0.0022
   196 H15    2py       -0.0001    0.0000   -0.0005    0.0001    0.0001   -0.0000   -0.0001   -0.0000    0.0001    0.0062
   197 H15    2pz        0.0000   -0.0000    0.0001    0.0001    0.0001    0.0000   -0.0000    0.0000    0.0000   -0.0005
   198 H16    1s        -0.0002    0.0001   -0.0003    0.0001   -0.0002    0.0001    0.0011    0.0001   -0.0001    0.0118
   199 H16    2s        -0.0001    0.0001   -0.0001    0.0000   -0.0000    0.0001    0.0002    0.0001   -0.0001   -0.0030
   200 H16    2px       -0.0000    0.0000   -0.0000   -0.0000    0.0000   -0.0000   -0.0000   -0.0000   -0.0000    0.0002
   201 H16    2py        0.0000   -0.0000    0.0000   -0.0000    0.0001   -0.0000   -0.0001   -0.0000    0.0000   -0.0007
   202 H16    2pz       -0.0000   -0.0000    0.0000   -0.0000    0.0000    0.0000    0.0000   -0.0000    0.0000    0.0009
   203 H17    1s         0.0003    0.0000   -0.0005   -0.0000   -0.0004    0.0001    0.0006   -0.0002    0.0000    0.0103
   204 H17    2s         0.0002   -0.0000   -0.0002   -0.0000   -0.0003    0.0000   -0.0001   -0.0002    0.0000    0.0021
   205 H17    2px       -0.0000    0.0000   -0.0000    0.0000    0.0000   -0.0000    0.0000    0.0000    0.0000   -0.0005
   206 H17    2py        0.0000    0.0000   -0.0000    0.0000   -0.0000    0.0000   -0.0000   -0.0000   -0.0000    0.0006
   207 H17    2pz        0.0000    0.0000   -0.0001    0.0000   -0.0000    0.0000    0.0000   -0.0000   -0.0000    0.0011
   208 H18    1s         0.0004   -0.0003   -0.0004   -0.0000   -0.0003    0.0000    0.0006   -0.0001    0.0000    0.0056
   209 H18    2s         0.0003   -0.0001   -0.0002   -0.0000   -0.0003    0.0000   -0.0001   -0.0001    0.0000   -0.0012
   210 H18    2px        0.0000   -0.0000   -0.0000    0.0000   -0.0001    0.0000    0.0000   -0.0000    0.0000    0.0006
   211 H18    2py       -0.0000   -0.0000    0.0000    0.0000   -0.0000    0.0000   -0.0000    0.0000   -0.0000   -0.0004
   212 H18    2pz        0.0000   -0.0000   -0.0001    0.0000   -0.0000   -0.0000    0.0001    0.0000   -0.0000    0.0006
 
 
      Orbital                11        12        13        14        15        16        17        18        19        20
      Energy            -1.3549   -1.2634   -1.2176   -1.0152   -0.9703   -0.9285   -0.8177   -0.7811   -0.7198   -0.6952
      Occ. No.           2.0000    2.0000    2.0000    2.0000    2.0000    2.0000    2.0000    2.0000    2.0000    2.0000
 
     1 C1     1s        -0.0399    0.0033    0.0041   -0.0138   -0.0083    0.0027    0.0058    0.0138   -0.0015   -0.0032
     2 C1     2s         0.3633    0.0071   -0.0781    0.1900    0.1716    0.0141   -0.0973   -0.3686    0.0132    0.0791
     3 C1     3s        -0.0068    0.0139   -0.0002   -0.0190   -0.0058    0.0073    0.0061   -0.0023   -0.0083   -0.0031
     4 C1     4s         0.0015    0.0041    0.0008   -0.0064   -0.0021    0.0025    0.0027    0.0022   -0.0018   -0.0020
     5 C1     2px       -0.0490    0.0394   -0.1243    0.0405   -0.0392   -0.1084   -0.0654   -0.1603    0.0013   -0.0047
     6 C1     3px        0.0116   -0.0050    0.0636   -0.0457   -0.0227    0.0090    0.0106    0.0342   -0.0136    0.0115
     7 C1     4px       -0.0162    0.0077   -0.0221   -0.0019   -0.0108   -0.0160   -0.0052   -0.0113   -0.0018    0.0012
     8 C1     2py        0.0910    0.0004    0.0385   -0.1096   -0.1226   -0.0366   -0.0011   -0.0205    0.0602   -0.0373
     9 C1     3py       -0.0675    0.0317   -0.0414   -0.0107    0.0169    0.0661    0.0007    0.0133   -0.0215    0.0166
    10 C1     4py        0.0203    0.0013    0.0063   -0.0194   -0.0214   -0.0010   -0.0010   -0.0026    0.0024    0.0005
    11 C1     2pz       -0.0037   -0.0040   -0.0067    0.0175    0.0237    0.0131    0.0023    0.0107    0.0074    0.0128
    12 C1     3pz        0.0134   -0.0072   -0.0032    0.0014    0.0091    0.0003   -0.0005   -0.0044    0.0032   -0.0032
    13 C1     4pz       -0.0003   -0.0020   -0.0021    0.0032    0.0057    0.0033   -0.0009    0.0001    0.0037    0.0024
    14 C1     3d2-      -0.0311    0.0065   -0.0178    0.0047    0.0078    0.0081   -0.0002   -0.0135    0.0133   -0.0058
    15 C1     3d1-      -0.0058    0.0006   -0.0020   -0.0009   -0.0025   -0.0019    0.0005    0.0020   -0.0006   -0.0006
    16 C1     3d0       -0.0270    0.0008    0.0029   -0.0086   -0.0051    0.0024    0.0046    0.0126   -0.0009   -0.0025
    17 C1     3d1+       0.0026   -0.0016    0.0027   -0.0011   -0.0018   -0.0005    0.0004    0.0047    0.0013    0.0037
    18 C1     3d2+      -0.0054    0.0060   -0.0246    0.0075   -0.0064   -0.0161   -0.0064   -0.0120    0.0004   -0.0014
    19 C3     1s        -0.0113   -0.0098    0.0325    0.0368    0.0086   -0.0264   -0.0065    0.0013   -0.0055   -0.0059
    20 C3     2s         0.0334    0.0674   -0.1768   -0.3126   -0.0770    0.3699    0.1053   -0.0590    0.0948    0.0400
    21 C3     3s        -0.0223   -0.0162    0.0622    0.0658    0.0152   -0.0275   -0.0066    0.0049   -0.0064   -0.0205
    22 C3     4s        -0.0036   -0.0021    0.0147    0.0170    0.0046   -0.0085   -0.0027    0.0026   -0.0020   -0.0055
    23 C3     2px       -0.0288   -0.0032    0.0349   -0.0331   -0.0098    0.0515    0.0244    0.0749   -0.0924    0.1101
    24 C3     3px       -0.0086    0.0212   -0.0219   -0.0340   -0.0324    0.0186    0.0036   -0.0096    0.0152   -0.0137
    25 C3     4px       -0.0031    0.0056   -0.0023   -0.0115   -0.0077    0.0118    0.0024    0.0044   -0.0029    0.0037
    26 C3     2py       -0.0216   -0.0294    0.1034   -0.0136    0.0119    0.0612   -0.0534   -0.1812   -0.1369    0.1201
    27 C3     3py        0.0064    0.0111    0.0035    0.0183   -0.0496   -0.0080   -0.0057   -0.0047    0.0294   -0.0288
    28 C3     4py       -0.0034    0.0080    0.0075   -0.0082   -0.0054    0.0129   -0.0052   -0.0125    0.0021    0.0011
    29 C3     2pz        0.0062   -0.0258   -0.0195    0.0511   -0.0350   -0.0070    0.0795    0.0384    0.2173    0.1666
    30 C3     3pz        0.0096   -0.0001   -0.0223   -0.0218    0.0210    0.0139   -0.0038   -0.0072   -0.0304   -0.0115
    31 C3     4pz        0.0034    0.0002   -0.0100   -0.0078   -0.0039    0.0144    0.0093   -0.0012    0.0060    0.0058
    32 C3     3d2-       0.0052    0.0041   -0.0165    0.0017   -0.0050   -0.0057    0.0008   -0.0006    0.0123   -0.0153
    33 C3     3d1-      -0.0007    0.0005    0.0044    0.0063   -0.0016   -0.0037    0.0043   -0.0006    0.0154    0.0028
    34 C3     3d0       -0.0022    0.0024    0.0089   -0.0078    0.0103    0.0037   -0.0108   -0.0118   -0.0199   -0.0062
    35 C3     3d1+      -0.0006    0.0018    0.0014   -0.0021    0.0016    0.0003   -0.0000    0.0032   -0.0033   -0.0046
    36 C3     3d2+      -0.0024   -0.0010    0.0130    0.0004    0.0051    0.0022   -0.0034   -0.0111    0.0010    0.0079
    37 C4     1s         0.0023   -0.0067   -0.0051    0.0136   -0.0090   -0.0005    0.0172    0.0003    0.0057   -0.0005
    38 C4     2s         0.0135    0.1475   -0.0290   -0.2488    0.1653    0.0720   -0.3602   -0.0073   -0.2398   -0.0071
    39 C4     3s         0.0105    0.0093   -0.0198    0.0162   -0.0028    0.0030    0.0207    0.0062    0.0068   -0.0098
    40 C4     4s         0.0031    0.0028   -0.0047    0.0063   -0.0013    0.0004    0.0066    0.0028    0.0038   -0.0004
    41 C4     2px        0.0023   -0.0548   -0.0090    0.0151   -0.0075    0.0206    0.0146   -0.0173   -0.0551    0.0736
    42 C4     3px        0.0112    0.0077    0.0008   -0.0041    0.0279   -0.0091   -0.0107   -0.0011    0.0217   -0.0180
    43 C4     4px        0.0014   -0.0100   -0.0034    0.0005    0.0012    0.0021    0.0020   -0.0012   -0.0032    0.0063
    44 C4     2py       -0.0177   -0.1177    0.0016    0.1062   -0.0772    0.0089    0.0367    0.0000   -0.0486    0.2372
    45 C4     3py        0.0020    0.0619    0.0060   -0.0371    0.0056    0.0255   -0.0055    0.0006    0.0174   -0.0716
    46 C4     4py       -0.0049   -0.0215   -0.0011    0.0086   -0.0097    0.0034    0.0012   -0.0003   -0.0077    0.0157
    47 C4     2pz        0.0035   -0.1095   -0.0745   -0.0893    0.0043    0.0973    0.1285   -0.1099   -0.1951    0.0329
    48 C4     3pz       -0.0041   -0.0350   -0.0091   -0.0109    0.0904   -0.1006   -0.0223    0.0676    0.0736    0.0281
    49 C4     4pz       -0.0001   -0.0271   -0.0106   -0.0118    0.0100   -0.0022    0.0105   -0.0005   -0.0050    0.0098
    50 C4     3d2-      -0.0007   -0.0003    0.0012   -0.0014    0.0053   -0.0050   -0.0035   -0.0007   -0.0049    0.0003
    51 C4     3d1-      -0.0001    0.0201    0.0100    0.0009    0.0130   -0.0168   -0.0061    0.0067    0.0128   -0.0068
    52 C4     3d0        0.0019    0.0200    0.0021   -0.0132    0.0025    0.0107   -0.0183   -0.0002    0.0144   -0.0005
    53 C4     3d1+      -0.0003    0.0101    0.0043   -0.0042    0.0055   -0.0017   -0.0057    0.0043    0.0009   -0.0006
    54 C4     3d2+       0.0015    0.0055    0.0016    0.0037   -0.0054    0.0033    0.0038   -0.0001    0.0119   -0.0006
    55 C6     1s         0.0031   -0.0299   -0.0155   -0.0316    0.0387   -0.0231    0.0069    0.0015    0.0080    0.0063
    56 C6     2s         0.0274    0.1628    0.0383    0.2387   -0.3183    0.2693   -0.1000   -0.0209   -0.0555   -0.0836
    57 C6     3s         0.0180   -0.0429   -0.0383   -0.0505    0.0667   -0.0269    0.0151    0.0040    0.0235    0.0190
    58 C6     4s         0.0048   -0.0060   -0.0083   -0.0102    0.0148   -0.0055    0.0050    0.0013    0.0058    0.0067
    59 C6     2px        0.0068    0.0090    0.0033    0.0102    0.0014    0.0017   -0.0368    0.0234    0.0679    0.0346
    60 C6     3px        0.0063   -0.0037   -0.0027    0.0038    0.0025    0.0028   -0.0026   -0.0018   -0.0034   -0.0043
    61 C6     4px       -0.0005   -0.0002   -0.0009   -0.0022    0.0015   -0.0019   -0.0015    0.0023    0.0023    0.0025
    62 C6     2py       -0.0021   -0.0340   -0.0066   -0.0162    0.0099    0.0062   -0.1391    0.0407    0.0655   -0.1262
    63 C6     3py       -0.0005    0.0039    0.0055    0.0006    0.0055   -0.0074    0.0048   -0.0035   -0.0030    0.0188
    64 C6     4py        0.0003   -0.0025   -0.0012    0.0036   -0.0043    0.0037   -0.0108    0.0033    0.0032   -0.0036
    65 C6     2pz        0.0080    0.1007    0.0274    0.0251    0.0125   -0.0330    0.0461    0.0359    0.1917    0.2739
    66 C6     3pz        0.0061   -0.0146   -0.0157   -0.0157    0.0201    0.0020    0.0020   -0.0033   -0.0290   -0.0424
    67 C6     4pz        0.0008    0.0001   -0.0021   -0.0116    0.0182   -0.0128    0.0062    0.0028    0.0091    0.0143
    68 C6     3d2-      -0.0003   -0.0013   -0.0002    0.0000   -0.0005    0.0005   -0.0040    0.0015    0.0034   -0.0030
    69 C6     3d1-      -0.0003   -0.0139   -0.0044   -0.0050    0.0019    0.0026   -0.0167    0.0020   -0.0064   -0.0223
    70 C6     3d0        0.0003    0.0183    0.0066    0.0052   -0.0008   -0.0041    0.0030    0.0045    0.0186    0.0276
    71 C6     3d1+       0.0000    0.0034    0.0014    0.0009   -0.0005   -0.0007   -0.0044    0.0024    0.0078    0.0051
    72 C6     3d2+      -0.0002   -0.0018   -0.0011   -0.0029    0.0017   -0.0004   -0.0014   -0.0009   -0.0059   -0.0048
    73 C19    1s        -0.0148   -0.0008    0.0060   -0.0330   -0.0514   -0.0376   -0.0094   -0.0117   -0.0029    0.0043
    74 C19    2s        -0.0057   -0.0038   -0.0066    0.1609    0.3016    0.2893    0.0418    0.0904    0.0451   -0.0354
    75 C19    3s        -0.0399    0.0005    0.0180   -0.0694   -0.0996   -0.0592   -0.0230   -0.0267   -0.0045    0.0084
    76 C19    4s        -0.0046    0.0018    0.0029   -0.0152   -0.0221   -0.0135   -0.0052   -0.0078   -0.0022    0.0022
    77 C19    2px       -0.0083    0.0061   -0.0227    0.0414    0.0291   -0.0036   -0.0207   -0.0525   -0.0415    0.0378
    78 C19    3px       -0.0058    0.0021   -0.0002    0.0063   -0.0002    0.0008    0.0050    0.0037    0.0039   -0.0073
    79 C19    4px        0.0077    0.0001    0.0001   -0.0023   -0.0095   -0.0117   -0.0024   -0.0027   -0.0048    0.0028
    80 C19    2py        0.0190    0.0044   -0.0007    0.0301    0.0251   -0.0018   -0.0262   -0.0715   -0.0380    0.0663
    81 C19    3py       -0.0108    0.0055    0.0078   -0.0184   -0.0284   -0.0174    0.0013    0.0109   -0.0030   -0.0071
    82 C19    4py        0.0047   -0.0000    0.0005   -0.0064   -0.0147   -0.0155   -0.0041   -0.0124   -0.0009    0.0027
    83 C19    2pz       -0.0077   -0.0052    0.0065   -0.0087   -0.0115   -0.0093   -0.0017    0.0162    0.0166   -0.0033
    84 C19    3pz       -0.0044   -0.0062    0.0041   -0.0008   -0.0031   -0.0060   -0.0070    0.0038    0.0017    0.0055
    85 C19    4pz       -0.0012   -0.0011   -0.0006    0.0017    0.0022    0.0031   -0.0012    0.0032    0.0012    0.0001
    86 C19    3d2-       0.0006    0.0013   -0.0055    0.0075    0.0065    0.0006   -0.0028   -0.0082   -0.0020    0.0043
    87 C19    3d1-      -0.0007   -0.0000   -0.0001   -0.0018   -0.0024   -0.0010    0.0003    0.0016    0.0016   -0.0013
    88 C19    3d0        0.0014   -0.0001    0.0005   -0.0053   -0.0064   -0.0027    0.0012    0.0039    0.0037   -0.0036
    89 C19    3d1+       0.0009   -0.0001    0.0007   -0.0012   -0.0009    0.0003    0.0007    0.0015    0.0004   -0.0011
    90 C19    3d2+      -0.0066    0.0010   -0.0027   -0.0043   -0.0063   -0.0034    0.0007    0.0035    0.0021   -0.0042
    91 N2     1s        -0.0193   -0.0097    0.0358   -0.0070    0.0008    0.0048   -0.0007   -0.0053    0.0019   -0.0019
    92 N2     2s         0.1713    0.1177   -0.5760    0.1203   -0.1178   -0.2053   -0.0254    0.0993    0.0093   -0.0539
    93 N2     3s        -0.0460   -0.0198    0.0573   -0.0097   -0.0063   -0.0013   -0.0034   -0.0100    0.0046   -0.0103
    94 N2     4s        -0.0121   -0.0065    0.0215   -0.0028    0.0009    0.0019   -0.0009   -0.0030    0.0000   -0.0015
    95 N2     2px       -0.0289    0.0044    0.0114   -0.0995   -0.0730    0.0587    0.1073    0.4059   -0.0497   -0.0152
    96 N2     3px        0.0253    0.0001    0.0041    0.0325   -0.0033   -0.0340   -0.0402   -0.1054   -0.0001    0.0008
    97 N2     4px       -0.0034    0.0026   -0.0047   -0.0010   -0.0070   -0.0044   -0.0019   -0.0002   -0.0037    0.0005
    98 N2     2py        0.0301    0.0012    0.0115   -0.1107   -0.0638    0.0760    0.0479   -0.1340    0.3093   -0.1461
    99 N2     3py        0.0034   -0.0201    0.0575    0.0497   -0.0051   -0.0668   -0.0215    0.0165   -0.0604    0.0198
   100 N2     4py       -0.0078   -0.0033    0.0146   -0.0010   -0.0016   -0.0045   -0.0051   -0.0089   -0.0005   -0.0002
   101 N2     2pz        0.0056   -0.0002   -0.0118    0.0430   -0.0114   -0.0023   -0.0133    0.0343    0.0464    0.0884
   102 N2     3pz        0.0065    0.0126   -0.0104    0.0092   -0.0090    0.0225   -0.0050   -0.0046    0.0002   -0.0208
   103 N2     4pz        0.0036    0.0024   -0.0055    0.0046   -0.0025    0.0034   -0.0007    0.0013   -0.0021   -0.0036
   104 N2     3d2-      -0.0018    0.0023   -0.0074   -0.0031    0.0013    0.0085    0.0034   -0.0058    0.0130   -0.0047
   105 N2     3d1-       0.0000   -0.0009    0.0032    0.0010   -0.0002    0.0009    0.0006   -0.0025    0.0051    0.0037
   106 N2     3d0       -0.0037   -0.0023    0.0143   -0.0013    0.0028    0.0027    0.0014    0.0003   -0.0024   -0.0010
   107 N2     3d1+      -0.0001   -0.0003    0.0012    0.0001   -0.0011   -0.0006    0.0009    0.0030   -0.0002    0.0020
   108 N2     3d2+       0.0048    0.0003   -0.0022    0.0095    0.0031   -0.0082   -0.0074   -0.0190   -0.0022    0.0036
   109 N5     1s        -0.0030   -0.0416   -0.0092   -0.0024   -0.0029    0.0005   -0.0027    0.0002    0.0037    0.0018
   110 N5     2s         0.0080    0.5614    0.1829   -0.0150    0.1231   -0.1858    0.1671    0.0156    0.1416    0.1250
   111 N5     3s        -0.0075   -0.0820   -0.0159   -0.0163    0.0056   -0.0131   -0.0004    0.0012    0.0182    0.0097
   112 N5     4s        -0.0012   -0.0261   -0.0068   -0.0049    0.0012   -0.0008   -0.0017   -0.0002    0.0014    0.0007
   113 N5     2px       -0.0060    0.0056   -0.0050   -0.0362    0.0284   -0.0037   -0.1440    0.0570    0.0704   -0.0380
   114 N5     3px       -0.0105    0.0032   -0.0048   -0.0048   -0.0120    0.0001    0.0410   -0.0007   -0.0172    0.0102
   115 N5     4px       -0.0028   -0.0020   -0.0011   -0.0048   -0.0021    0.0003   -0.0006    0.0013   -0.0015    0.0013
   116 N5     2py       -0.0083    0.0030    0.0074    0.0096   -0.0020    0.0229   -0.3812    0.1580    0.2667    0.0880
   117 N5     3py       -0.0118   -0.0463   -0.0114   -0.0158    0.0307   -0.0412    0.0796   -0.0128   -0.0485    0.0075
   118 N5     4py       -0.0035   -0.0123   -0.0002   -0.0068    0.0013   -0.0046   -0.0074    0.0010   -0.0001    0.0016
   119 N5     2pz        0.0239    0.0333   -0.0322   -0.1545    0.1781   -0.0721   -0.1392    0.0262   -0.0614   -0.3627
   120 N5     3pz        0.0332    0.0270   -0.0241    0.0693   -0.0739    0.0804    0.0363   -0.0104    0.0317    0.0562
   121 N5     4pz        0.0062    0.0043   -0.0061    0.0010   -0.0000    0.0083    0.0026   -0.0006    0.0021    0.0065
   122 N5     3d2-      -0.0000    0.0061    0.0022   -0.0022    0.0039   -0.0049    0.0026   -0.0005   -0.0022   -0.0033
   123 N5     3d1-       0.0004    0.0030   -0.0000   -0.0086    0.0113   -0.0050   -0.0184    0.0054    0.0014   -0.0128
   124 N5     3d0        0.0010    0.0146    0.0030    0.0014   -0.0035    0.0055   -0.0068    0.0013    0.0059    0.0027
   125 N5     3d1+       0.0002    0.0073    0.0019   -0.0010    0.0016   -0.0000   -0.0059    0.0023    0.0021   -0.0009
   126 N5     3d2+       0.0001   -0.0078   -0.0032   -0.0003   -0.0022    0.0054   -0.0044    0.0003   -0.0002    0.0003
   127 O7     1s        -0.0238    0.0023   -0.0054   -0.0015   -0.0028   -0.0014    0.0018    0.0100   -0.0032   -0.0021
   128 O7     2s         0.6613   -0.1154    0.3265   -0.1510   -0.1425   -0.0392    0.0595    0.3022   -0.0919   -0.0319
   129 O7     3s        -0.0286   -0.0001    0.0036   -0.0119   -0.0146   -0.0068    0.0065    0.0364   -0.0115   -0.0065
   130 O7     4s        -0.0120    0.0009   -0.0018   -0.0019   -0.0025   -0.0017    0.0011    0.0071   -0.0025   -0.0013
   131 O7     2px        0.0930   -0.0047    0.0042   -0.0006   -0.0144   -0.0248   -0.0333   -0.1444    0.0572    0.0020
   132 O7     3px       -0.0234    0.0064   -0.0095   -0.0081   -0.0054    0.0070    0.0029    0.0201   -0.0081    0.0001
   133 O7     4px       -0.0006    0.0014   -0.0018   -0.0017   -0.0003    0.0029    0.0003    0.0022   -0.0005    0.0001
   134 O7     2py       -0.1076    0.0200   -0.0528   -0.0097   -0.0219   -0.0208    0.0097    0.0815   -0.0388   -0.0308
   135 O7     3py        0.0378   -0.0005   -0.0002    0.0048    0.0086    0.0033   -0.0023   -0.0173    0.0031    0.0033
   136 O7     4py        0.0005    0.0009    0.0002   -0.0017   -0.0002    0.0018    0.0003   -0.0016    0.0006    0.0001
   137 O7     2pz        0.0142   -0.0038    0.0073    0.0083    0.0021   -0.0001    0.0033   -0.0091    0.0101    0.0018
   138 O7     3pz       -0.0041   -0.0008    0.0015    0.0018   -0.0034   -0.0033    0.0012    0.0003   -0.0007   -0.0011
   139 O7     4pz        0.0002   -0.0003    0.0004    0.0007   -0.0006   -0.0012    0.0004   -0.0002   -0.0004   -0.0001
   140 O7     3d2-      -0.0175    0.0022   -0.0051    0.0007    0.0016    0.0017    0.0018    0.0084   -0.0033   -0.0008
   141 O7     3d1-      -0.0024    0.0004   -0.0015    0.0001   -0.0002   -0.0006   -0.0001   -0.0001   -0.0008   -0.0004
   142 O7     3d0       -0.0101    0.0014   -0.0046    0.0018    0.0012   -0.0005    0.0004    0.0028   -0.0017   -0.0004
   143 O7     3d1+       0.0019   -0.0006    0.0004    0.0003   -0.0001   -0.0001   -0.0001   -0.0009    0.0009    0.0004
   144 O7     3d2+      -0.0042    0.0014   -0.0047   -0.0002   -0.0030   -0.0042   -0.0015   -0.0034    0.0009   -0.0016
   145 O8     1s         0.0007    0.0028    0.0004    0.0032   -0.0024   -0.0027    0.0135    0.0005    0.0141   -0.0160
   146 O8     2s        -0.0521   -0.3087   -0.0157    0.1824   -0.0864   -0.0988    0.3474    0.0059    0.2352   -0.2702
   147 O8     3s        -0.0010   -0.0089   -0.0002    0.0148   -0.0082   -0.0112    0.0429    0.0021    0.0402   -0.0453
   148 O8     4s         0.0002    0.0001   -0.0003    0.0022   -0.0009   -0.0024    0.0082    0.0006    0.0081   -0.0097
   149 O8     2px        0.0026    0.0081   -0.0022    0.0022   -0.0077    0.0000    0.0642   -0.0131    0.0561   -0.1018
   150 O8     3px       -0.0014   -0.0009    0.0012    0.0006    0.0005   -0.0017   -0.0090    0.0030   -0.0055    0.0091
   151 O8     4px       -0.0006   -0.0009    0.0009    0.0012    0.0001   -0.0013   -0.0009    0.0010   -0.0005    0.0013
   152 O8     2py        0.0107    0.0337   -0.0004    0.0306   -0.0229   -0.0239    0.2172   -0.0002    0.2484   -0.3447
   153 O8     3py        0.0009   -0.0027   -0.0015   -0.0094    0.0096    0.0030   -0.0334    0.0005   -0.0282    0.0348
   154 O8     4py        0.0002   -0.0020   -0.0004   -0.0001    0.0007   -0.0002   -0.0034    0.0003   -0.0032    0.0050
   155 O8     2pz        0.0005   -0.0177   -0.0120   -0.0197   -0.0137    0.0450    0.0356   -0.0512   -0.1091    0.0369
[...]
AIVX     1  Mu1.0001  In1.023 Se1.047               0.27861958      0.00024860     -0.00046379     -0.00000012
AIVX     1  Mu1.0001  In1.024 Se1.047               0.25841084      0.00012658     -0.00029222     -0.00000004
AIVX     1  Mu1.0001  In1.025 Se1.047               0.24253124      0.00105373     -0.00172496     -0.00000182
AIVX     1  Mu1.0001  In1.026 Se1.047               0.16213086     -0.00041685      0.00095762     -0.00000040
AIVX     1  Mu1.0001  In1.027 Se1.047               0.08071620      0.00150728     -0.00307355     -0.00000463
AIVX     1  Mu1.0001  In1.028 Se1.047               0.11615639      0.00099569     -0.00259446     -0.00000258
AIVX     1  Mu1.0001  In1.029 Se1.047               0.10266741      0.00063070     -0.00128200     -0.00000081
AIVX     1  Mu1.0001  In1.022 Se1.048               0.23563528      0.00138205     -0.00339500     -0.00000469
AIVX     1  Mu1.0001  In1.023 Se1.048               0.29150954      0.00046606     -0.00072827     -0.00000034
AIVX     1  Mu1.0001  In1.024 Se1.048               0.27130081      0.00054732      0.00000920      0.00000001
AIVX     1  Mu1.0001  In1.025 Se1.048               0.25542120     -0.00119891      0.00192724     -0.00000231
AIVX     1  Mu1.0001  In1.026 Se1.048               0.17502082     -0.00086920      0.00167064     -0.00000145
AIVX     1  Mu1.0001  In1.027 Se1.048               0.09360616      0.00054321     -0.00221188     -0.00000120
AIVX     1  Mu1.0001  In1.028 Se1.048               0.12904635      0.00006452      0.00011587      0.00000001
AIVX     1  Mu1.0001  In1.029 Se1.048               0.11555737     -0.00053792      0.00044162     -0.00000024
AIVX     1  Mu1.0001  In1.022 Se1.049               0.24714082     -0.00012743      0.00026641     -0.00000003
AIVX     1  Mu1.0001  In1.024 Se1.049               0.28280635     -0.00041381      0.00081663     -0.00000034
AIVX     1  Mu1.0001  In1.025 Se1.049               0.26692675      0.00016705     -0.00036603     -0.00000006
AIVX     1  Mu1.0001  In1.026 Se1.049               0.18652636      0.00310702     -0.00577603     -0.00001795
AIVX     1  Mu1.0001  In1.027 Se1.049               0.10511170     -0.00166105      0.00341821     -0.00000568
AIVX     1  Mu1.0001  In1.028 Se1.049               0.14055190      0.00028240     -0.00097775     -0.00000028
AIVX     1  Mu1.0001  In1.029 Se1.049               0.12706292     -0.00056608      0.00128745     -0.00000073
AIVX     1  Mu1.0001  In1.022 Se1.050               0.25441729     -0.00057779      0.00154180     -0.00000089
AIVX     1  Mu1.0001  In1.024 Se1.050               0.29008282     -0.00134912      0.00146120     -0.00000197
AIVX     1  Mu1.0001  In1.025 Se1.050               0.27420322      0.00321111     -0.00507740     -0.00001630
AIVX     1  Mu1.0001  In1.026 Se1.050               0.19380283      0.00318564     -0.00566141     -0.00001804
AIVX     1  Mu1.0001  In1.027 Se1.050               0.11238817     -0.00116549      0.00294320     -0.00000343
AIVX     1  Mu1.0001  In1.028 Se1.050               0.14782837     -0.00052044      0.00119173     -0.00000062
AIVX     1  Mu1.0001  In1.029 Se1.050               0.13433939      0.00139977     -0.00240273     -0.00000336
AIVX     1  Mu1.0001  In1.022 Se1.051               0.26292924      0.00126372     -0.00225533     -0.00000285
AIVX     1  Mu1.0001  In1.024 Se1.051               0.29859477      0.00133589     -0.00204195     -0.00000273
AIVX     1  Mu1.0001  In1.025 Se1.051               0.28271517     -0.00086749      0.00163804     -0.00000142
AIVX     1  Mu1.0001  In1.026 Se1.051               0.20231479      0.00089514     -0.00152875     -0.00000137
AIVX     1  Mu1.0001  In1.027 Se1.051               0.12090013     -0.00038534      0.00065752     -0.00000025
AIVX     1  Mu1.0001  In1.028 Se1.051               0.15634032     -0.00159798      0.00422430     -0.00000675
AIVX     1  Mu1.0001  In1.029 Se1.051               0.14285134      0.00041832     -0.00097794     -0.00000041
AIVX     1  Mu1.0001  In1.022 Se1.052               0.28895854      0.00247887     -0.00422811     -0.00001048
AIVX     1  Mu1.0001  In1.026 Se1.052               0.22834408     -0.00115668      0.00178797     -0.00000207
AIVX     1  Mu1.0001  In1.027 Se1.052               0.14692942     -0.00068246      0.00093981     -0.00000064
AIVX     1  Mu1.0001  In1.028 Se1.052               0.18236962      0.00047906     -0.00066719     -0.00000032
AIVX     1  Mu1.0001  In1.029 Se1.052               0.16888064     -0.00170156      0.00309833     -0.00000527
AIVX     1  Mu1.0001  In1.026 Se1.053               0.24859565     -0.00210911      0.00318440     -0.00000672
AIVX     1  Mu1.0001  In1.027 Se1.053               0.16718099      0.00224766     -0.00395405     -0.00000889
AIVX     1  Mu1.0001  In1.028 Se1.053               0.20262119     -0.00023344      0.00063096     -0.00000015
AIVX     1  Mu1.0001  In1.029 Se1.053               0.18913221     -0.00181712      0.00345019     -0.00000627
AIVX     1  Mu1.0001  In1.026 Se1.054               0.25956051      0.00033619     -0.00056123     -0.00000019
AIVX     1  Mu1.0001  In1.027 Se1.054               0.17814585      0.00101859     -0.00167728     -0.00000171
AIVX     1  Mu1.0001  In1.028 Se1.054               0.21358604     -0.00028892      0.00046679     -0.00000013
AIVX     1  Mu1.0001  In1.029 Se1.054               0.20009706     -0.00057365      0.00103221     -0.00000059
AIVX     1  Mu1.0001  In1.026 Se1.055               0.27278802     -0.00092988      0.00059578     -0.00000055
AIVX     1  Mu1.0001  In1.027 Se1.055               0.19137336     -0.00042465      0.00046394     -0.00000020
AIVX     1  Mu1.0001  In1.028 Se1.055               0.22681356      0.00055102     -0.00115834     -0.00000064
AIVX     1  Mu1.0001  In1.029 Se1.055               0.21332457     -0.00200278      0.00311277     -0.00000623
AIVX     1  Mu1.0001  In1.026 Se1.056               0.28684003      0.00099906     -0.00165205     -0.00000165
AIVX     1  Mu1.0001  In1.027 Se1.056               0.20542538      0.00006257      0.00049122      0.00000003
AIVX     1  Mu1.0001  In1.028 Se1.056               0.24086557     -0.00251045      0.00493978     -0.00001240
AIVX     1  Mu1.0001  In1.029 Se1.056               0.22737659     -0.00038794      0.00116660     -0.00000045
AIVX     1  Mu1.0001  In1.027 Se1.057               0.22784135     -0.00149833      0.00226226     -0.00000339
AIVX     1  Mu1.0001  In1.028 Se1.057               0.26328155     -0.00109753      0.00210380     -0.00000231
AIVX     1  Mu1.0001  In1.029 Se1.057               0.24979256     -0.00088807      0.00117387     -0.00000104
AIVX     1  Mu1.0001  In1.027 Se1.058               0.27597315     -0.00129522      0.00183065     -0.00000237
AIVX     1  Mu1.0001  In1.029 Se1.058               0.29792436      0.00101288     -0.00173772     -0.00000176
AIVX     1  Mu1.0001  In1.027 Se1.059               0.25251374      0.00121141     -0.00141004     -0.00000171
AIVX     1  Mu1.0001  In1.028 Se1.059               0.28795394      0.00040131     -0.00098515     -0.00000040
AIVX     1  Mu1.0001  In1.029 Se1.059               0.27446496      0.00053109     -0.00044413     -0.00000024
AIVX     1  Mu1.0001  In1.027 Se1.060               0.22373793     -0.00108619      0.00182080     -0.00000198
AIVX     1  Mu1.0001  In1.028 Se1.060               0.25917813     -0.00046733      0.00068617     -0.00000032
AIVX     1  Mu1.0001  In1.029 Se1.060               0.24568915      0.00208484     -0.00359828     -0.00000750
AIVX     1  Mu1.0001  In1.027 Se1.061               0.24777636      0.00069212     -0.00102118     -0.00000071
AIVX     1  Mu1.0001  In1.028 Se1.061               0.28321656      0.00114221     -0.00218081     -0.00000249
AIVX     1  Mu1.0001  In1.029 Se1.061               0.26972758      0.00068087     -0.00112582     -0.00000077
AIVX     1  Mu1.0001  In1.027 Se1.063               0.28488116      0.00196247     -0.00266681     -0.00000523
AIVX     1  Mu1.0001  In1.027 Se1.065               0.29923757     -0.00246845      0.00377462     -0.00000932
--
 
   (Skipping property calculation,
    use PROP keyword to activate)
--
 
  Total CASPT2 energies:
::    CASPT2 Root  1     Total energy:   -455.38124245
::    CASPT2 Root  2     Total energy:   -455.16602691
::    CASPT2 Root  3     Total energy:   -455.17612049
::    CASPT2 Root  4     Total energy:   -455.13184680
::    CASPT2 Root  5     Total energy:   -455.12032760
::    CASPT2 Root  6     Total energy:   -455.10216856
::    CASPT2 Root  7     Total energy:   -455.07726958
 
++ Multi-State CASPT2 section:
********************************************************************************
  MULTI-STATE CASPT2 SECTION
--------------------------------------------------------------------------------
 
  Output diagonal energies have been shifted. Add   -455.000000000000     
 
  Effective Hamiltonian matrix (Symmetric):
 
                1               2               3               4               5
   1        -0.38124245
   2         0.00029614     -0.16602691
   3        -0.00019311      0.00067446     -0.17612049
   4        -0.00810169     -0.00028586      0.00034009     -0.13184680
   5         0.01735430      0.00116870     -0.00048739      0.00053565     -0.12032760
   6         0.01244346     -0.00053771      0.00107052     -0.00100736     -0.02126181
   7        -0.01209250      0.00000184     -0.00029422     -0.01068223      0.00961476
 
                6               7
   6        -0.10216856
   7         0.00594270     -0.07726958
 
       Total MS-CASPT2 energies:
::    MS-CASPT2 Root  1     Total energy:   -455.38391686
::    MS-CASPT2 Root  2     Total energy:   -455.17618649
::    MS-CASPT2 Root  3     Total energy:   -455.16601351
::    MS-CASPT2 Root  4     Total energy:   -455.13495319
::    MS-CASPT2 Root  5     Total energy:   -455.13278049
::    MS-CASPT2 Root  6     Total energy:   -455.08806611
::    MS-CASPT2 Root  7     Total energy:   -455.07308575
 
       Eigenvectors:
            0.99467521     -0.00124541     -0.00140238      0.09905610      0.01803352
           -0.00105297     -0.06771459      0.99731072      0.02403689      0.00381952
            0.00102546      0.99756338      0.06787245      0.00041922      0.00905316
            0.03376580     -0.00813931      0.00894391     -0.52714280      0.83066081
           -0.07118217      0.00503674     -0.02579322      0.68451267      0.45040080
           -0.05010656     -0.01355582     -0.00128337      0.43321523      0.32263138
            0.04360474      0.00226206      0.00397026     -0.23557880      0.05127349
 
            0.00352909     -0.02163190
           -0.01375596      0.00183535
            0.01295558     -0.00309957
           -0.02769397     -0.17340632
           -0.54834203      0.14881190
            0.83555747      0.08591390
            0.00531539      0.96949634
 
--
 
  THE ORIGINAL CI ARRAYS ARE NOW MIXED AS LINEAR
  COMBINATIONS, GIVEN BY THE EIGENVECTORS.
  A NEW JOBIPH FILE NAMED 'JOBMIX' IS PREPARED.
********************************************************************************
 
++ Mixed CI coefficients:
  The CI coefficients for the MIXED state nr.   1
--------------------------------------------------------------------------------
 CI COEFFICIENTS LARGER THAN  0.50D-01
  Occupation of active orbitals, and spin coupling
  of open shells. (u,d: Spin up or down).
  SGUGA info is (Midvert:IsyUp:UpperWalk/LowerWalk)
        Conf  SGUGA info        Occupation    Coefficient         Weight
           1  ( 1:1:   1/   1)   22222200        0.966850       0.934799
           4  ( 1:1:   4/   1)   22222020       -0.107060       0.011462
          21  ( 2:1:   1/   1)   222u22d0        0.053132       0.002823
          61  ( 2:1:   1/   3)   2u2222d0       -0.095892       0.009195
          84  ( 2:1:   4/   4)   u222220d        0.115151       0.013260
         145  ( 3:1:   5/   5)   22022202       -0.086954       0.007561
         165  ( 3:1:   5/   7)   u2d22202        0.050172       0.002517
         171  ( 3:1:   1/   8)   20222220       -0.082133       0.006746
         195  ( 3:1:   5/  10)   02222202       -0.076697       0.005882
 
  The CI coefficients for the MIXED state nr.   2
--------------------------------------------------------------------------------
 CI COEFFICIENTS LARGER THAN  0.50D-01
  Occupation of active orbitals, and spin coupling
  of open shells. (u,d: Spin up or down).
  SGUGA info is (Midvert:IsyUp:UpperWalk/LowerWalk)
        Conf  SGUGA info        Occupation    Coefficient         Weight
          24  ( 2:1:   4/   1)   222u220d       -0.950131       0.902749
          25  ( 2:1:   5/   1)   222u2dud        0.056897       0.003237
          27  ( 2:1:   7/   1)   222u2udd        0.094826       0.008992
          29  ( 2:1:   9/   1)   222u202d        0.092615       0.008578
         115  ( 3:1:   5/   2)   22ud2202       -0.174547       0.030467
         135  ( 3:1:   5/   4)   u22d2202        0.128607       0.016540
         207  ( 4:1:   1/   2)   2u2u22dd       -0.079422       0.006308
         208  ( 4:1:   2/   2)   2u2u2d2d       -0.053847       0.002899
         261  ( 5:1:   1/   7)   202u222d       -0.089160       0.007949
 
  The CI coefficients for the MIXED state nr.   3
--------------------------------------------------------------------------------
 CI COEFFICIENTS LARGER THAN  0.50D-01
  Occupation of active orbitals, and spin coupling
  of open shells. (u,d: Spin up or down).
  SGUGA info is (Midvert:IsyUp:UpperWalk/LowerWalk)
        Conf  SGUGA info        Occupation    Coefficient         Weight
           3  ( 1:1:   3/   1)   2222u2d0       -0.958725       0.919153
           5  ( 1:1:   5/   1)   2222ud20       -0.125488       0.015747
          63  ( 2:1:   3/   3)   2u22d220       -0.159600       0.025472
          86  ( 2:1:   6/   4)   u222d2ud       -0.059377       0.003526
          88  ( 2:1:   8/   4)   u222u2dd       -0.097987       0.009601
         147  ( 3:1:   7/   5)   2202u2d2        0.086095       0.007412
         167  ( 3:1:   7/   7)   u2d2u2d2       -0.057365       0.003291
         197  ( 3:1:   7/  10)   0222u2d2        0.078761       0.006203
 
  The CI coefficients for the MIXED state nr.   4
--------------------------------------------------------------------------------
 CI COEFFICIENTS LARGER THAN  0.50D-01
  Occupation of active orbitals, and spin coupling
  of open shells. (u,d: Spin up or down).
  SGUGA info is (Midvert:IsyUp:UpperWalk/LowerWalk)
        Conf  SGUGA info        Occupation    Coefficient         Weight
           2  ( 1:1:   2/   1)   22222ud0       -0.806213       0.649979
           4  ( 1:1:   4/   1)   22222020        0.126699       0.016053
           8  ( 1:1:   8/   1)   2222u20d        0.209865       0.044043
          44  ( 2:1:   4/   2)   22u2220d       -0.413856       0.171277
          47  ( 2:1:   7/   2)   22u22udd        0.061182       0.003743
          61  ( 2:1:   1/   3)   2u2222d0        0.061549       0.003788
          62  ( 2:1:   2/   3)   2u222d20       -0.222596       0.049549
          84  ( 2:1:   4/   4)   u222220d       -0.052697       0.002777
          87  ( 2:1:   7/   4)   u2222udd       -0.076848       0.005906
         146  ( 3:1:   6/   5)   22022ud2        0.071115       0.005057
         165  ( 3:1:   5/   7)   u2d22202        0.095873       0.009192
         166  ( 3:1:   6/   7)   u2d22ud2       -0.060524       0.003663
         171  ( 3:1:   1/   8)   20222220       -0.083754       0.007015
         196  ( 3:1:   6/  10)   02222ud2        0.068415       0.004681
 
  The CI coefficients for the MIXED state nr.   5
--------------------------------------------------------------------------------
 CI COEFFICIENTS LARGER THAN  0.50D-01
  Occupation of active orbitals, and spin coupling
  of open shells. (u,d: Spin up or down).
  SGUGA info is (Midvert:IsyUp:UpperWalk/LowerWalk)
        Conf  SGUGA info        Occupation    Coefficient         Weight
           2  ( 1:1:   2/   1)   22222ud0       -0.455579       0.207552
           4  ( 1:1:   4/   1)   22222020        0.060549       0.003666
           7  ( 1:1:   7/   1)   22222u0d       -0.164164       0.026950
           8  ( 1:1:   8/   1)   2222u20d       -0.320681       0.102836
          21  ( 2:1:   1/   1)   222u22d0       -0.050540       0.002554
          44  ( 2:1:   4/   2)   22u2220d        0.741897       0.550411
          45  ( 2:1:   5/   2)   22u22dud       -0.053958       0.002911
          47  ( 2:1:   7/   2)   22u22udd       -0.078471       0.006158
          49  ( 2:1:   9/   2)   22u2202d       -0.074698       0.005580
          62  ( 2:1:   2/   3)   2u222d20       -0.126893       0.016102
          84  ( 2:1:   4/   4)   u222220d        0.058520       0.003425
          87  ( 2:1:   7/   4)   u2222udd       -0.063825       0.004074
         165  ( 3:1:   5/   7)   u2d22202       -0.178206       0.031758
         195  ( 3:1:   5/  10)   02222202        0.055892       0.003124
         219  ( 4:1:   1/   4)   2uu222dd        0.068046       0.004630
         293  ( 5:1:   1/  15)   20u2222d        0.070397       0.004956
 
  The CI coefficients for the MIXED state nr.   6
--------------------------------------------------------------------------------
 CI COEFFICIENTS LARGER THAN  0.50D-01
  Occupation of active orbitals, and spin coupling
  of open shells. (u,d: Spin up or down).
  SGUGA info is (Midvert:IsyUp:UpperWalk/LowerWalk)
        Conf  SGUGA info        Occupation    Coefficient         Weight
           2  ( 1:1:   2/   1)   22222ud0       -0.071520       0.005115
           7  ( 1:1:   7/   1)   22222u0d        0.938528       0.880835
           8  ( 1:1:   8/   1)   2222u20d       -0.112519       0.012661
          25  ( 2:1:   5/   1)   222u2dud       -0.065599       0.004303
          44  ( 2:1:   4/   2)   22u2220d        0.108710       0.011818
          53  ( 2:1:  13/   2)   22u22d02       -0.053712       0.002885
          65  ( 2:1:   5/   3)   2u222dud        0.163322       0.026674
          67  ( 2:1:   7/   3)   2u222udd        0.167899       0.028190
          93  ( 2:1:  13/   4)   u2222d02       -0.051460       0.002648
         173  ( 3:1:   3/   8)   20222u2d        0.125585       0.015771
 
  The CI coefficients for the MIXED state nr.   7
--------------------------------------------------------------------------------
 CI COEFFICIENTS LARGER THAN  0.50D-01
  Occupation of active orbitals, and spin coupling
  of open shells. (u,d: Spin up or down).
  SGUGA info is (Midvert:IsyUp:UpperWalk/LowerWalk)
        Conf  SGUGA info        Occupation    Coefficient         Weight
           7  ( 1:1:   7/   1)   22222u0d        0.058853       0.003464
           8  ( 1:1:   8/   1)   2222u20d        0.842881       0.710449
          10  ( 1:1:  10/   1)   2222udud        0.166922       0.027863
          12  ( 1:1:  12/   1)   2222uudd        0.244401       0.059732
          26  ( 2:1:   6/   1)   222ud2ud       -0.073726       0.005436
          28  ( 2:1:   8/   1)   222uu2dd        0.090544       0.008198
          44  ( 2:1:   4/   2)   22u2220d        0.383009       0.146696
          71  ( 2:1:  11/   3)   2u22ud2d       -0.058723       0.003448
         165  ( 3:1:   5/   7)   u2d22202       -0.085917       0.007382
         174  ( 3:1:   4/   8)   2022u22d        0.071928       0.005174
 
--
 
--- Stop Module: caspt2 at Tue Jun 10 20:24:39 2025 /rc=_RC_ALL_IS_WELL_ ---
*** files: xmldump
    saved to directory /home/pcaah4/diamide_project
--- Module caspt2 spent 6 minutes 53 seconds ---

.##################.
.# Happy landing! #.
.##################.

    Timing: Wall=708.98 User=619.03 System=80.01
******************************************************
*** WorkDir at /srv/COMMUNAL_SCRATCH/12446 cleaned ***
******************************************************
