   This run of MOLCAS is using the pymolcas driver

                             OPE
                             OPE          NMOL  CASOP  ENMOLC A   SO
                 OPE        NMOLC        AS  OP EN  MO LC     AS  OP
                OPENM       OL CA        SO  PE NM  OL CA     SOP EN
                OP EN      MO   LC       AS  OP ENMOL  CASO   PENMOL
                OP  EN     MO   LC       AS  OP EN     MO     LC ASO
               OP   E  NMOL  C  AS       OP  EN MO     LC     AS  OP
               OP  E   NMO   LC AS        OPEN  MO     LCASOP EN   M
               O  PEN   MO  LCA  SO
            OPE   NMO   L   CAS    OP
        OPENMOL  CASOP     ENMOL   CASOPE
     OPENMOLCA   SOPENMOLCASOPEN   MOLCASOPE
    OPENMOLCAS   OP           EN   MOL    CAS
    OPENMOLCAS       OP  ENM        O     LCA
    OPENMOLCAS    OPEN  MOLCASO     P  E  NMO
    OPENMOLCAS     OP               E  N  MOL
    OPENMOLCA   SO           PENM   O  L  CAS    OPEN    MO    LCAS
    OPENMOLCA   SOP           ENM   O  L  CAS   OP  EN  MOLC  AS   O
    OPENMOLCA   SOPE           NM      O  LCA   S      OP  EN MO
    OPENMOLC                AS         O  PEN   M      OL  CA  SOPE
    OPENMO        LCASOPE  NMOL        C  ASO   P      ENMOLC     AS
    OPE     NMO      LCA  SO     P     E   NM   OL  CA SO  PE N   MO
          OPENMOLCA            SOPE   NMO        LCAS  O    P  ENMO
     OPENMOLCASOPENMOLCASOPENMOLCASOPENMOLCA
        OPENMOLCASOPENMOLCASOPENMOLCASOPE
            OPENMOLCASOPENMOLCASOPENM
               OPENMOLCASOPENMOLCA        version: v23.06
                   OPENMOLCASO
                       OPE                tag:

 OpenMolcas is free software; you can redistribute it and/or modify it
 under the terms of the GNU Lesser General Public License version 2.1.
 OpenMolcas is distributed in the hope that it will be useful, but it
 is provided "as is" and without any express or implied warranties.
 For more details see the full text of the license in the file
 LICENSE or in <http://www.gnu.org/licenses/>.

                 Copyright (C) The OpenMolcas Authors
           For the author list and the recommended citation,
                   consult the file CONTRIBUTORS.md

           *************************************************
           * pymolcas version py2.24                       *
           *   build 4567b286dd94b1984b333a4ddf893180      *
           *   (after the EMIL interpreter by V. Veryazov) *
           *************************************************

configuration info
------------------
Host name: loginchem01.nottingham.ac.uk (Linux)
C Compiler ID: Intel
C flags: -std=gnu99 -gcc-sys -qopenmp
Fortran Compiler ID: Intel
Fortran flags: -fpp -i8 -heap-arrays -qopenmp
Definitions: _MOLCAS_;_I8_;_LINUX_
Parallel: OFF (GA=OFF)


   ----------------------------------------------------------------------------------------------------
  |
  |              Project: orca_geometry_optimisation_240_180_BP86_def2-SVP_def2J_scf_cas1_ras12i11_cas8
  |       Submitted from: /home/pcaah4/diamide_project
  |         Scratch area: /srv/COMMUNAL_SCRATCH/12404
  |      Save outputs to: /home/pcaah4/diamide_project
  |               Molcas: /software/chemistry/openmolcas/openmolcas-23.06-openmp
  |
  | Scratch area is empty
  |
  |       MOLCAS_DRIVER = /software/chemistry/openmolcas/openmolcas-23.06-openmp/sbin/pymolcas
  | MOLCAS_KEEP_WORKDIR = NO
  |       MOLCAS_NPROCS = 1
  |       MOLCAS_SOURCE = /software/chemistry/openmolcas/openmolcas-23.06-openmp
  |    MOLCAS_STRUCTURE = 0
  |
   ----------------------------------------------------------------------------------------------------

++ ---------   Input file   ---------

&SEWARD
TITLE
orca_geometry_optimisation_240_180_BP86_def2-SVP_def2J_scf_cas1_ras12i11
MULTIPOLES
2
SDIPOLE
ANGMOM
0 0 0
BASIS SET
C.ANO-S...4S3P1D.
C1            0.033148   -0.021163    0.108709 /Angstrom
C3            2.087591    1.307544   -0.007644 /Angstrom
C4            3.051210    1.226307   -1.206410 /Angstrom
C6            4.705808    2.497553   -2.540915 /Angstrom
C19          -0.542607   -1.430336    0.044541 /Angstrom
END OF BASIS
BASIS SET
N.ANO-S...4S3P1D.
N2            1.412814    0.045608    0.181982 /Angstrom
N5            3.739020    2.381623   -1.464241 /Angstrom
END OF BASIS
BASIS SET
O.ANO-S...4S3P1D.
O7           -0.680778    0.980224    0.135999 /Angstrom
O8            3.218301    0.176933   -1.830216 /Angstrom
END OF BASIS
BASIS SET
H.ANO-S...2S1P.
H9           -1.191666   -1.590719    0.928521 /Angstrom
H10          -1.191526   -1.507567   -0.850246 /Angstrom
H11           0.223927   -2.228860    0.010980 /Angstrom
H12           1.946969   -0.765036   -0.149265 /Angstrom
H13           1.301020    2.079200   -0.163568 /Angstrom
H14           2.666308    1.608851    0.897006 /Angstrom
H15           3.506114    3.214542   -0.920607 /Angstrom
H16           4.370874    3.211626   -3.323725 /Angstrom
H17           5.697376    2.826804   -2.164162 /Angstrom
H18           4.809903    1.495256   -2.997337 /Angstrom
END OF BASIS
END OF INPUT

&RASSCF
TITLE
orca_geometry_optimisation_240_180_BP86_def2-SVP_def2J_scf_cas1_ras12i11
LUMORB
SPIN
1
SYMMETRY
1
NACTEL
12  0  0
INACTIVE
29
DELETED  ! delete Rydberg orbitals from an initial CAS(12,11) if done
3
FROZEN
0
RAS2
8
ITERATIONS
64 25
CIROOT
7 7
1 2 3 4 5 6 7
1 1 1 1 1 1 1
LEVSHFT
0.3
CIMX
20
FILEorb = /home/pcaah4/diamide_project/cas/ras12i11/ras_orb/orca_geometry_optimisation_240_180_BP86_def2-SVP_def2J_scf_cas1_ras12i11.RasOrb
ALTEr
2
 1 36 38
 1 37 40
END OF INPUT

&RASSI
NROF JOBIPH
    1 7
    1 2 3 5 4 6 7
TOFILE
TRDI
TDMN
1.0D-6
END OF INPUT

&CASPT2
TITLE
orca_geometry_optimisation_240_180_BP86_def2-SVP_def2J_scf_cas1_ras12i11
MULTISTATE
7 1 2 3 4 5 6 7
SHIFT
0.35
MAXITER
50
END OF INPUT

-- ----------------------------------

--- Start Module: seward at Tue Jun 10 18:26:22 2025 ---
 
()()()()()()()()()()()()()()()()()()()()()()()()()()()()()()()()()()()()()()()()()()()()()()()()()()

                                              &SEWARD

                                   only a single process is used
                       available to each process: 2.0 GB of memory, 1 thread
                                            pid: 3122509
()()()()()()()()()()()()()()()()()()()()()()()()()()()()()()()()()()()()()()()()()()()()()()()()()()
 
               SEWARD will generate:
                  Multipole Moment integrals up to order  2
                  Kinetic Energy integrals
                  Nuclear Attraction integrals (point charge)
                  One-Electron Hamiltonian integrals
                  Velocity integrals
                  Orbital angular momentum around ( 0.0000  0.0000  0.0000 )
                  Velocity quadrupole around ( 3.5894  1.5090 -1.4103 )
                  Two-Electron Repulsion integrals
 
 Title:
            orca_geometry_optimisation_240_180_BP86_def2-SVP_def2J_scf_cas1_ras12i11    
 
 
                   Integrals are discarded if absolute value <: 0.10E-13
                   Integral cutoff threshold is set to       <: 0.10E-15
 
++    Symmetry information:
      ---------------------
 
                    Character Table for C1 
 
                             E  
                    a        1  x, y, xy, Rz, z, xz, Ry, yz, Rx, I
--
 
 
++    Basis set information:
      ----------------------
 
 
      Basis set label: C.ANO-S...4S3P1D......
 
      Electronic valence basis set:
      ------------------
      Associated Effective Charge   6.000000 au
      Associated Actual Charge      6.000000 au
      Nuclear Model: Point charge
 
      Shell  nPrim  nBasis  Cartesian Spherical Contaminant
         s      10       4        X                  
         p       6       3        X                  
         d       3       1                 X         
 
 
      Basis set label: N.ANO-S...4S3P1D......
 
      Electronic valence basis set:
      ------------------
      Associated Effective Charge   7.000000 au
      Associated Actual Charge      7.000000 au
      Nuclear Model: Point charge
 
      Shell  nPrim  nBasis  Cartesian Spherical Contaminant
         s      10       4        X                  
         p       6       3        X                  
         d       3       1                 X         
 
 
      Basis set label: O.ANO-S...4S3P1D......
 
      Electronic valence basis set:
      ------------------
      Associated Effective Charge   8.000000 au
      Associated Actual Charge      8.000000 au
      Nuclear Model: Point charge
 
      Shell  nPrim  nBasis  Cartesian Spherical Contaminant
         s      10       4        X                  
         p       6       3        X                  
         d       3       1                 X         
 
 
      Basis set label: H.ANO-S...2S1P......
 
      Electronic valence basis set:
      ------------------
      Associated Effective Charge   1.000000 au
      Associated Actual Charge      1.000000 au
      Nuclear Model: Point charge
 
      Shell  nPrim  nBasis  Cartesian Spherical Contaminant
         s       7       2        X                  
         p       3       1        X                  
--
 
 
++    Molecular structure info:
      -------------------------
 
                    ************************************************ 
                    **** Cartesian Coordinates / Bohr, Angstrom **** 
                    ************************************************ 
 
     Center  Label                x              y              z                     x              y              z
        1      C1               0.062641      -0.039992       0.205430              0.033148      -0.021163       0.108709
        2      C3               3.944975       2.470900      -0.014445              2.087591       1.307544      -0.007644
        3      C4               5.765951       2.317384      -2.279784              3.051210       1.226307      -1.206410
        4      C6               8.892688       4.719691      -4.801633              4.705808       2.497553      -2.540915
        5      C19             -1.025379      -2.702943       0.084170             -0.542607      -1.430336       0.044541
        6      N2               2.669832       0.086187       0.343896              1.412814       0.045608       0.181982
        7      N5               7.065724       4.500615      -2.767014              3.739020       2.381623      -1.464241
        8      O7              -1.286484       1.852355       0.257001             -0.680778       0.980224       0.135999
        9      O8               6.081707       0.334355      -3.458607              3.218301       0.176933      -1.830216
       10      H9              -2.251922      -3.006023       1.754650             -1.191666      -1.590719       0.928521
       11      H10             -2.251658      -2.848889      -1.606732             -1.191526      -1.507567      -0.850246
       12      H11              0.423161      -4.211935       0.020749              0.223927      -2.228860       0.010980
       13      H12              3.679238      -1.445709      -0.282070              1.946969      -0.765036      -0.149265
       14      H13              2.458571       3.929119      -0.309099              1.301020       2.079200      -0.163568
       15      H14              5.038592       3.040288       1.695096              2.666308       1.608851       0.897006
       16      H15              6.625595       6.074604      -1.739695              3.506114       3.214542      -0.920607
       17      H16              8.259755       6.069094      -6.280930              4.370874       3.211626      -3.323725
       18      H17             10.766480       5.341885      -4.089673              5.697376       2.826804      -2.164162
       19      H18              9.089399       2.825624      -5.664146              4.809903       1.495256      -2.997337
 
                    ************************************************* 
                    **** InterNuclear Distances / Bohr, Angstrom **** 
                    ************************************************* 
 
     Atom centers         Bohr        Angstrom
   16 H15       7 N5      1.930425        1.021537
   13 H12       6 N2      1.938411        1.025763
   19 H18       4 C6      2.090481        1.106235
   12 H11       5 C19     2.092688        1.107403
   11 H10       5 C19     2.093851        1.108018
   10 H9        5 C19     2.094462        1.108342
   18 H17       4 C6      2.098835        1.110656
   17 H16       4 C6      2.099955        1.111248
   14 H13       2 C3      2.103002        1.112861
   15 H14       2 C3      2.107778        1.115388
    8 O7        1 C1      2.324602        1.230126
    9 O8        3 C4      2.328461        1.232168
    7 N5        3 C4      2.587141        1.369056
    6 N2        1 C1      2.613912        1.383223
    6 N2        2 C3      2.727867        1.443525
    7 N5        4 C6      2.743259        1.451670
    5 C19       1 C1      2.879201        1.523608
    3 C4        2 C3      2.910547        1.540195
   11 H10      10 H9      3.365053        1.780709
   15 H14      14 H13     3.385753        1.791663
   19 H18      17 H16     3.404236        1.801444
   18 H17      17 H16     3.407948        1.803408
   12 H11      10 H9      3.408329        1.803610
   19 H18      18 H17     3.409272        1.804109
   12 H11      11 H10     3.414856        1.807064
   16 H15       3 C4      3.891964        2.059539
   14 H13       6 N2      3.903737        2.065768
   13 H12       1 C1      3.910687        2.069446
   19 H18       7 N5      3.910784        2.069498
   13 H12       2 C3      3.934725        2.082167
   18 H17       7 N5      4.019050        2.126790
   15 H14       6 N2      4.020383        2.127495
   17 H16       7 N5      4.029074        2.132094
   16 H15       4 C6      4.043633        2.139798
   11 H10       1 C1      4.065687        2.151469
   10 H9        1 C1      4.068737        2.153083
   15 H14       3 C4      4.105035        2.172291
   14 H13       3 C4      4.173733        2.208645
   12 H11       1 C1      4.191561        2.218079
   13 H12      12 H11     4.283194        2.266569
   14 H13       8 O7      4.319590        2.285829
    8 O7        6 N2      4.333513        2.293196
    9 O8        7 N5      4.336394        2.294721
   13 H12       9 O8      4.362439        2.308503
   19 H18       9 O8      4.485202        2.373467
    8 O7        5 C19     4.566047        2.416248
    9 O8        2 C3      4.581779        2.424573
    2 C3        1 C1      4.628763        2.449436
    7 N5        2 C3      4.629844        2.450008
    6 N2        3 C4      4.631188        2.450719
    6 N2        5 C19     4.636947        2.453767
   14 H13       1 C1      4.664661        2.468432
    4 C6        3 C4      4.680522        2.476825
   13 H12       3 C4      4.744060        2.510448
   19 H18       3 C4      4.770484        2.524431
   16 H15       2 C3      4.811330        2.546046
   18 H17      16 H15     4.817282        2.549196
   17 H16      16 H15     4.826316        2.553976
   16 H15      15 H14     4.850097        2.566561
   12 H11       6 N2      4.860638        2.572139
   13 H12       5 C19     4.883461        2.584216
   16 H15      14 H13     4.900388        2.593174
   15 H14      13 H12     5.087356        2.692113
   15 H14       7 N5      5.113927        2.706173
    9 O8        6 N2      5.114833        2.706653
   11 H10       8 O7      5.148471        2.724453
   10 H9        8 O7      5.174830        2.738402
   14 H13       7 N5      5.252981        2.779758
    8 O7        2 C3      5.274888        2.791351
    9 O8        4 C6      5.379266        2.846585
   14 H13      13 H12     5.511762        2.916699
   19 H18      16 H15     5.659286        2.994765
--
 
 
            Nuclear Potential Energy            449.48257359 au
 
 
      Basis set specifications :
      Symmetry species         a  
      Basis functions          212
 
 
      Input file to MOLDEN was generated!
 
--- Stop Module: seward at Tue Jun 10 18:28:10 2025 /rc=_RC_ALL_IS_WELL_ ---
*** files: orca_geometry_optimisation_240_180_BP86_def2-SVP_def2J_scf_cas1_ras12i11_cas8.GssOrb
           orca_geometry_optimisation_240_180_BP86_def2-SVP_def2J_scf_cas1_ras12i11_cas8.guessorb.molden xmldump
    saved to directory /home/pcaah4/diamide_project
--- Module seward spent 1 minute 48 seconds ---

*** symbolic link created: INPORB -> orca_geometry_optimisation_240_180_BP86_def2-SVP_def2J_scf_cas1_ras12i11_cas8.GssOrb
--- Start Module: rasscf at Tue Jun 10 18:28:10 2025 ---
 
()()()()()()()()()()()()()()()()()()()()()()()()()()()()()()()()()()()()()()()()()()()()()()()()()()

                                              &RASSCF

                                   only a single process is used
                       available to each process: 2.0 GB of memory, 1 thread
                                            pid: 3122539
()()()()()()()()()()()()()()()()()()()()()()()()()()()()()()()()()()()()()()()()()()()()()()()()()()
 
 
      Header of the ONEINT file:
      --------------------------
      orca_geometry_optimisation_240_180_BP86_def2-SVP_def2J_scf_cas1_ras12i11
      Integrals generated by Gateway/Seward, Tue Jun 10 18:26:22 2025
 
 
      OrdInt status: non-squared
 
 
      Cartesian coordinates in Angstrom:
      -----------------------------------------------------
      No.  Label        X            Y            Z        
      -----------------------------------------------------
       1   C1         0.03314800  -0.02116300   0.10870900
       2   C3         2.08759100   1.30754400  -0.00764400
       3   C4         3.05121000   1.22630700  -1.20641000
       4   C6         4.70580800   2.49755300  -2.54091500
       5   C19       -0.54260700  -1.43033600   0.04454100
       6   N2         1.41281400   0.04560800   0.18198200
       7   N5         3.73902000   2.38162300  -1.46424100
       8   O7        -0.68077800   0.98022400   0.13599900
       9   O8         3.21830100   0.17693300  -1.83021600
      10   H9        -1.19166600  -1.59071900   0.92852100
      11   H10       -1.19152600  -1.50756700  -0.85024600
      12   H11        0.22392700  -2.22886000   0.01098000
      13   H12        1.94696900  -0.76503600  -0.14926500
      14   H13        1.30102000   2.07920000  -0.16356800
      15   H14        2.66630800   1.60885100   0.89700600
      16   H15        3.50611400   3.21454200  -0.92060700
      17   H16        4.37087400   3.21162600  -3.32372500
      18   H17        5.69737600   2.82680400  -2.16416200
      19   H18        4.80990300   1.49525600  -2.99733700
      -----------------------------------------------------
      Nuclear repulsion energy =  449.48257359
 
++    Wave function specifications:
      -----------------------------
 
      Number of closed shell electrons          58
      Number of electrons in active shells      12
      Max number of holes in RAS1 space          0
      Max nr of electrons in RAS3 space          0
      Number of inactive orbitals               29
      Number of active orbitals                  8
      Number of secondary orbitals             172
      Spin quantum number                      0.0
      State symmetry                             1
--
 
++    Orbital specifications:
      -----------------------
 
      Symmetry species                           1
                                                 a
      Frozen orbitals                            0
      Inactive orbitals                         29
      Active orbitals                            8
      RAS1 orbitals                              0
      RAS2 orbitals                              8
      RAS3 orbitals                              0
      Secondary orbitals                       172
      Deleted orbitals                           3
      Number of basis functions                212
--
 
++    CI expansion specifications:
      ----------------------------
 
      Number of CSFs                           336
      Number of determinants                   406
      Number of root(s) required                 7
      Root chosen for geometry opt.              7
      CI roots used                              1     2     3     4     5     6     7
      weights                                0.143 0.143 0.143 0.143 0.143 0.143 0.143
      highest root included in the CI            7
      max. size of the explicit Hamiltonian    200
--
 
++    Optimization specifications:
      ----------------------------
 
      RASSCF algorithm: Conventional
      Maximum number of macro iterations        64
      Maximum number of SX iterations           25
      Threshold for RASSCF energy            0.100E-07
      Threshold for max MO rotation          0.100E+00
      Threshold for max BLB element          0.100E-03
      Level shift parameter                  0.300E+00
      Make Quasi-Newton update
--
 
      The MO-coefficients are taken from the file:
      /home/pcaah4/diamide_project/cas/ras12i11/ras_orb/orca_geometry_optimisation_240_180_BP86_def2-SVP_def2J_scf_cas1_ras12i11.RasOrb                                                                                                                               
      Title: RASSCF average (pseudo-natural) orbitals                                      
 
      Total molecular charge    0.00
 
      Molecular orbitals exchanged:
        In symmetry  1 :  36  38
        In symmetry  1 :  37  40
 
 
      ************************************************************************************************************************
      *                                                                                                                      *
      *                                            Wave function control section                                             *
      *                                                                                                                      *
      ************************************************************************************************************************
 
 
                                         RASSCF iterations: Energy and convergence statistics
                                         ----------------------------------------------------
 
      Iter CI   SX   CI       RASSCF       Energy    max ROT     max BLB   max BLB  Level Ln srch  Step   QN   Walltime
          iter iter root      energy       change     param      element    value   shift minimum  type update hh:mm:ss
 Nr of preliminary CI iterations:   4
        1   1   13    0  -453.70381414    0.00E+00   0.64E-01   34  38 1 -0.22E-01*  0.20   0.00    SX    NO    0:00:13
        2   4   12    0  -453.70673310   -0.29E-02* -0.33E-01   32  39 1  0.70E-02*  0.19   0.00    SX    NO    0:00:06
        3   3   11    0  -453.70717827   -0.45E-03*  0.21E-01   34  38 1 -0.30E-02*  0.20   0.00    SX    NO    0:00:07
        4   6   10    0  -453.70733180   -0.15E-03* -0.13E-01   32  39 1  0.81E-03*  0.20   0.00    SX    NO    0:00:06
        5   3   10    0  -453.70737025   -0.38E-04* -0.25E-01   21  84 1  0.45E-03*  0.20   2.13    QN   YES    0:00:06
        6   7   10    0  -453.70739477   -0.25E-04*  0.39E-02   34  38 1  0.34E-03*  0.20   0.80    QN   YES    0:00:06
        7   4    9    0  -453.70739715   -0.24E-05* -0.47E-03   21  97 1  0.18E-03*  0.20   0.87    QN   YES    0:00:06
        8   5    8    0  -453.70739775   -0.60E-06* -0.71E-03   37  41 1 -0.55E-04   0.20   2.50    LS   YES    0:00:06
        9   6    8    0  -453.70739766    0.89E-07*  0.18E-03   19  40 1 -0.16E-03*  0.20   0.46    SX   YES    0:00:06
       10   4    8    0  -453.70739798   -0.32E-06*  0.36E-03   34  38 1 -0.50E-04   0.20   1.12    QN   YES    0:00:06
       11   3    7    0  -453.70739803   -0.46E-07*  0.20E-03   21  97 1 -0.18E-04   0.20   1.36    QN   YES    0:00:07
       12   3    7    0  -453.70739805   -0.19E-07*  0.88E-04   19  40 1  0.15E-04   0.20   0.97    QN   YES    0:00:07
       13   1    6    0  -453.70739805   -0.51E-08   0.12E-03   19  40 1  0.48E-05   0.20   2.18    QN   YES    0:00:06
      Convergence after 13 iterations
       14   1    6    0  -453.70739805   -0.21E-08   0.12E-03   37  67 1  0.13E-05   0.20   2.18    QN   YES    0:00:06
 
      ************************************************************************************************************************
                                                      Wave function printout:
                       occupation of active orbitals, and spin coupling of open shells (u,d: Spin up or down)
      ************************************************************************************************************************
 
      Note: transformation to natural orbitals
      has been made, which may change the order of the CSFs.
 
      printout of CI-coefficients larger than  0.05 for root  1
      energy=    -453.960185
      conf/sym  11111111     Coeff  Weight
             1  22222200   0.96371 0.92873
             2  22222ud0   0.12654 0.01601
             4  22222020  -0.07956 0.00633
            17  22220202  -0.08087 0.00654
            64  2u22220d   0.09594 0.00921
            74  2u22d202  -0.05279 0.00279
            81  u22222d0   0.07918 0.00627
            82  u2222d20  -0.06996 0.00489
           175  20222202  -0.08231 0.00677
           191  02222220  -0.10243 0.01049
 
      printout of CI-coefficients larger than  0.05 for root  2
      energy=    -453.750687
      conf/sym  11111111     Coeff  Weight
             2  22222ud0   0.05289 0.00280
            21  222u22d0  -0.95961 0.92086
            22  222u2d20   0.10462 0.01095
            38  222u02d2  -0.08035 0.00646
           131  u22d2220   0.19081 0.03641
           207  2u2u22dd  -0.08306 0.00690
           262  202u22d2   0.08299 0.00689
 
      printout of CI-coefficients larger than  0.05 for root  3
      energy=    -453.732831
      conf/sym  11111111     Coeff  Weight
            24  222u220d  -0.06488 0.00421
            44  22u2220d   0.94653 0.89591
            45  22u22dud   0.06502 0.00423
            47  22u22udd   0.11588 0.01343
            49  22u2202d  -0.07844 0.00615
            54  22u2d202  -0.16896 0.02855
           155  2ud22202  -0.14014 0.01964
           225  u2u222dd  -0.07224 0.00522
           226  u2u22d2d   0.06168 0.00380
           301  02u2222d   0.10200 0.01040
 
      printout of CI-coefficients larger than  0.05 for root  4
      energy=    -453.644532
      conf/sym  11111111     Coeff  Weight
             2  22222ud0  -0.17517 0.03068
             7  22222u0d  -0.53108 0.28204
             8  2222u20d  -0.75787 0.57437
            12  2222uudd  -0.08148 0.00664
            13  2222u02d   0.06690 0.00448
            17  22220202  -0.05839 0.00341
            24  222u220d   0.07881 0.00621
            64  2u22220d   0.07761 0.00602
            74  2u22d202   0.17450 0.03045
            85  u2222dud   0.07165 0.00513
            87  u2222udd   0.10511 0.01105
            88  u222u2dd   0.05573 0.00311
           175  20222202   0.05543 0.00307
           193  02222u2d  -0.07554 0.00571
           194  0222u22d  -0.07894 0.00623
 
      printout of CI-coefficients larger than  0.05 for root  5
      energy=    -453.632702
      conf/sym  11111111     Coeff  Weight
             2  22222ud0  -0.06984 0.00488
             7  22222u0d   0.78451 0.61546
             8  2222u20d  -0.52874 0.27957
            74  2u22d202   0.12293 0.01511
            85  u2222dud  -0.12614 0.01591
            87  u2222udd  -0.17399 0.03027
           193  02222u2d   0.11694 0.01368
           194  0222u22d  -0.05632 0.00317
 
      printout of CI-coefficients larger than  0.05 for root  6
      energy=    -453.625563
      conf/sym  11111111     Coeff  Weight
             1  22222200  -0.11082 0.01228
             2  22222ud0   0.81997 0.67235
             4  22222020   0.15447 0.02386
             7  22222u0d  -0.07348 0.00540
             8  2222u20d  -0.19538 0.03817
            19  22220ud2  -0.07231 0.00523
            21  222u22d0   0.05178 0.00268
            24  222u220d  -0.36383 0.13237
            25  222u2dud   0.08964 0.00803
            27  222u2udd   0.12956 0.01679
            65  2u222dud   0.05006 0.00251
            67  2u222udd   0.08135 0.00662
            74  2u22d202   0.05142 0.00264
            82  u2222d20  -0.20931 0.04381
           176  20222ud2  -0.06694 0.00448
           191  02222220  -0.09552 0.00912
 
      printout of CI-coefficients larger than  0.05 for root  7
      energy=    -453.605286
      conf/sym  11111111     Coeff  Weight
             1  22222200  -0.05012 0.00251
             2  22222ud0   0.37411 0.13996
             4  22222020   0.08774 0.00770
             7  22222u0d   0.05386 0.00290
            24  222u220d   0.83060 0.68989
            25  222u2dud  -0.19558 0.03825
            27  222u2udd  -0.27848 0.07755
            82  u2222d20  -0.09051 0.00819
           214  u22u2d2d  -0.06586 0.00434
           269  022u222d   0.07705 0.00594
 
      Natural orbitals and occupation numbers for root  1
      sym 1:   1.996341   1.968777   1.999840   1.999703   1.995478   1.952760   0.051112   0.035989
 
      Natural orbitals and occupation numbers for root  2
      sym 1:   1.999963   1.967643   1.999716   1.004461   1.995793   1.999880   0.995785   0.036759
 
      Natural orbitals and occupation numbers for root  3
      sym 1:   1.996093   1.999944   1.001077   1.999377   1.999669   1.950537   0.053363   0.999940
 
      Natural orbitals and occupation numbers for root  4
      sym 1:   1.965707   1.976453   1.999696   1.998494   1.103154   1.926076   0.092465   0.937953
 
      Natural orbitals and occupation numbers for root  5
      sym 1:   1.915821   1.987979   1.999786   1.999159   1.973493   1.044407   0.088271   0.991083
 
      Natural orbitals and occupation numbers for root  6
      sym 1:   1.957349   1.975964   1.999726   1.840299   1.988368   1.169717   0.871479   0.197099
 
      Natural orbitals and occupation numbers for root  7
      sym 1:   1.976442   1.997061   1.999479   1.317498   1.990485   1.782844   0.239548   0.696643
 
      ************************************************************************************************************************
      *                                                                                                                      *
      *                                                    Final results                                                     *
      *                                                                                                                      *
      ************************************************************************************************************************
 
 
++    Wave function specifications:
      -----------------------------
 
      Number of closed shell electrons          58
      Number of electrons in active shells      12
      Max number of holes in RAS1 space          0
      Max nr of electrons in RAS3 space          0
      Number of inactive orbitals               29
      Number of active orbitals                  8
      Number of secondary orbitals             172
      Spin quantum number                      0.0
      State symmetry                             1
--
 
++    Orbital specifications:
      -----------------------
 
      Symmetry species                           1
                                                 a
      Frozen orbitals                            0
      Inactive orbitals                         29
      Active orbitals                            8
      RAS1 orbitals                              0
      RAS2 orbitals                              8
      RAS3 orbitals                              0
      Secondary orbitals                       172
      Deleted orbitals                           3
      Number of basis functions                212
--
 
++    CI expansion specifications:
      ----------------------------
 
      Number of CSFs                           336
      Number of determinants                   406
      Number of root(s) required                 7
      CI roots used                              1     2     3     4     5     6     7
      weights                                0.143 0.143 0.143 0.143 0.143 0.143 0.143
      highest root included in the CI            7
      Root passed to geometry opt.               7
--
 
++    Final optimization conditions:
      ------------------------------
 
      Average CI energy                            -453.70739805
      RASSCF energy for state  7                   -453.60528604
      Super-CI energy                                -0.00000000
      RASSCF energy change                            0.00000000
      Max change in MO coefficients              -0.106E-03
      Max non-diagonal density matrix element     0.118E-03
      Maximum BLB matrix element                  0.129E-05
      (orbital pair  37,  67 in symmetry   1)
      Norm of electronic gradient            0.321E+00
--
 
 
      Final state energy(ies):
      ------------------------
 
::    RASSCF root number  1 Total energy:   -453.96018532
::    RASSCF root number  2 Total energy:   -453.75068724
::    RASSCF root number  3 Total energy:   -453.73283138
::    RASSCF root number  4 Total energy:   -453.64453186
::    RASSCF root number  5 Total energy:   -453.63270191
::    RASSCF root number  6 Total energy:   -453.62556262
::    RASSCF root number  7 Total energy:   -453.60528604
 
++    Molecular orbitals:
      -------------------
 
      Pseudonatural active orbitals and approximate occupation numbers
 
 
 
 
      Molecular orbitals for symmetry species 1: a  
 
 
      Orbital                 1         2         3         4         5         6         7         8         9        10
      Energy           -20.5982  -20.5192  -15.6334  -15.5829  -11.3403  -11.2866  -11.2853  -11.2624  -11.2553   -1.4232
      Occ. No.           2.0000    2.0000    2.0000    2.0000    2.0000    2.0000    2.0000    2.0000    2.0000    2.0000
 
     1 C1     1s         0.0003   -0.0001    0.0003    0.0000    1.0000   -0.0000    0.0001   -0.0000   -0.0036   -0.0398
     2 C1     2s         0.0006   -0.0006    0.0015    0.0003    0.0024   -0.0005   -0.0005   -0.0001   -0.0002    0.3475
     3 C1     3s        -0.0007   -0.0005    0.0007    0.0002    0.0001   -0.0004   -0.0005   -0.0001   -0.0005   -0.0102
     4 C1     4s        -0.0004   -0.0001    0.0001    0.0001    0.0013   -0.0001   -0.0003   -0.0000   -0.0002    0.0019
     5 C1     2px       -0.0014   -0.0003    0.0017    0.0000    0.0011   -0.0006    0.0000   -0.0001   -0.0002   -0.0519
     6 C1     3px       -0.0009   -0.0005    0.0013   -0.0000    0.0013   -0.0007   -0.0003   -0.0002    0.0003    0.0246
     7 C1     4px        0.0002   -0.0001   -0.0001   -0.0000    0.0004   -0.0001   -0.0003   -0.0001    0.0003   -0.0159
     8 C1     2py        0.0027   -0.0001    0.0002   -0.0001    0.0012   -0.0005    0.0002   -0.0001   -0.0006    0.0940
     9 C1     3py        0.0018   -0.0002    0.0001   -0.0001    0.0010   -0.0008   -0.0004   -0.0002    0.0002   -0.0682
    10 C1     4py       -0.0004   -0.0001   -0.0000   -0.0000    0.0007   -0.0002   -0.0004   -0.0001    0.0003    0.0224
    11 C1     2pz        0.0001   -0.0000   -0.0000   -0.0000    0.0003    0.0002    0.0001   -0.0000    0.0000    0.0016
    12 C1     3pz        0.0000   -0.0000    0.0001   -0.0001    0.0001    0.0002    0.0001    0.0000    0.0001   -0.0074
    13 C1     4pz       -0.0000    0.0000    0.0000   -0.0001    0.0001    0.0000   -0.0000    0.0000    0.0000    0.0005
    14 C1     3d2-       0.0002   -0.0000    0.0001   -0.0000   -0.0004   -0.0000    0.0000   -0.0000    0.0000   -0.0337
    15 C1     3d1-       0.0000   -0.0000    0.0000   -0.0000    0.0000    0.0000   -0.0000    0.0000   -0.0000    0.0018
    16 C1     3d0       -0.0000    0.0000    0.0001   -0.0000   -0.0004    0.0000   -0.0001   -0.0000    0.0001   -0.0278
    17 C1     3d1+       0.0000   -0.0000   -0.0001    0.0000   -0.0000    0.0000    0.0000   -0.0000   -0.0000   -0.0010
    18 C1     3d2+       0.0001    0.0000   -0.0002    0.0000   -0.0000   -0.0000    0.0000    0.0000   -0.0000   -0.0076
    19 C3     1s         0.0001   -0.0000    0.0005   -0.0001   -0.0001    0.2310    0.9725    0.0001    0.0000   -0.0091
    20 C3     2s         0.0003   -0.0001    0.0025   -0.0004    0.0007    0.0002   -0.0014    0.0008    0.0004    0.0234
    21 C3     3s         0.0002   -0.0000    0.0012   -0.0002    0.0004   -0.0005   -0.0026    0.0005    0.0002   -0.0160
    22 C3     4s         0.0000   -0.0000    0.0002   -0.0001    0.0000    0.0002    0.0007    0.0000    0.0000   -0.0015
    23 C3     2px        0.0001    0.0001   -0.0003   -0.0003    0.0008   -0.0006   -0.0008    0.0003    0.0005   -0.0264
    24 C3     3px        0.0001   -0.0000   -0.0000   -0.0004    0.0013   -0.0011   -0.0008    0.0002    0.0006   -0.0139
    25 C3     4px        0.0000   -0.0001    0.0001   -0.0002    0.0004   -0.0003   -0.0004   -0.0001    0.0001   -0.0051
    26 C3     2py       -0.0003    0.0005   -0.0008   -0.0003    0.0004   -0.0003   -0.0005    0.0004   -0.0000   -0.0199
    27 C3     3py       -0.0002    0.0003   -0.0002   -0.0003    0.0006   -0.0004   -0.0004    0.0005    0.0001   -0.0024
    28 C3     4py        0.0000   -0.0001    0.0002   -0.0000    0.0001   -0.0003   -0.0008    0.0001    0.0001   -0.0038
    29 C3     2pz        0.0004   -0.0002   -0.0003    0.0000   -0.0003    0.0001    0.0008   -0.0003    0.0002   -0.0062
    30 C3     3pz        0.0004   -0.0001   -0.0003    0.0002   -0.0005    0.0005    0.0004   -0.0001    0.0002   -0.0044
    31 C3     4pz        0.0000    0.0001    0.0000    0.0002   -0.0001    0.0001   -0.0000    0.0001   -0.0000    0.0016
    32 C3     3d2-       0.0000    0.0001    0.0000    0.0000    0.0000   -0.0001    0.0000   -0.0000    0.0000    0.0032
    33 C3     3d1-      -0.0000   -0.0001    0.0000    0.0000   -0.0000    0.0000    0.0000    0.0000   -0.0000   -0.0004
    34 C3     3d0       -0.0000   -0.0000    0.0001   -0.0000   -0.0001    0.0000   -0.0000    0.0000   -0.0000   -0.0026
    35 C3     3d1+       0.0000   -0.0001    0.0000   -0.0000    0.0000    0.0001    0.0001   -0.0001    0.0000   -0.0014
    36 C3     3d2+      -0.0000    0.0000    0.0001   -0.0000    0.0000    0.0001    0.0000    0.0000   -0.0000   -0.0010
    37 C4     1s         0.0000    0.0003   -0.0003    0.0003   -0.0002    0.9730   -0.2309    0.0003    0.0000   -0.0011
    38 C4     2s         0.0002    0.0007   -0.0020    0.0011   -0.0012    0.0028    0.0003   -0.0007   -0.0000    0.0301
    39 C4     3s         0.0001   -0.0006   -0.0014    0.0005   -0.0010    0.0003    0.0002   -0.0006   -0.0001    0.0074
    40 C4     4s        -0.0000   -0.0004   -0.0004    0.0001   -0.0003    0.0014   -0.0003   -0.0002   -0.0000    0.0032
    41 C4     2px        0.0001    0.0005    0.0006    0.0009    0.0004    0.0006   -0.0009   -0.0001    0.0001   -0.0079
    42 C4     3px        0.0003    0.0004    0.0008    0.0007    0.0006    0.0004   -0.0002   -0.0007    0.0001   -0.0110
    43 C4     4px        0.0001   -0.0001    0.0002   -0.0000    0.0001    0.0004    0.0002   -0.0004    0.0001   -0.0037
    44 C4     2py        0.0001   -0.0024   -0.0002    0.0012    0.0001    0.0007   -0.0003   -0.0004    0.0002   -0.0116
    45 C4     3py        0.0000   -0.0016    0.0000    0.0009    0.0001    0.0006    0.0001   -0.0006    0.0002   -0.0068
    46 C4     4py       -0.0000    0.0003    0.0002   -0.0001    0.0000    0.0001    0.0002   -0.0002    0.0000   -0.0022
    47 C4     2pz       -0.0002   -0.0016   -0.0006   -0.0004   -0.0002    0.0002    0.0008   -0.0000   -0.0002    0.0075
    48 C4     3pz       -0.0004   -0.0011   -0.0006   -0.0003   -0.0003   -0.0000    0.0004    0.0005   -0.0003    0.0114
    49 C4     4pz       -0.0001    0.0002   -0.0000    0.0001   -0.0001   -0.0002   -0.0001    0.0004   -0.0001    0.0028
    50 C4     3d2-       0.0000    0.0001    0.0000   -0.0001   -0.0000    0.0001   -0.0001    0.0001   -0.0000    0.0001
    51 C4     3d1-      -0.0000   -0.0001    0.0000   -0.0000   -0.0000    0.0002   -0.0001   -0.0000   -0.0000    0.0013
    52 C4     3d0       -0.0000    0.0000   -0.0000    0.0001    0.0000   -0.0002    0.0001   -0.0000   -0.0000   -0.0002
    53 C4     3d1+      -0.0000   -0.0001   -0.0000    0.0000    0.0000   -0.0001    0.0000   -0.0000   -0.0000   -0.0007
    54 C4     3d2+       0.0000    0.0001   -0.0001    0.0001    0.0000   -0.0004    0.0002   -0.0000    0.0000   -0.0014
    55 C6     1s         0.0001    0.0001    0.0000    0.0003   -0.0001   -0.0004    0.0003    0.9997   -0.0000    0.0003
    56 C6     2s         0.0003    0.0006    0.0003    0.0014   -0.0005   -0.0000    0.0010    0.0000   -0.0003    0.0068
    57 C6     3s         0.0002    0.0004    0.0001    0.0003   -0.0005   -0.0003    0.0007   -0.0016   -0.0003    0.0067
    58 C6     4s         0.0000    0.0001   -0.0000   -0.0001   -0.0002   -0.0002    0.0002    0.0009   -0.0001    0.0029
    59 C6     2px        0.0001   -0.0001   -0.0000   -0.0003    0.0002    0.0001   -0.0003   -0.0000    0.0001   -0.0058
    60 C6     3px        0.0001   -0.0001   -0.0000    0.0001    0.0002    0.0002   -0.0003    0.0001    0.0001   -0.0054
    61 C6     4px        0.0000    0.0000   -0.0000    0.0002    0.0000    0.0001    0.0000   -0.0005    0.0000   -0.0004
    62 C6     2py        0.0000   -0.0002    0.0001    0.0001   -0.0000    0.0003   -0.0000    0.0002    0.0000   -0.0016
    63 C6     3py        0.0001   -0.0001    0.0001    0.0002    0.0000    0.0005   -0.0001   -0.0000    0.0000   -0.0024
    64 C6     4py        0.0000    0.0001   -0.0000    0.0000    0.0000    0.0001   -0.0001   -0.0001    0.0000   -0.0008
    65 C6     2pz        0.0001    0.0002   -0.0000    0.0003   -0.0002   -0.0003    0.0002    0.0000   -0.0001    0.0035
    66 C6     3pz        0.0001    0.0002   -0.0000   -0.0001   -0.0003   -0.0003    0.0002   -0.0002   -0.0001    0.0033
    67 C6     4pz       -0.0000   -0.0000   -0.0000   -0.0002   -0.0000   -0.0001   -0.0000    0.0005   -0.0000    0.0006
    68 C6     3d2-       0.0000    0.0000   -0.0000   -0.0000    0.0000    0.0000   -0.0000    0.0000    0.0000   -0.0000
    69 C6     3d1-       0.0000   -0.0000    0.0000   -0.0001    0.0000   -0.0000    0.0000   -0.0000    0.0000   -0.0002
    70 C6     3d0       -0.0000    0.0000    0.0000   -0.0000   -0.0000   -0.0000    0.0000   -0.0001   -0.0000    0.0002
    71 C6     3d1+       0.0000   -0.0000    0.0000    0.0001    0.0000   -0.0000   -0.0000    0.0001    0.0000   -0.0004
    72 C6     3d2+       0.0000    0.0000   -0.0000    0.0000   -0.0000   -0.0000    0.0000   -0.0000   -0.0000    0.0002
    73 C19    1s         0.0002    0.0000   -0.0000   -0.0000    0.0036   -0.0000    0.0002   -0.0000    0.9999   -0.0142
    74 C19    2s         0.0011    0.0002   -0.0002   -0.0002    0.0004   -0.0003    0.0007   -0.0001    0.0019   -0.0109
    75 C19    3s         0.0007    0.0000   -0.0001   -0.0001    0.0001   -0.0003    0.0003   -0.0001   -0.0004   -0.0387
    76 C19    4s         0.0001   -0.0000   -0.0000   -0.0000    0.0001   -0.0001   -0.0001   -0.0001    0.0013   -0.0039
    77 C19    2px        0.0008    0.0001   -0.0004   -0.0000   -0.0002    0.0000    0.0001   -0.0000   -0.0002   -0.0102
    78 C19    3px        0.0005    0.0001   -0.0003   -0.0000   -0.0003    0.0001    0.0001    0.0000   -0.0001   -0.0066
    79 C19    4px       -0.0002    0.0000    0.0000    0.0000   -0.0000    0.0000   -0.0000    0.0000    0.0002    0.0075
    80 C19    2py       -0.0001   -0.0001    0.0003   -0.0000    0.0004   -0.0001    0.0002   -0.0001   -0.0002    0.0195
    81 C19    3py       -0.0002   -0.0001    0.0003   -0.0000   -0.0001   -0.0001   -0.0000   -0.0001    0.0000   -0.0080
    82 C19    4py       -0.0001   -0.0000   -0.0001    0.0000   -0.0001   -0.0000   -0.0001   -0.0000    0.0004    0.0055
    83 C19    2pz       -0.0001   -0.0002    0.0001    0.0001    0.0001    0.0001    0.0003   -0.0000    0.0000   -0.0003
    84 C19    3pz       -0.0001   -0.0001    0.0001    0.0001    0.0001    0.0000    0.0002   -0.0000    0.0000   -0.0011
    85 C19    4pz       -0.0000   -0.0000   -0.0000    0.0000   -0.0000   -0.0000   -0.0000    0.0000    0.0000    0.0005
    86 C19    3d2-       0.0001    0.0000   -0.0000   -0.0000    0.0000    0.0000    0.0001   -0.0000   -0.0001    0.0000
    87 C19    3d1-       0.0000    0.0000   -0.0000   -0.0000   -0.0000   -0.0000   -0.0000    0.0000   -0.0000    0.0004
    88 C19    3d0       -0.0001    0.0000   -0.0001    0.0000    0.0001    0.0000   -0.0000    0.0000    0.0001    0.0015
    89 C19    3d1+       0.0000    0.0000   -0.0000   -0.0000   -0.0000   -0.0000   -0.0000    0.0000   -0.0000    0.0001
    90 C19    3d2+       0.0001   -0.0000   -0.0000   -0.0000   -0.0001    0.0000   -0.0000   -0.0000    0.0001   -0.0070
    91 N2     1s         0.0001    0.0001    0.9998   -0.0000   -0.0002    0.0001    0.0000    0.0000    0.0001   -0.0178
    92 N2     2s         0.0006    0.0004   -0.0004    0.0001   -0.0001    0.0006    0.0012    0.0001    0.0006    0.1140
    93 N2     3s         0.0005    0.0003   -0.0016    0.0001   -0.0002    0.0004    0.0006    0.0001    0.0004   -0.0491
    94 N2     4s         0.0001    0.0001    0.0004    0.0000    0.0001    0.0001    0.0002    0.0000    0.0001   -0.0120
    95 N2     2px        0.0001   -0.0001    0.0005    0.0002   -0.0002    0.0001    0.0007   -0.0001   -0.0003   -0.0327
    96 N2     3px        0.0001   -0.0002    0.0006    0.0004    0.0001    0.0001    0.0005   -0.0002   -0.0002    0.0127
    97 N2     4px        0.0000   -0.0001   -0.0002    0.0000   -0.0002    0.0000   -0.0000   -0.0000    0.0001   -0.0058
    98 N2     2py       -0.0012    0.0001   -0.0007    0.0001    0.0002    0.0002    0.0006    0.0000   -0.0002    0.0346
    99 N2     3py       -0.0015    0.0000   -0.0002    0.0001    0.0001    0.0002    0.0005   -0.0000   -0.0001    0.0130
   100 N2     4py       -0.0000   -0.0001    0.0005   -0.0000   -0.0001    0.0000    0.0002   -0.0000    0.0001   -0.0055
   101 N2     2pz       -0.0002    0.0002   -0.0004   -0.0002   -0.0000   -0.0001   -0.0004    0.0001   -0.0002    0.0048
   102 N2     3pz       -0.0002    0.0003   -0.0000   -0.0002   -0.0003   -0.0003   -0.0006    0.0001   -0.0003    0.0168
   103 N2     4pz        0.0000    0.0000   -0.0004   -0.0000   -0.0001   -0.0001   -0.0001    0.0000   -0.0000    0.0004
   104 N2     3d2-       0.0001    0.0000   -0.0002    0.0000   -0.0001    0.0000   -0.0000   -0.0000   -0.0000   -0.0027
   105 N2     3d1-       0.0000   -0.0000    0.0001    0.0000   -0.0000   -0.0000    0.0000    0.0000    0.0000   -0.0013
   106 N2     3d0       -0.0000   -0.0000    0.0000    0.0000    0.0001   -0.0000    0.0001    0.0000   -0.0001   -0.0027
   107 N2     3d1+      -0.0000    0.0000   -0.0000   -0.0000   -0.0000   -0.0000    0.0000    0.0000   -0.0000    0.0001
   108 N2     3d2+      -0.0000   -0.0000   -0.0000   -0.0000    0.0001   -0.0000   -0.0000   -0.0000    0.0000    0.0046
   109 N5     1s        -0.0000    0.0001    0.0001    0.9999    0.0001   -0.0003    0.0001    0.0001    0.0000   -0.0014
   110 N5     2s        -0.0000    0.0009    0.0004    0.0006    0.0004   -0.0003    0.0000    0.0017    0.0001    0.0022
   111 N5     3s        -0.0000    0.0006    0.0003   -0.0010    0.0002   -0.0004    0.0000    0.0010    0.0000   -0.0035
   112 N5     4s         0.0000    0.0001    0.0001    0.0006    0.0001    0.0000   -0.0000    0.0004   -0.0000   -0.0005
   113 N5     2px       -0.0002   -0.0007   -0.0004   -0.0004    0.0001    0.0002   -0.0005    0.0007    0.0001   -0.0008
   114 N5     3px       -0.0003   -0.0009   -0.0005   -0.0002    0.0002    0.0000   -0.0006    0.0006    0.0002   -0.0010
   115 N5     4px       -0.0000    0.0000    0.0000    0.0000    0.0001   -0.0002    0.0000    0.0001    0.0000   -0.0006
   116 N5     2py        0.0001    0.0008   -0.0002    0.0007    0.0001   -0.0004   -0.0003    0.0002    0.0001   -0.0050
   117 N5     3py        0.0001    0.0009   -0.0002    0.0003    0.0002   -0.0002   -0.0003   -0.0001    0.0001   -0.0035
   118 N5     4py       -0.0000    0.0000    0.0000   -0.0003    0.0000   -0.0001    0.0001   -0.0001    0.0000   -0.0003
   119 N5     2pz        0.0002    0.0011    0.0003    0.0006   -0.0003   -0.0000    0.0004   -0.0007   -0.0001    0.0021
   120 N5     3pz        0.0003    0.0013    0.0003    0.0004   -0.0005   -0.0000    0.0007   -0.0007   -0.0002    0.0044
   121 N5     4pz        0.0000   -0.0000   -0.0000   -0.0002   -0.0001    0.0001    0.0001   -0.0002   -0.0000    0.0018
   122 N5     3d2-      -0.0000    0.0000    0.0000   -0.0001   -0.0000   -0.0000    0.0001   -0.0001   -0.0000    0.0001
   123 N5     3d1-       0.0000    0.0000   -0.0000    0.0001    0.0000   -0.0000   -0.0000   -0.0000    0.0000   -0.0003
   124 N5     3d0       -0.0000    0.0000   -0.0000   -0.0000   -0.0000   -0.0000   -0.0000    0.0000   -0.0000    0.0000
   125 N5     3d1+      -0.0000   -0.0001   -0.0000    0.0001    0.0000    0.0002   -0.0001    0.0001   -0.0000    0.0001
   126 N5     3d2+      -0.0000    0.0000   -0.0000   -0.0001   -0.0000   -0.0000   -0.0000    0.0000   -0.0000    0.0002
   127 O7     1s         0.9997    0.0000    0.0000   -0.0000   -0.0003    0.0000   -0.0000    0.0000    0.0001   -0.0239
   128 O7     2s        -0.0013    0.0001    0.0001   -0.0000    0.0003    0.0000   -0.0002    0.0000    0.0003    0.6913
   129 O7     3s        -0.0013    0.0001    0.0001   -0.0000   -0.0001    0.0001   -0.0001    0.0000    0.0003   -0.0341
   130 O7     4s         0.0001    0.0001   -0.0000   -0.0000    0.0000    0.0000    0.0000    0.0000    0.0001   -0.0139
   131 O7     2px        0.0002    0.0001   -0.0003    0.0000    0.0004    0.0000   -0.0001    0.0000    0.0001    0.0919
   132 O7     3px       -0.0003    0.0002   -0.0004    0.0000   -0.0001    0.0000   -0.0001    0.0000    0.0001   -0.0261
   133 O7     4px        0.0008    0.0000   -0.0001    0.0000    0.0001    0.0000    0.0000    0.0000   -0.0000   -0.0011
   134 O7     2py       -0.0002   -0.0000   -0.0002    0.0000   -0.0006    0.0001   -0.0000    0.0000   -0.0001   -0.1173
   135 O7     3py        0.0005    0.0000   -0.0001   -0.0000   -0.0003    0.0001   -0.0001    0.0000   -0.0001    0.0359
   136 O7     4py       -0.0011    0.0000    0.0001   -0.0000   -0.0003    0.0000   -0.0000    0.0000    0.0000    0.0000
   137 O7     2pz       -0.0000   -0.0000   -0.0001    0.0000    0.0001   -0.0000   -0.0000   -0.0000   -0.0000    0.0010
   138 O7     3pz       -0.0000   -0.0000   -0.0000    0.0000   -0.0000   -0.0001    0.0000   -0.0000   -0.0000    0.0024
   139 O7     4pz       -0.0000   -0.0000   -0.0000    0.0000   -0.0000   -0.0000    0.0000   -0.0000   -0.0000    0.0004
   140 O7     3d2-       0.0001   -0.0000    0.0000   -0.0000   -0.0002    0.0000    0.0000    0.0000   -0.0000   -0.0185
   141 O7     3d1-       0.0000   -0.0000    0.0000    0.0000    0.0000    0.0000    0.0000   -0.0000    0.0000    0.0003
   142 O7     3d0       -0.0000   -0.0000   -0.0001    0.0000   -0.0001    0.0000   -0.0000   -0.0000   -0.0000   -0.0107
   143 O7     3d1+       0.0000   -0.0000    0.0000   -0.0000   -0.0000    0.0000    0.0000   -0.0000    0.0000   -0.0004
   144 O7     3d2+       0.0000    0.0000   -0.0001   -0.0000   -0.0001    0.0000   -0.0000    0.0000   -0.0000   -0.0053
   145 O8     1s         0.0000    0.9997   -0.0000    0.0000    0.0000   -0.0002    0.0000   -0.0000    0.0000   -0.0016
   146 O8     2s         0.0001   -0.0011   -0.0002    0.0002    0.0001    0.0006   -0.0002   -0.0003    0.0000    0.0256
   147 O8     3s         0.0000   -0.0011   -0.0001    0.0001    0.0001    0.0001   -0.0001   -0.0001    0.0000   -0.0034
   148 O8     4s         0.0000    0.0002   -0.0000    0.0000    0.0000    0.0001   -0.0000   -0.0000   -0.0000   -0.0010
   149 O8     2px       -0.0001   -0.0000    0.0000   -0.0002    0.0000    0.0002    0.0001   -0.0000    0.0000   -0.0016
   150 O8     3px       -0.0001    0.0000    0.0000   -0.0002    0.0000   -0.0000    0.0002   -0.0000    0.0001   -0.0009
   151 O8     4px       -0.0001   -0.0002    0.0000    0.0000    0.0000   -0.0001    0.0001    0.0000    0.0000   -0.0006
   152 O8     2py        0.0000    0.0003   -0.0000   -0.0001    0.0000    0.0007   -0.0001   -0.0001    0.0000    0.0038
   153 O8     3py       -0.0000   -0.0004    0.0000   -0.0002    0.0001    0.0002    0.0000   -0.0000   -0.0000   -0.0024
   154 O8     4py       -0.0000    0.0011    0.0000   -0.0001    0.0000    0.0001   -0.0000    0.0000   -0.0000    0.0001
   155 O8     2pz        0.0001    0.0002   -0.0001    0.0001    0.0000    0.0005   -0.0002    0.0000    0.0000    0.0042
   156 O8     3pz        0.0001   -0.0002   -0.0000    0.0001   -0.0000    0.0001   -0.0002    0.0000    0.0000   -0.0011
   157 O8     4pz        0.0000    0.0007   -0.0000   -0.0001   -0.0000    0.0001   -0.0001    0.0000   -0.0000    0.0004
   158 O8     3d2-      -0.0000    0.0000    0.0000   -0.0000   -0.0000   -0.0001    0.0000   -0.0000    0.0000   -0.0002
   159 O8     3d1-       0.0000   -0.0001   -0.0000    0.0000   -0.0000    0.0002   -0.0000   -0.0000    0.0000    0.0007
   160 O8     3d0       -0.0000    0.0000   -0.0000    0.0000    0.0000   -0.0000    0.0000    0.0000    0.0000   -0.0000
   161 O8     3d1+      -0.0000   -0.0001   -0.0000   -0.0001    0.0000    0.0000   -0.0000   -0.0000    0.0000   -0.0003
   162 O8     3d2+      -0.0000    0.0001    0.0000    0.0000   -0.0000   -0.0002    0.0000    0.0000   -0.0000   -0.0004
   163 H9     1s         0.0002    0.0000   -0.0000   -0.0001   -0.0001   -0.0003   -0.0005   -0.0000    0.0003    0.0148
   164 H9     2s         0.0001    0.0000   -0.0000   -0.0000   -0.0000   -0.0002   -0.0003   -0.0000   -0.0003    0.0038
   165 H9     2px       -0.0000   -0.0000    0.0000   -0.0000    0.0000   -0.0000   -0.0001   -0.0000   -0.0000    0.0009
   166 H9     2py       -0.0001   -0.0000   -0.0000    0.0000    0.0001   -0.0000   -0.0000   -0.0000    0.0000    0.0013
   167 H9     2pz       -0.0000    0.0000    0.0000    0.0000   -0.0000    0.0000    0.0000    0.0000    0.0001   -0.0006
   168 H10    1s         0.0000   -0.0003    0.0002    0.0001    0.0002   -0.0000    0.0001   -0.0000    0.0004    0.0117
   169 H10    2s         0.0000   -0.0002    0.0001    0.0001    0.0002   -0.0000    0.0000   -0.0000   -0.0002    0.0014
   170 H10    2px       -0.0000   -0.0000    0.0001    0.0000    0.0001   -0.0000    0.0000   -0.0000   -0.0000    0.0006
   171 H10    2py       -0.0001   -0.0000   -0.0000   -0.0000    0.0001    0.0000   -0.0000   -0.0000    0.0000    0.0011
   172 H10    2pz        0.0000   -0.0000   -0.0000    0.0000    0.0001   -0.0000   -0.0000   -0.0000   -0.0001    0.0005
   173 H11    1s        -0.0005   -0.0001    0.0004    0.0000    0.0003   -0.0001   -0.0001   -0.0001    0.0004    0.0193
   174 H11    2s        -0.0003   -0.0001    0.0003    0.0000    0.0002   -0.0001   -0.0001   -0.0000   -0.0002    0.0051
   175 H11    2px       -0.0000    0.0000   -0.0001   -0.0000   -0.0000    0.0000    0.0000    0.0000    0.0001   -0.0001
   176 H11    2py       -0.0000   -0.0000    0.0000    0.0000    0.0001    0.0000   -0.0000   -0.0000   -0.0000    0.0019
   177 H11    2pz       -0.0000    0.0000   -0.0000   -0.0000   -0.0000   -0.0000   -0.0000    0.0000   -0.0000    0.0001
   178 H12    1s        -0.0008    0.0002   -0.0006   -0.0001    0.0001   -0.0001   -0.0003   -0.0000   -0.0004    0.0375
   179 H12    2s        -0.0005    0.0002   -0.0005   -0.0000    0.0000   -0.0001   -0.0002   -0.0000   -0.0002   -0.0027
   180 H12    2px        0.0000   -0.0000    0.0002    0.0000   -0.0001    0.0000    0.0000   -0.0000    0.0000   -0.0041
   181 H12    2py       -0.0000    0.0000   -0.0003    0.0000    0.0000    0.0000    0.0000   -0.0000   -0.0000    0.0039
   182 H12    2pz       -0.0001   -0.0000   -0.0002    0.0000    0.0000    0.0000   -0.0000   -0.0000   -0.0000    0.0020
   183 H13    1s         0.0005    0.0003   -0.0003    0.0001   -0.0003   -0.0001    0.0012   -0.0003    0.0002    0.0102
   184 H13    2s         0.0004    0.0002   -0.0001    0.0000   -0.0001   -0.0002    0.0003   -0.0002    0.0002   -0.0055
   185 H13    2px        0.0000    0.0000    0.0000   -0.0000   -0.0001    0.0001    0.0001   -0.0000   -0.0000   -0.0003
   186 H13    2py       -0.0000   -0.0001   -0.0000   -0.0000    0.0000    0.0000   -0.0001    0.0000   -0.0000   -0.0009
   187 H13    2pz       -0.0000   -0.0000    0.0000    0.0000    0.0000   -0.0000   -0.0000   -0.0000   -0.0000    0.0008
   188 H14    1s         0.0001    0.0005   -0.0003    0.0001   -0.0005    0.0001    0.0008   -0.0002   -0.0004    0.0176
   189 H14    2s         0.0000    0.0003   -0.0001    0.0001   -0.0003   -0.0000    0.0001   -0.0002   -0.0003    0.0063
   190 H14    2px       -0.0000   -0.0000    0.0000   -0.0000    0.0000    0.0001    0.0000    0.0000    0.0000   -0.0008
   191 H14    2py       -0.0000   -0.0001    0.0000   -0.0000    0.0000    0.0000   -0.0000   -0.0000    0.0000   -0.0006
   192 H14    2pz        0.0000   -0.0000   -0.0000    0.0000    0.0000   -0.0001    0.0001    0.0000    0.0000   -0.0011
   193 H15    1s        -0.0003   -0.0013   -0.0001   -0.0008   -0.0002    0.0004    0.0001   -0.0001   -0.0001    0.0089
   194 H15    2s        -0.0002   -0.0008   -0.0001   -0.0005   -0.0001    0.0002    0.0001   -0.0000   -0.0001    0.0046
   195 H15    2px       -0.0000   -0.0000    0.0000   -0.0001   -0.0000   -0.0000    0.0000    0.0000   -0.0000    0.0003
   196 H15    2py        0.0000    0.0001    0.0000    0.0004    0.0000   -0.0002   -0.0000    0.0000    0.0000   -0.0010
   197 H15    2pz        0.0000    0.0000   -0.0000    0.0003    0.0000    0.0000   -0.0000   -0.0000    0.0000   -0.0006
   198 H16    1s         0.0000    0.0004   -0.0001   -0.0005   -0.0002   -0.0004   -0.0000    0.0005   -0.0000    0.0030
   199 H16    2s         0.0000    0.0002   -0.0001   -0.0002   -0.0001   -0.0004    0.0000   -0.0001   -0.0000    0.0023
   200 H16    2px       -0.0000   -0.0000   -0.0000    0.0000   -0.0000   -0.0000    0.0000   -0.0000   -0.0000    0.0002
   201 H16    2py       -0.0000   -0.0000    0.0000    0.0000    0.0000    0.0001   -0.0000    0.0000    0.0000   -0.0001
   202 H16    2pz       -0.0000    0.0000   -0.0000   -0.0000   -0.0000   -0.0001    0.0000    0.0000   -0.0000    0.0002
   203 H17    1s        -0.0002    0.0002   -0.0000   -0.0004   -0.0000   -0.0003    0.0002    0.0005   -0.0000    0.0039
   204 H17    2s        -0.0001    0.0001    0.0000   -0.0002   -0.0000   -0.0002    0.0001   -0.0001   -0.0000    0.0027
   205 H17    2px        0.0000   -0.0000    0.0000    0.0000    0.0000    0.0001   -0.0000   -0.0000    0.0000   -0.0004
   206 H17    2py        0.0000   -0.0000   -0.0000    0.0000    0.0000    0.0000   -0.0000   -0.0000    0.0000   -0.0001
   207 H17    2pz        0.0000    0.0000    0.0000   -0.0000    0.0000    0.0000   -0.0000    0.0000    0.0000   -0.0003
   208 H18    1s        -0.0000    0.0000   -0.0001   -0.0002   -0.0002   -0.0000    0.0000    0.0010   -0.0001    0.0042
   209 H18    2s        -0.0000    0.0001   -0.0000   -0.0000   -0.0002    0.0000   -0.0000    0.0001   -0.0001    0.0026
   210 H18    2px       -0.0000   -0.0000    0.0000    0.0000    0.0000   -0.0000    0.0000   -0.0000   -0.0000   -0.0000
   211 H18    2py       -0.0000    0.0000    0.0000    0.0000   -0.0000   -0.0000    0.0000    0.0001   -0.0000    0.0004
   212 H18    2pz       -0.0000   -0.0000   -0.0000    0.0000   -0.0000    0.0000    0.0000    0.0001   -0.0000    0.0003
 
 
      Orbital                11        12        13        14        15        16        17        18        19        20
      Energy            -1.3620   -1.2526   -1.2133   -1.0268   -0.9707   -0.9123   -0.8114   -0.7763   -0.7173   -0.6922
      Occ. No.           2.0000    2.0000    2.0000    2.0000    2.0000    2.0000    2.0000    2.0000    2.0000    2.0000
 
     1 C1     1s         0.0041   -0.0078    0.0023   -0.0174   -0.0012    0.0070    0.0152    0.0015    0.0061    0.0034
     2 C1     2s         0.0084    0.1326    0.0116    0.2672   -0.0461   -0.0882   -0.3793   -0.0197   -0.2473   -0.0820
     3 C1     3s         0.0168    0.0010    0.0138   -0.0248   -0.0075    0.0118    0.0091    0.0039    0.0047    0.0179
     4 C1     4s         0.0048    0.0002    0.0041   -0.0069   -0.0023    0.0046    0.0035    0.0017    0.0031    0.0034
     5 C1     2px        0.0353    0.1492    0.0166   -0.0129    0.0975   -0.0962   -0.1248   -0.0062    0.1399    0.2730
     6 C1     3px        0.0176   -0.0495    0.0256   -0.0541   -0.0207    0.0364    0.0218   -0.0053   -0.0624   -0.0675
     7 C1     4px        0.0082    0.0234    0.0040   -0.0093    0.0134   -0.0076   -0.0102   -0.0006    0.0056    0.0173
     8 C1     2py        0.0066   -0.0335    0.0186   -0.1642    0.0618   -0.0012   -0.0545    0.0353    0.0598   -0.1323
     9 C1     3py        0.0267    0.0417    0.0219    0.0074   -0.0503    0.0441    0.0122   -0.0055   -0.0105    0.0558
    10 C1     4py        0.0016   -0.0048    0.0040   -0.0270    0.0067    0.0049   -0.0079    0.0015   -0.0014   -0.0083
    11 C1     2pz       -0.0022   -0.0116   -0.0036    0.0015    0.0120   -0.0125   -0.0244    0.0048    0.0116   -0.0006
    12 C1     3pz       -0.0023   -0.0132   -0.0053    0.0047    0.0071   -0.0080   -0.0010    0.0021    0.0009   -0.0013
    13 C1     4pz       -0.0006   -0.0008   -0.0008    0.0016    0.0021   -0.0030   -0.0015    0.0007    0.0024   -0.0007
    14 C1     3d2-       0.0040    0.0166   -0.0001    0.0085   -0.0083    0.0065   -0.0124    0.0071    0.0173    0.0087
    15 C1     3d1-      -0.0002   -0.0008   -0.0001    0.0009   -0.0005    0.0003   -0.0015    0.0004   -0.0007   -0.0016
    16 C1     3d0        0.0007   -0.0066   -0.0001   -0.0111   -0.0001    0.0053    0.0131    0.0007    0.0061    0.0026
    17 C1     3d1+      -0.0002    0.0004   -0.0002    0.0018    0.0015   -0.0016   -0.0049    0.0012    0.0044    0.0022
    18 C1     3d2+       0.0031    0.0270   -0.0005    0.0011    0.0149   -0.0139   -0.0083   -0.0012    0.0129    0.0172
    19 C3     1s        -0.0156   -0.0302   -0.0071    0.0340    0.0251   -0.0238    0.0079   -0.0065   -0.0007    0.0011
    20 C3     2s         0.0277    0.1750    0.0150   -0.2791   -0.2453    0.3163   -0.0960    0.0735   -0.0402    0.0383
    21 C3     3s        -0.0384   -0.0500   -0.0201    0.0597    0.0414   -0.0223    0.0158   -0.0130   -0.0000    0.0023
    22 C3     4s        -0.0051   -0.0107   -0.0027    0.0159    0.0106   -0.0061    0.0043   -0.0044    0.0019   -0.0017
    23 C3     2px        0.0103   -0.0496    0.0244   -0.0360   -0.0732    0.0006    0.0505   -0.1138   -0.2279    0.0540
    24 C3     3px        0.0044    0.0092    0.0134   -0.0413    0.0018    0.0101   -0.0161    0.0239    0.0334   -0.0061
    25 C3     4px        0.0091   -0.0047    0.0052   -0.0083   -0.0025   -0.0015    0.0029   -0.0041   -0.0043    0.0017
    26 C3     2py       -0.0325   -0.0925    0.0109   -0.0017   -0.0488   -0.0313   -0.1464    0.0054   -0.0474    0.2226
    27 C3     3py       -0.0001    0.0194   -0.0018   -0.0401    0.0042   -0.0263    0.0059    0.0161    0.0086   -0.0281
    28 C3     4py        0.0072   -0.0019    0.0042   -0.0126   -0.0091    0.0033   -0.0081    0.0082   -0.0031    0.0096
    29 C3     2pz       -0.0162    0.0068   -0.0168    0.0079    0.0325    0.0219   -0.0094    0.1081    0.1408   -0.0981
    30 C3     3pz        0.0072    0.0018   -0.0076   -0.0119   -0.0262    0.0068   -0.0055   -0.0101   -0.0166    0.0130
    31 C3     4pz       -0.0061    0.0071   -0.0029   -0.0056   -0.0055    0.0111   -0.0006    0.0077   -0.0013   -0.0001
    32 C3     3d2-      -0.0011    0.0184    0.0032   -0.0035    0.0051   -0.0013    0.0039    0.0045    0.0137   -0.0167
    33 C3     3d1-       0.0033   -0.0037   -0.0046    0.0017   -0.0007    0.0013    0.0003   -0.0016   -0.0107    0.0059
    34 C3     3d0        0.0009   -0.0107    0.0001    0.0021   -0.0074   -0.0013   -0.0023   -0.0087   -0.0170    0.0097
    35 C3     3d1+      -0.0024   -0.0046   -0.0021    0.0058    0.0084    0.0001   -0.0015    0.0098    0.0098   -0.0023
    36 C3     3d2+      -0.0006   -0.0111    0.0021    0.0014   -0.0079   -0.0029   -0.0179   -0.0061   -0.0060    0.0176
    37 C4     1s        -0.0397    0.0080   -0.0057    0.0073    0.0156    0.0078    0.0036    0.0162    0.0029   -0.0022
    38 C4     2s         0.3611    0.0112    0.1241   -0.1098   -0.2264   -0.0428   -0.0434   -0.3982   -0.0753    0.0427
    39 C4     3s        -0.0055    0.0230    0.0095    0.0118    0.0148    0.0198    0.0061    0.0093    0.0039   -0.0027
    40 C4     4s         0.0027    0.0064    0.0029    0.0042    0.0046    0.0061    0.0014    0.0051    0.0035   -0.0022
    41 C4     2px        0.0342   -0.0394    0.0691    0.0436    0.0662   -0.0471   -0.0044   -0.0655    0.1358   -0.0622
    42 C4     3px       -0.0082   -0.0097    0.0260   -0.0173    0.0436    0.0729    0.0000    0.0041   -0.0590    0.0319
    43 C4     4px        0.0081   -0.0086    0.0178    0.0027    0.0148    0.0027   -0.0018   -0.0058    0.0029   -0.0003
    44 C4     2py       -0.0749   -0.0037    0.1611   -0.0289   -0.0585   -0.0732   -0.0215   -0.0933    0.0548    0.0120
    45 C4     3py        0.0537   -0.0379   -0.0400    0.0026    0.0466    0.0384   -0.0128    0.0229   -0.0255    0.0004
    46 C4     4py       -0.0203   -0.0052    0.0313   -0.0037   -0.0040   -0.0048   -0.0092   -0.0029    0.0034    0.0020
    47 C4     2pz       -0.0615    0.0402   -0.0094   -0.0617   -0.1032    0.0130    0.0127    0.0071   -0.1474    0.0668
    48 C4     3pz        0.0246   -0.0087   -0.0510    0.0274   -0.0131   -0.0783    0.0072    0.0037    0.0596   -0.0342
    49 C4     4pz       -0.0179    0.0081   -0.0069   -0.0066   -0.0157   -0.0072    0.0033    0.0035   -0.0038   -0.0003
    50 C4     3d2-      -0.0020    0.0015    0.0215   -0.0005   -0.0058   -0.0122    0.0037   -0.0142    0.0102   -0.0091
    51 C4     3d1-       0.0290   -0.0067   -0.0184    0.0005   -0.0011    0.0025   -0.0047    0.0083   -0.0095    0.0107
    52 C4     3d0       -0.0078    0.0028   -0.0089   -0.0033    0.0012    0.0124    0.0001    0.0022   -0.0091    0.0017
    53 C4     3d1+      -0.0105   -0.0023   -0.0034    0.0085    0.0098   -0.0073    0.0035    0.0145    0.0027   -0.0008
    54 C4     3d2+      -0.0283    0.0075    0.0001   -0.0035    0.0031    0.0131   -0.0014   -0.0011    0.0008   -0.0016
    55 C6     1s        -0.0095    0.0039   -0.0349   -0.0110   -0.0381   -0.0425    0.0060    0.0073    0.0065   -0.0055
    56 C6     2s         0.0253    0.0014    0.1553    0.1015    0.2590    0.3623   -0.0291   -0.1162   -0.0506    0.0401
    57 C6     3s        -0.0147    0.0169   -0.0615   -0.0078   -0.0725   -0.0705    0.0178    0.0114    0.0172   -0.0155
    58 C6     4s        -0.0004    0.0054   -0.0101   -0.0001   -0.0159   -0.0142    0.0044    0.0033    0.0045   -0.0041
    59 C6     2px       -0.0175    0.0005   -0.0691   -0.0203   -0.0093    0.0343   -0.0213   -0.0531   -0.0843    0.0871
    60 C6     3px        0.0023   -0.0062    0.0159   -0.0014    0.0152    0.0087   -0.0020    0.0039    0.0123   -0.0135
    61 C6     4px       -0.0024   -0.0007   -0.0004    0.0033    0.0100    0.0136   -0.0022   -0.0058   -0.0045    0.0041
    62 C6     2py       -0.0087    0.0003   -0.0100   -0.0048    0.0078    0.0157    0.0103    0.1079   -0.1121    0.0676
    63 C6     3py       -0.0008   -0.0022    0.0040   -0.0013    0.0112    0.0111   -0.0027   -0.0015    0.0097   -0.0060
    64 C6     4py       -0.0008   -0.0001    0.0022    0.0010    0.0036    0.0027    0.0021    0.0056   -0.0061    0.0035
    65 C6     2pz        0.0157    0.0036    0.0799    0.0176    0.0121   -0.0211    0.0283    0.1018    0.0480   -0.0797
    66 C6     3pz       -0.0020    0.0108   -0.0123   -0.0030   -0.0169    0.0046   -0.0020   -0.0069   -0.0110    0.0143
    67 C6     4pz        0.0029    0.0012    0.0014   -0.0029   -0.0105   -0.0142    0.0028    0.0089    0.0023   -0.0036
    68 C6     3d2-       0.0009   -0.0001    0.0014    0.0003   -0.0000   -0.0006   -0.0009   -0.0078    0.0061   -0.0036
    69 C6     3d1-      -0.0009    0.0001   -0.0021    0.0001    0.0012    0.0021    0.0007    0.0053   -0.0034    0.0017
    70 C6     3d0        0.0014   -0.0003    0.0080    0.0015    0.0020   -0.0010    0.0019    0.0093    0.0006   -0.0030
    71 C6     3d1+      -0.0046    0.0011   -0.0203   -0.0048   -0.0063    0.0025   -0.0033   -0.0094   -0.0135    0.0142
    72 C6     3d2+       0.0015   -0.0001    0.0096    0.0013    0.0013   -0.0021    0.0022    0.0091    0.0007   -0.0035
    73 C19    1s         0.0010   -0.0088    0.0014   -0.0572    0.0412   -0.0212   -0.0127   -0.0040   -0.0091    0.0011
    74 C19    2s         0.0060    0.0083    0.0080    0.3027   -0.2713    0.1668    0.0805    0.0335    0.0941    0.0065
    75 C19    3s         0.0075   -0.0221    0.0101   -0.1160    0.0751   -0.0334   -0.0333   -0.0086   -0.0173    0.0096
    76 C19    4s         0.0030   -0.0023    0.0036   -0.0255    0.0170   -0.0072   -0.0095   -0.0023   -0.0053    0.0027
    77 C19    2px        0.0019    0.0273   -0.0003    0.0514   -0.0013   -0.0251   -0.0416   -0.0249   -0.0538    0.1288
    78 C19    3px       -0.0016    0.0024   -0.0007    0.0038    0.0022   -0.0000    0.0041    0.0035    0.0108   -0.0104
    79 C19    4px       -0.0014    0.0002   -0.0008   -0.0073    0.0113   -0.0088   -0.0015   -0.0030   -0.0058    0.0029
    80 C19    2py        0.0032    0.0080    0.0059    0.0470   -0.0120   -0.0172   -0.0695   -0.0329   -0.2027   -0.0722
    81 C19    3py        0.0050   -0.0039    0.0066   -0.0338    0.0181   -0.0028    0.0108    0.0007    0.0211    0.0136
    82 C19    4py        0.0003    0.0007    0.0002   -0.0136    0.0144   -0.0098   -0.0136   -0.0013   -0.0084   -0.0021
    83 C19    2pz        0.0023   -0.0059   -0.0005    0.0023    0.0013   -0.0025   -0.0092   -0.0029   -0.0028   -0.0004
    84 C19    3pz        0.0029   -0.0058   -0.0001   -0.0030    0.0010    0.0002   -0.0003   -0.0024    0.0006    0.0004
    85 C19    4pz        0.0004    0.0005    0.0003   -0.0009   -0.0004    0.0003   -0.0007   -0.0004   -0.0003    0.0002
    86 C19    3d2-       0.0003    0.0059   -0.0002    0.0105   -0.0019   -0.0029   -0.0073   -0.0025   -0.0127   -0.0015
    87 C19    3d1-       0.0000    0.0004    0.0001    0.0013   -0.0007   -0.0000   -0.0010   -0.0003   -0.0012    0.0004
    88 C19    3d0       -0.0001   -0.0010   -0.0000   -0.0088    0.0039    0.0006    0.0035    0.0024    0.0082   -0.0075
    89 C19    3d1+       0.0000    0.0009    0.0002    0.0003   -0.0005    0.0003   -0.0000   -0.0001   -0.0010   -0.0002
    90 C19    3d2+       0.0006    0.0020   -0.0002   -0.0080    0.0049   -0.0007    0.0041    0.0019    0.0144    0.0061
    91 N2     1s        -0.0075   -0.0415   -0.0007   -0.0032   -0.0040    0.0010   -0.0041    0.0011    0.0022   -0.0002
    92 N2     2s         0.0531    0.5791   -0.0208   -0.0130    0.2061   -0.1305    0.1520   -0.0058    0.1264   -0.0477
    93 N2     3s        -0.0198   -0.0827   -0.0064   -0.0073    0.0052   -0.0063   -0.0081    0.0063    0.0102    0.0011
    94 N2     4s        -0.0050   -0.0265   -0.0011   -0.0003   -0.0009   -0.0003   -0.0031    0.0016   -0.0002    0.0007
    95 N2     2px        0.0138   -0.0337    0.0043   -0.1404   -0.0374    0.1233    0.3786   -0.0123   -0.0936   -0.2854
    96 N2     3px        0.0056   -0.0104    0.0071    0.0156    0.0412   -0.0490   -0.0947   -0.0055   -0.0045    0.0590
    97 N2     4px        0.0037    0.0017    0.0018   -0.0073    0.0073   -0.0035    0.0013   -0.0015   -0.0016    0.0065
    98 N2     2py       -0.0012    0.0030    0.0043   -0.1263   -0.0466    0.1248   -0.2003    0.1549    0.2493   -0.1904
    99 N2     3py       -0.0106   -0.0392   -0.0011    0.0365    0.0445   -0.0535    0.0194   -0.0396   -0.0508    0.0273
   100 N2     4py        0.0007   -0.0110    0.0006   -0.0008    0.0043   -0.0039   -0.0077   -0.0027   -0.0017    0.0046
   101 N2     2pz       -0.0083   -0.0142    0.0072    0.0117   -0.0130    0.0048   -0.0509    0.0264    0.0697   -0.0162
   102 N2     3pz        0.0016    0.0377    0.0051    0.0060   -0.0122    0.0045    0.0246   -0.0095   -0.0129    0.0031
   103 N2     4pz       -0.0011    0.0012    0.0004    0.0009   -0.0020    0.0018   -0.0006   -0.0001   -0.0012    0.0015
   104 N2     3d2-       0.0010    0.0075    0.0001   -0.0015   -0.0068    0.0083   -0.0053    0.0043    0.0058   -0.0029
   105 N2     3d1-      -0.0001    0.0004   -0.0005    0.0036    0.0031   -0.0038    0.0077   -0.0026   -0.0050    0.0026
   106 N2     3d0       -0.0013   -0.0153    0.0004    0.0011   -0.0033    0.0012    0.0027   -0.0013   -0.0044   -0.0000
   107 N2     3d1+      -0.0008   -0.0007    0.0006    0.0026   -0.0003   -0.0019   -0.0092    0.0017    0.0040    0.0048
   108 N2     3d2+       0.0005    0.0045    0.0006    0.0102    0.0058   -0.0123   -0.0188   -0.0042   -0.0037    0.0148
   109 N5     1s        -0.0196    0.0022   -0.0422   -0.0018    0.0006    0.0031   -0.0019   -0.0034    0.0035   -0.0018
   110 N5     2s         0.1328   -0.0352    0.5770    0.0411   -0.0224   -0.2227    0.0591    0.1666    0.1074   -0.0969
   111 N5     3s        -0.0489    0.0054   -0.0786   -0.0026   -0.0069   -0.0129   -0.0004    0.0001    0.0162   -0.0097
   112 N5     4s        -0.0116    0.0024   -0.0262   -0.0012   -0.0029   -0.0012   -0.0001   -0.0021    0.0019   -0.0008
   113 N5     2px        0.0072   -0.0086   -0.0137    0.0358    0.1208    0.1121    0.0024    0.0770    0.0253   -0.0652
   114 N5     3px        0.0175   -0.0117   -0.0109   -0.0192   -0.0386   -0.0603   -0.0120   -0.0156   -0.0061    0.0156
   115 N5     4px       -0.0059   -0.0026   -0.0022    0.0011    0.0020   -0.0029   -0.0026   -0.0013    0.0007    0.0012
   116 N5     2py       -0.0398    0.0062   -0.0126    0.0202    0.0744    0.0481    0.0670    0.3836   -0.2159    0.0879
   117 N5     3py        0.0119   -0.0052    0.0236   -0.0015   -0.0005   -0.0062   -0.0068   -0.0996    0.0352   -0.0158
   118 N5     4py       -0.0019   -0.0020    0.0099    0.0034    0.0040   -0.0009    0.0007    0.0065   -0.0023    0.0020
   119 N5     2pz       -0.0169    0.0124    0.0045   -0.0311   -0.1132   -0.1062    0.0141    0.0568   -0.1195    0.1128
   120 N5     3pz       -0.0128    0.0093    0.0244    0.0316    0.0427    0.0614    0.0052   -0.0178    0.0224   -0.0218
   121 N5     4pz        0.0050    0.0014    0.0056    0.0035   -0.0004    0.0024    0.0020    0.0044   -0.0011   -0.0006
   122 N5     3d2-       0.0037   -0.0011    0.0110   -0.0012   -0.0048   -0.0044   -0.0025   -0.0142    0.0053   -0.0011
   123 N5     3d1-      -0.0002   -0.0006   -0.0025    0.0015    0.0025   -0.0024    0.0023    0.0126   -0.0023    0.0010
   124 N5     3d0       -0.0029    0.0010   -0.0028    0.0014    0.0055    0.0074    0.0010    0.0062   -0.0018   -0.0010
   125 N5     3d1+      -0.0000    0.0003   -0.0152   -0.0015   -0.0044   -0.0043   -0.0006   -0.0036    0.0003    0.0015
   126 N5     3d2+      -0.0044    0.0017   -0.0033    0.0005    0.0043    0.0094   -0.0004    0.0003   -0.0008   -0.0010
   127 O7     1s         0.0013    0.0030   -0.0005   -0.0042    0.0022    0.0006    0.0140   -0.0011    0.0133    0.0219
   128 O7     2s        -0.0735   -0.3001    0.0001   -0.2064    0.0580    0.0281    0.3569   -0.0311    0.2210    0.3555
   129 O7     3s        -0.0007   -0.0077   -0.0021   -0.0195    0.0096    0.0000    0.0444   -0.0039    0.0372    0.0624
   130 O7     4s         0.0003    0.0002   -0.0007   -0.0032    0.0023   -0.0009    0.0087   -0.0009    0.0072    0.0131
   131 O7     2px       -0.0084   -0.0014   -0.0027   -0.0016    0.0240   -0.0316   -0.1833    0.0201   -0.0994   -0.2354
   132 O7     3px       -0.0018    0.0014   -0.0033   -0.0067    0.0011    0.0029    0.0258   -0.0037    0.0066    0.0199
   133 O7     4px       -0.0003    0.0007   -0.0003   -0.0006   -0.0006    0.0011    0.0027   -0.0003    0.0000    0.0012
   134 O7     2py        0.0101    0.0388   -0.0020   -0.0332    0.0243    0.0005    0.1569   -0.0052    0.2473    0.4122
   135 O7     3py       -0.0055   -0.0025   -0.0033    0.0137   -0.0008   -0.0047   -0.0242   -0.0000   -0.0303   -0.0440
   136 O7     4py       -0.0012   -0.0016   -0.0009   -0.0005    0.0003    0.0004   -0.0030    0.0002   -0.0037   -0.0067
   137 O7     2pz        0.0006    0.0024    0.0008    0.0022   -0.0001   -0.0007   -0.0024   -0.0008   -0.0005    0.0062
   138 O7     3pz        0.0010    0.0028    0.0017    0.0002   -0.0013    0.0007    0.0014   -0.0012   -0.0015   -0.0009
   139 O7     4pz        0.0003    0.0006    0.0005   -0.0001   -0.0002    0.0001    0.0005   -0.0004    0.0000   -0.0001
   140 O7     3d2-       0.0015    0.0037   -0.0001    0.0007   -0.0017    0.0022    0.0121   -0.0007    0.0098    0.0191
   141 O7     3d1-      -0.0000   -0.0005   -0.0000   -0.0003   -0.0001    0.0003    0.0005   -0.0000   -0.0005   -0.0009
   142 O7     3d0        0.0010    0.0042   -0.0001    0.0015    0.0002   -0.0002    0.0052   -0.0007    0.0057    0.0120
   143 O7     3d1+       0.0000    0.0000    0.0000    0.0002    0.0001   -0.0001    0.0001   -0.0000    0.0002    0.0003
   144 O7     3d2+       0.0006    0.0046   -0.0002   -0.0025    0.0044   -0.0030   -0.0018    0.0008    0.0099    0.0117
   145 O8     1s        -0.0237    0.0024    0.0037    0.0009    0.0033   -0.0003    0.0011    0.0123    0.0014    0.0011
   146 O8     2s         0.6642   -0.1433   -0.3324    0.1042    0.1532    0.0019    0.0036    0.3487    0.0240    0.0410
   147 O8     3s        -0.0295   -0.0034   -0.0112    0.0066    0.0148   -0.0023    0.0010    0.0461    0.0043    0.0043
   148 O8     4s        -0.0129   -0.0002   -0.0004    0.0005    0.0018   -0.0010   -0.0007    0.0096    0.0008    0.0011
   149 O8     2px       -0.0080   -0.0084    0.0196    0.0112    0.0040   -0.0287   -0.0167   -0.0076    0.0759   -0.0196
   150 O8     3px        0.0045   -0.0043   -0.0051   -0.0023   -0.0039   -0.0072    0.0031   -0.0020   -0.0070   -0.0010
   151 O8     4px       -0.0007   -0.0017   -0.0022   -0.0005    0.0009   -0.0007    0.0006   -0.0001   -0.0021   -0.0002
   152 O8     2py        0.1208   -0.0277   -0.0275    0.0060   -0.0130   -0.0227   -0.0274   -0.1719    0.0533   -0.0498
   153 O8     3py       -0.0370    0.0013    0.0004    0.0043    0.0065   -0.0004    0.0037    0.0246   -0.0030    0.0026
   154 O8     4py       -0.0008   -0.0013    0.0008   -0.0004   -0.0006    0.0008   -0.0010    0.0030   -0.0013    0.0009
   155 O8     2pz        0.0737   -0.0016   -0.0311   -0.0166   -0.0196    0.0209    0.0064   -0.0780   -0.0702    0.0056
   156 O8     3pz       -0.0194    0.0056    0.0059    0.0009    0.0072    0.0086   -0.0043    0.0143    0.0068    0.0022
   157 O8     4pz        0.0001    0.0016    0.0029   -0.0007   -0.0007    0.0012   -0.0015    0.0018    0.0019    0.0001
   158 O8     3d2-      -0.0031   -0.0001    0.0024    0.0010    0.0008   -0.0023   -0.0002    0.0004    0.0044   -0.0015
   159 O8     3d1-       0.0152   -0.0020   -0.0061   -0.0000   -0.0004    0.0011   -0.0005   -0.0066   -0.0023   -0.0007
[...]
AIVX     1  Mu1.0001  In1.028 Se1.046               0.09482732      0.00019804     -0.00032803     -0.00000006
AIVX     1  Mu1.0001  In1.029 Se1.046               0.06131503     -0.00012824      0.00023096     -0.00000003
AIVX     1  Mu1.0001  In1.018 Se1.047               0.27732329      0.00003525     -0.00121062     -0.00000004
AIVX     1  Mu1.0001  In1.021 Se1.047               0.23201878      0.00002900      0.00005698      0.00000000
AIVX     1  Mu1.0001  In1.022 Se1.047               0.13559013     -0.00048880      0.00010436     -0.00000005
AIVX     1  Mu1.0001  In1.023 Se1.047               0.20597072      0.00096087     -0.00148030     -0.00000142
AIVX     1  Mu1.0001  In1.025 Se1.047               0.14504338      0.00033784     -0.00058572     -0.00000020
AIVX     1  Mu1.0001  In1.026 Se1.047               0.25236091      0.00041104     -0.00084560     -0.00000035
AIVX     1  Mu1.0001  In1.027 Se1.047               0.23891092     -0.00167801      0.00233019     -0.00000391
AIVX     1  Mu1.0001  In1.028 Se1.047               0.09669310     -0.00041065      0.00055387     -0.00000023
AIVX     1  Mu1.0001  In1.029 Se1.047               0.06318081     -0.00020836      0.00060333     -0.00000013
AIVX     1  Mu1.0001  In1.018 Se1.048               0.29648823      0.00156280     -0.00239397     -0.00000374
AIVX     1  Mu1.0001  In1.021 Se1.048               0.25118372      0.00187669     -0.00315581     -0.00000592
AIVX     1  Mu1.0001  In1.022 Se1.048               0.15475507      0.00063497     -0.00081234     -0.00000052
AIVX     1  Mu1.0001  In1.023 Se1.048               0.22513566      0.00066627     -0.00148988     -0.00000099
AIVX     1  Mu1.0001  In1.025 Se1.048               0.16420832      0.00001149     -0.00016519     -0.00000000
AIVX     1  Mu1.0001  In1.026 Se1.048               0.27152585     -0.00127524      0.00229765     -0.00000293
AIVX     1  Mu1.0001  In1.027 Se1.048               0.25807587      0.00073004     -0.00098428     -0.00000072
AIVX     1  Mu1.0001  In1.028 Se1.048               0.11585804      0.00088288     -0.00218097     -0.00000193
AIVX     1  Mu1.0001  In1.029 Se1.048               0.08234575      0.00078114     -0.00190367     -0.00000149
AIVX     1  Mu1.0001  In1.018 Se1.049               0.29561856     -0.00077934      0.00200204     -0.00000156
AIVX     1  Mu1.0001  In1.021 Se1.049               0.25031405      0.00063309     -0.00084742     -0.00000054
AIVX     1  Mu1.0001  In1.022 Se1.049               0.15388540     -0.00005280      0.00026863     -0.00000001
AIVX     1  Mu1.0001  In1.023 Se1.049               0.22426599     -0.00030302      0.00045394     -0.00000014
AIVX     1  Mu1.0001  In1.025 Se1.049               0.16333865     -0.00001726     -0.00021397      0.00000000
AIVX     1  Mu1.0001  In1.026 Se1.049               0.27065618     -0.00045347      0.00068884     -0.00000031
AIVX     1  Mu1.0001  In1.027 Se1.049               0.25720619      0.00106251     -0.00172114     -0.00000183
AIVX     1  Mu1.0001  In1.028 Se1.049               0.11498837     -0.00021064      0.00045525     -0.00000010
AIVX     1  Mu1.0001  In1.029 Se1.049               0.08147608     -0.00021110      0.00022344     -0.00000005
AIVX     1  Mu1.0001  In1.021 Se1.050               0.27004511      0.00339215     -0.00578114     -0.00001961
AIVX     1  Mu1.0001  In1.022 Se1.050               0.17361646      0.00078534     -0.00089489     -0.00000070
AIVX     1  Mu1.0001  In1.023 Se1.050               0.24399705      0.00065002     -0.00166128     -0.00000108
AIVX     1  Mu1.0001  In1.025 Se1.050               0.18306971     -0.00027222      0.00038161     -0.00000010
AIVX     1  Mu1.0001  In1.026 Se1.050               0.29038724      0.00082494     -0.00106486     -0.00000088
AIVX     1  Mu1.0001  In1.027 Se1.050               0.27693725      0.00074080     -0.00067787     -0.00000050
AIVX     1  Mu1.0001  In1.028 Se1.050               0.13471943     -0.00027674      0.00100535     -0.00000028
AIVX     1  Mu1.0001  In1.029 Se1.050               0.10120714     -0.00082235      0.00224142     -0.00000184
AIVX     1  Mu1.0001  In1.021 Se1.051               0.28990432     -0.00044614      0.00010051     -0.00000004
AIVX     1  Mu1.0001  In1.022 Se1.051               0.19347567      0.00065890     -0.00096175     -0.00000063
AIVX     1  Mu1.0001  In1.023 Se1.051               0.26385627      0.00272629     -0.00459782     -0.00001254
AIVX     1  Mu1.0001  In1.025 Se1.051               0.20292892      0.00007986     -0.00002248     -0.00000000
AIVX     1  Mu1.0001  In1.027 Se1.051               0.29679647     -0.00152054      0.00265463     -0.00000404
AIVX     1  Mu1.0001  In1.028 Se1.051               0.15457864      0.00086332     -0.00110731     -0.00000096
AIVX     1  Mu1.0001  In1.029 Se1.051               0.12106635      0.00041157     -0.00053781     -0.00000022
AIVX     1  Mu1.0001  In1.021 Se1.052               0.29841752     -0.00077488      0.00089829     -0.00000070
AIVX     1  Mu1.0001  In1.022 Se1.052               0.20198887     -0.00030253      0.00062701     -0.00000019
AIVX     1  Mu1.0001  In1.023 Se1.052               0.27236946     -0.00154660      0.00284111     -0.00000439
AIVX     1  Mu1.0001  In1.025 Se1.052               0.21144212     -0.00021831      0.00036152     -0.00000008
AIVX     1  Mu1.0001  In1.028 Se1.052               0.16309184      0.00019928      0.00016942      0.00000003
AIVX     1  Mu1.0001  In1.029 Se1.052               0.12957955      0.00028848     -0.00046314     -0.00000013
AIVX     1  Mu1.0001  In1.022 Se1.053               0.24526587     -0.00027194      0.00051414     -0.00000014
AIVX     1  Mu1.0001  In1.025 Se1.053               0.25471912      0.00002041     -0.00011836     -0.00000000
AIVX     1  Mu1.0001  In1.028 Se1.053               0.20636884      0.00018025     -0.00037325     -0.00000007
AIVX     1  Mu1.0001  In1.029 Se1.053               0.17285655      0.00066407     -0.00134768     -0.00000089
AIVX     1  Mu1.0001  In1.022 Se1.054               0.23015588      0.00061111     -0.00093991     -0.00000057
AIVX     1  Mu1.0001  In1.025 Se1.054               0.23960913     -0.00025240      0.00021669     -0.00000005
AIVX     1  Mu1.0001  In1.028 Se1.054               0.19125885     -0.00026867      0.00046399     -0.00000012
AIVX     1  Mu1.0001  In1.029 Se1.054               0.15774656     -0.00082921      0.00173206     -0.00000144
AIVX     1  Mu1.0001  In1.022 Se1.055               0.26663243      0.00017112     -0.00020685     -0.00000004
AIVX     1  Mu1.0001  In1.025 Se1.055               0.27608569     -0.00035893      0.00101332     -0.00000036
AIVX     1  Mu1.0001  In1.028 Se1.055               0.22773541      0.00014195     -0.00036112     -0.00000005
AIVX     1  Mu1.0001  In1.029 Se1.055               0.19422312     -0.00048839      0.00125211     -0.00000061
AIVX     1  Mu1.0001  In1.022 Se1.056               0.28957203     -0.00055660      0.00040151     -0.00000022
AIVX     1  Mu1.0001  In1.025 Se1.056               0.29902528      0.00037443     -0.00067412     -0.00000025
AIVX     1  Mu1.0001  In1.028 Se1.056               0.25067500     -0.00101240      0.00185912     -0.00000188
AIVX     1  Mu1.0001  In1.029 Se1.056               0.21716271     -0.00109013      0.00279998     -0.00000305
AIVX     1  Mu1.0001  In1.022 Se1.057               0.29203456      0.00019046     -0.00032469     -0.00000006
AIVX     1  Mu1.0001  In1.028 Se1.057               0.25313753     -0.00044877      0.00110009     -0.00000049
AIVX     1  Mu1.0001  In1.029 Se1.057               0.21962524     -0.00074040      0.00179471     -0.00000133
AIVX     1  Mu1.0001  In1.029 Se1.058               0.29426667      0.00142021     -0.00273732     -0.00000389
AIVX     1  Mu1.0001  In1.028 Se1.059               0.26797666      0.00241581     -0.00402464     -0.00000972
AIVX     1  Mu1.0001  In1.029 Se1.059               0.23446437      0.00087880     -0.00178046     -0.00000156
AIVX     1  Mu1.0001  In1.028 Se1.060               0.29273142      0.00023891     -0.00042187     -0.00000010
AIVX     1  Mu1.0001  In1.029 Se1.060               0.25921913      0.00040558     -0.00077384     -0.00000031
AIVX     1  Mu1.0001  In1.028 Se1.061               0.28802338      0.00105197     -0.00165035     -0.00000174
AIVX     1  Mu1.0001  In1.029 Se1.061               0.25451109      0.00085551     -0.00156535     -0.00000134
AIVX     1  Mu1.0001  In1.028 Se1.062               0.29792339      0.00002871      0.00008930      0.00000000
AIVX     1  Mu1.0001  In1.029 Se1.062               0.26441110     -0.00034706      0.00105552     -0.00000037
AIVX     1  Mu1.0001  In1.022 Se1.209               0.26383087      0.00073142     -0.00098623     -0.00000072
AIVX     1  Mu1.0001  In1.025 Se1.209               0.27328412     -0.00046161      0.00060210     -0.00000028
AIVX     1  Mu1.0001  In1.028 Se1.209               0.22493384      0.00069245     -0.00165583     -0.00000115
AIVX     1  Mu1.0001  In1.029 Se1.209               0.19142155     -0.00001763      0.00028901     -0.00000001
--
 
   (Skipping property calculation,
    use PROP keyword to activate)
--
 
  Total CASPT2 energies:
::    CASPT2 Root  1     Total energy:   -455.38215867
::    CASPT2 Root  2     Total energy:   -455.17081365
::    CASPT2 Root  3     Total energy:   -455.16600861
::    CASPT2 Root  4     Total energy:   -455.13093086
::    CASPT2 Root  5     Total energy:   -455.10415313
::    CASPT2 Root  6     Total energy:   -455.13002238
::    CASPT2 Root  7     Total energy:   -455.08903059
 
++ Multi-State CASPT2 section:
********************************************************************************
  MULTI-STATE CASPT2 SECTION
--------------------------------------------------------------------------------
 
  Output diagonal energies have been shifted. Add   -455.000000000000     
 
  Effective Hamiltonian matrix (Symmetric):
 
                1               2               3               4               5
   1        -0.38215867
   2         0.00027416     -0.17081365
   3         0.00066713     -0.00006269     -0.16600861
   4        -0.01053588      0.00076515      0.00115064     -0.13093086
   5        -0.00691738      0.00020994     -0.00141954     -0.01190457     -0.10415313
   6         0.01947408     -0.00148673     -0.00005788     -0.00006544      0.00006080
   7         0.01781644     -0.00069876      0.00099424      0.00267066      0.00050808
 
                6               7
   6        -0.13002238
   7        -0.02294803     -0.08903059
 
       Total MS-CASPT2 energies:
::    MS-CASPT2 Root  1     Total energy:   -455.38559342
::    MS-CASPT2 Root  2     Total energy:   -455.17090700
::    MS-CASPT2 Root  3     Total energy:   -455.16607637
::    MS-CASPT2 Root  4     Total energy:   -455.13768398
::    MS-CASPT2 Root  5     Total energy:   -455.13487371
::    MS-CASPT2 Root  6     Total energy:   -455.09956563
::    MS-CASPT2 Root  7     Total energy:   -455.07841779
 
       Eigenvectors:
            0.99315919      0.00816803      0.00153449      0.09603656     -0.05929186
           -0.00222878      0.99855168     -0.01098621     -0.04609896      0.02535852
           -0.00279384      0.01129355      0.99929845      0.01536238      0.01511434
            0.04301572     -0.02025636     -0.02458299      0.08285049      0.93013336
            0.02635498     -0.00585371      0.01852723      0.04263117      0.34885542
           -0.08164909      0.04332936     -0.00960720      0.91047124     -0.06492469
           -0.06641187      0.01944874     -0.01548152      0.38829932     -0.06745071
 
           -0.00989681      0.02700476
           -0.00082844     -0.00012090
           -0.02583493      0.01163485
           -0.35091804      0.04448894
            0.93556503     -0.01133374
           -0.01932960     -0.39726184
            0.02085426      0.91608442
 
--
 
  THE ORIGINAL CI ARRAYS ARE NOW MIXED AS LINEAR
  COMBINATIONS, GIVEN BY THE EIGENVECTORS.
  A NEW JOBIPH FILE NAMED 'JOBMIX' IS PREPARED.
********************************************************************************
 
++ Mixed CI coefficients:
  The CI coefficients for the MIXED state nr.   1
--------------------------------------------------------------------------------
 CI COEFFICIENTS LARGER THAN  0.50D-01
  Occupation of active orbitals, and spin coupling
  of open shells. (u,d: Spin up or down).
  SGUGA info is (Midvert:IsyUp:UpperWalk/LowerWalk)
        Conf  SGUGA info        Occupation    Coefficient         Weight
           1  ( 1:1:   1/   1)   22222200        0.971491       0.943796
           4  ( 1:1:   4/   1)   22222020       -0.099169       0.009835
          17  ( 1:1:  17/   1)   22220202       -0.085629       0.007332
          64  ( 2:1:   4/   3)   2u22220d        0.104289       0.010876
          81  ( 2:1:   1/   4)   u22222d0        0.080622       0.006500
         175  ( 3:1:   5/   8)   20222202       -0.080615       0.006499
         191  ( 3:1:   1/  10)   02222220       -0.089608       0.008030
 
  The CI coefficients for the MIXED state nr.   2
--------------------------------------------------------------------------------
 CI COEFFICIENTS LARGER THAN  0.50D-01
  Occupation of active orbitals, and spin coupling
  of open shells. (u,d: Spin up or down).
  SGUGA info is (Midvert:IsyUp:UpperWalk/LowerWalk)
        Conf  SGUGA info        Occupation    Coefficient         Weight
           2  ( 1:1:   2/   1)   22222ud0        0.100754       0.010151
          21  ( 2:1:   1/   1)   222u22d0       -0.955453       0.912891
          22  ( 2:1:   2/   1)   222u2d20        0.104365       0.010892
          38  ( 2:1:  18/   1)   222u02d2       -0.080001       0.006400
         131  ( 3:1:   1/   4)   u22d2220        0.189850       0.036043
         207  ( 4:1:   1/   2)   2u2u22dd       -0.082717       0.006842
         262  ( 5:1:   2/   7)   202u22d2        0.082621       0.006826
 
  The CI coefficients for the MIXED state nr.   3
--------------------------------------------------------------------------------
 CI COEFFICIENTS LARGER THAN  0.50D-01
  Occupation of active orbitals, and spin coupling
  of open shells. (u,d: Spin up or down).
  SGUGA info is (Midvert:IsyUp:UpperWalk/LowerWalk)
        Conf  SGUGA info        Occupation    Coefficient         Weight
           7  ( 1:1:   7/   1)   22222u0d        0.064977       0.004222
          24  ( 2:1:   4/   1)   222u220d       -0.076599       0.005867
          44  ( 2:1:   4/   2)   22u2220d        0.944124       0.891371
          45  ( 2:1:   5/   2)   22u22dud        0.064991       0.004224
          47  ( 2:1:   7/   2)   22u22udd        0.115830       0.013417
          49  ( 2:1:   9/   2)   22u2202d       -0.078327       0.006135
          54  ( 2:1:  14/   2)   22u2d202       -0.168209       0.028294
         155  ( 3:1:   5/   6)   2ud22202       -0.139565       0.019478
         225  ( 4:1:   1/   5)   u2u222dd       -0.071907       0.005171
         226  ( 4:1:   2/   5)   u2u22d2d        0.061539       0.003787
         301  ( 5:1:   1/  17)   02u2222d        0.101697       0.010342
 
  The CI coefficients for the MIXED state nr.   4
--------------------------------------------------------------------------------
 CI COEFFICIENTS LARGER THAN  0.50D-01
  Occupation of active orbitals, and spin coupling
  of open shells. (u,d: Spin up or down).
  SGUGA info is (Midvert:IsyUp:UpperWalk/LowerWalk)
        Conf  SGUGA info        Occupation    Coefficient         Weight
           2  ( 1:1:   2/   1)   22222ud0        0.884242       0.781884
           4  ( 1:1:   4/   1)   22222020        0.163976       0.026888
           7  ( 1:1:   7/   1)   22222u0d       -0.055843       0.003118
           8  ( 1:1:   8/   1)   2222u20d       -0.277341       0.076918
          19  ( 1:1:  19/   1)   22220ud2       -0.078599       0.006178
          21  ( 2:1:   1/   1)   222u22d0        0.092963       0.008642
          65  ( 2:1:   5/   3)   2u222dud        0.051222       0.002624
          67  ( 2:1:   7/   3)   2u222udd        0.082302       0.006774
          74  ( 2:1:  14/   3)   2u22d202        0.071767       0.005150
          82  ( 2:1:   2/   4)   u2222d20       -0.227446       0.051732
         176  ( 3:1:   6/   8)   20222ud2       -0.071749       0.005148
         191  ( 3:1:   1/  10)   02222220       -0.113907       0.012975
 
  The CI coefficients for the MIXED state nr.   5
--------------------------------------------------------------------------------
 CI COEFFICIENTS LARGER THAN  0.50D-01
  Occupation of active orbitals, and spin coupling
  of open shells. (u,d: Spin up or down).
  SGUGA info is (Midvert:IsyUp:UpperWalk/LowerWalk)
        Conf  SGUGA info        Occupation    Coefficient         Weight
           2  ( 1:1:   2/   1)   22222ud0       -0.271733       0.073839
           7  ( 1:1:   7/   1)   22222u0d       -0.218673       0.047818
           8  ( 1:1:   8/   1)   2222u20d       -0.874345       0.764480
          12  ( 1:1:  12/   1)   2222uudd       -0.089349       0.007983
          13  ( 1:1:  13/   1)   2222u02d        0.075779       0.005743
          17  ( 1:1:  17/   1)   22220202       -0.059998       0.003600
          64  ( 2:1:   4/   3)   2u22220d        0.081873       0.006703
          74  ( 2:1:  14/   3)   2u22d202        0.203152       0.041271
          82  ( 2:1:   2/   4)   u2222d20        0.071453       0.005106
          88  ( 2:1:   8/   4)   u222u2dd        0.065302       0.004264
          91  ( 2:1:  11/   4)   u222ud2d       -0.051765       0.002680
         175  ( 3:1:   5/   8)   20222202        0.069066       0.004770
         194  ( 3:1:   4/  10)   0222u22d       -0.091714       0.008411
 
  The CI coefficients for the MIXED state nr.   6
--------------------------------------------------------------------------------
 CI COEFFICIENTS LARGER THAN  0.50D-01
  Occupation of active orbitals, and spin coupling
  of open shells. (u,d: Spin up or down).
  SGUGA info is (Midvert:IsyUp:UpperWalk/LowerWalk)
        Conf  SGUGA info        Occupation    Coefficient         Weight
           7  ( 1:1:   7/   1)   22222u0d        0.921866       0.849837
           8  ( 1:1:   8/   1)   2222u20d       -0.225969       0.051062
          44  ( 2:1:   4/   2)   22u2220d       -0.056831       0.003230
          74  ( 2:1:  14/   3)   2u22d202        0.053913       0.002907
          85  ( 2:1:   5/   4)   u2222dud       -0.143640       0.020632
          87  ( 2:1:   7/   4)   u2222udd       -0.200294       0.040118
         193  ( 3:1:   3/  10)   02222u2d        0.136240       0.018561
 
  The CI coefficients for the MIXED state nr.   7
--------------------------------------------------------------------------------
 CI COEFFICIENTS LARGER THAN  0.50D-01
  Occupation of active orbitals, and spin coupling
  of open shells. (u,d: Spin up or down).
  SGUGA info is (Midvert:IsyUp:UpperWalk/LowerWalk)
        Conf  SGUGA info        Occupation    Coefficient         Weight
          24  ( 2:1:   4/   1)   222u220d        0.908694       0.825725
          25  ( 2:1:   5/   1)   222u2dud       -0.215904       0.046615
          27  ( 2:1:   7/   1)   222u2udd       -0.308193       0.094983
          44  ( 2:1:   4/   2)   22u2220d        0.069688       0.004856
         214  ( 4:1:   2/   3)   u22u2d2d       -0.073535       0.005407
         269  ( 5:1:   1/   9)   022u222d        0.086204       0.007431
 
--
 
--- Stop Module: caspt2 at Tue Jun 10 18:37:40 2025 /rc=_RC_ALL_IS_WELL_ ---
*** files: xmldump
    saved to directory /home/pcaah4/diamide_project
--- Module caspt2 spent 6 minutes 57 seconds ---

.##################.
.# Happy landing! #.
.##################.

    Timing: Wall=675.22 User=586.39 System=79.36
******************************************************
*** WorkDir at /srv/COMMUNAL_SCRATCH/12404 cleaned ***
******************************************************
