   This run of MOLCAS is using the pymolcas driver

                             OPE
                             OPE          NMOL  CASOP  ENMOLC A   SO
                 OPE        NMOLC        AS  OP EN  MO LC     AS  OP
                OPENM       OL CA        SO  PE NM  OL CA     SOP EN
                OP EN      MO   LC       AS  OP ENMOL  CASO   PENMOL
                OP  EN     MO   LC       AS  OP EN     MO     LC ASO
               OP   E  NMOL  C  AS       OP  EN MO     LC     AS  OP
               OP  E   NMO   LC AS        OPEN  MO     LCASOP EN   M
               O  PEN   MO  LCA  SO
            OPE   NMO   L   CAS    OP
        OPENMOL  CASOP     ENMOL   CASOPE
     OPENMOLCA   SOPENMOLCASOPEN   MOLCASOPE
    OPENMOLCAS   OP           EN   MOL    CAS
    OPENMOLCAS       OP  ENM        O     LCA
    OPENMOLCAS    OPEN  MOLCASO     P  E  NMO
    OPENMOLCAS     OP               E  N  MOL
    OPENMOLCA   SO           PENM   O  L  CAS    OPEN    MO    LCAS
    OPENMOLCA   SOP           ENM   O  L  CAS   OP  EN  MOLC  AS   O
    OPENMOLCA   SOPE           NM      O  LCA   S      OP  EN MO
    OPENMOLC                AS         O  PEN   M      OL  CA  SOPE
    OPENMO        LCASOPE  NMOL        C  ASO   P      ENMOLC     AS
    OPE     NMO      LCA  SO     P     E   NM   OL  CA SO  PE N   MO
          OPENMOLCA            SOPE   NMO        LCAS  O    P  ENMO
     OPENMOLCASOPENMOLCASOPENMOLCASOPENMOLCA
        OPENMOLCASOPENMOLCASOPENMOLCASOPE
            OPENMOLCASOPENMOLCASOPENM
               OPENMOLCASOPENMOLCA        version: v23.06
                   OPENMOLCASO
                       OPE                tag:

 OpenMolcas is free software; you can redistribute it and/or modify it
 under the terms of the GNU Lesser General Public License version 2.1.
 OpenMolcas is distributed in the hope that it will be useful, but it
 is provided "as is" and without any express or implied warranties.
 For more details see the full text of the license in the file
 LICENSE or in <http://www.gnu.org/licenses/>.

                 Copyright (C) The OpenMolcas Authors
           For the author list and the recommended citation,
                   consult the file CONTRIBUTORS.md

           *************************************************
           * pymolcas version py2.24                       *
           *   build 4567b286dd94b1984b333a4ddf893180      *
           *   (after the EMIL interpreter by V. Veryazov) *
           *************************************************

configuration info
------------------
Host name: loginchem01.nottingham.ac.uk (Linux)
C Compiler ID: Intel
C flags: -std=gnu99 -gcc-sys -qopenmp
Fortran Compiler ID: Intel
Fortran flags: -fpp -i8 -heap-arrays -qopenmp
Definitions: _MOLCAS_;_I8_;_LINUX_
Parallel: OFF (GA=OFF)


   ----------------------------------------------------------------------------------------------------
  |
  |              Project: orca_geometry_optimisation_210_150_BP86_def2-SVP_def2J_scf_cas1_ras12i11_cas8
  |       Submitted from: /home/pcaah4/diamide_project
  |         Scratch area: /srv/COMMUNAL_SCRATCH/12386
  |      Save outputs to: /home/pcaah4/diamide_project
  |               Molcas: /software/chemistry/openmolcas/openmolcas-23.06-openmp
  |
  | Scratch area is empty
  |
  |       MOLCAS_DRIVER = /software/chemistry/openmolcas/openmolcas-23.06-openmp/sbin/pymolcas
  | MOLCAS_KEEP_WORKDIR = NO
  |       MOLCAS_NPROCS = 1
  |       MOLCAS_SOURCE = /software/chemistry/openmolcas/openmolcas-23.06-openmp
  |    MOLCAS_STRUCTURE = 0
  |
   ----------------------------------------------------------------------------------------------------

++ ---------   Input file   ---------

&SEWARD
TITLE
orca_geometry_optimisation_210_150_BP86_def2-SVP_def2J_scf_cas1_ras12i11
MULTIPOLES
2
SDIPOLE
ANGMOM
0 0 0
BASIS SET
C.ANO-S...4S3P1D.
C1            0.017299   -0.018647    0.065234 /Angstrom
C3            2.140513    1.230776   -0.021417 /Angstrom
C4            3.471346    0.951670   -0.733058 /Angstrom
C6            5.266108    1.942713   -2.120704 /Angstrom
C19          -0.612701   -1.406643    0.122006 /Angstrom
END OF BASIS
BASIS SET
N.ANO-S...4S3P1D.
N2            1.389472    0.000852    0.061566 /Angstrom
N5            3.983198    2.002115   -1.443431 /Angstrom
END OF BASIS
BASIS SET
O.ANO-S...4S3P1D.
O7           -0.655998    1.012412    0.025804 /Angstrom
O8            4.017940   -0.150344   -0.644874 /Angstrom
END OF BASIS
BASIS SET
H.ANO-S...2S1P.
H9           -1.246490   -1.472821    1.028802 /Angstrom
H10          -1.285573   -1.527319   -0.750120 /Angstrom
H11           0.121469   -2.235892    0.132556 /Angstrom
H12           1.954784   -0.854074    0.055347 /Angstrom
H13           1.515097    1.991631   -0.534331 /Angstrom
H14           2.375747    1.646685    0.989443 /Angstrom
H15           3.442231    2.867262   -1.482295 /Angstrom
H16           5.159153    2.132152   -3.209570 /Angstrom
H17           5.987620    2.677317   -1.703183 /Angstrom
H18           5.668246    0.922707   -1.973373 /Angstrom
END OF BASIS
END OF INPUT

&RASSCF
TITLE
orca_geometry_optimisation_210_150_BP86_def2-SVP_def2J_scf_cas1_ras12i11
LUMORB
SPIN
1
SYMMETRY
1
NACTEL
12  0  0
INACTIVE
29
DELETED  ! delete Rydberg orbitals from an initial CAS(12,11) if done
3
FROZEN
0
RAS2
8
ITERATIONS
64 25
CIROOT
7 7
1 2 3 4 5 6 7
1 1 1 1 1 1 1
LEVSHFT
0.3
CIMX
20
FILEorb = /home/pcaah4/diamide_project/cas/ras12i11/ras_orb/orca_geometry_optimisation_210_150_BP86_def2-SVP_def2J_scf_cas1_ras12i11.RasOrb
ALTEr
2
 1 36 37
 1 37 38
END OF INPUT

&RASSI
NROF JOBIPH
    1 7
    1 2 3 5 4 6 7
TOFILE
TRDI
TDMN
1.0D-6
END OF INPUT

&CASPT2
TITLE
orca_geometry_optimisation_210_150_BP86_def2-SVP_def2J_scf_cas1_ras12i11
MULTISTATE
7 1 2 3 4 5 6 7
SHIFT
0.35
MAXITER
50
END OF INPUT

-- ----------------------------------

--- Start Module: seward at Tue Jun 10 17:24:09 2025 ---
 
()()()()()()()()()()()()()()()()()()()()()()()()()()()()()()()()()()()()()()()()()()()()()()()()()()

                                              &SEWARD

                                   only a single process is used
                       available to each process: 2.0 GB of memory, 1 thread
                                            pid: 3120993
()()()()()()()()()()()()()()()()()()()()()()()()()()()()()()()()()()()()()()()()()()()()()()()()()()
 
               SEWARD will generate:
                  Multipole Moment integrals up to order  2
                  Kinetic Energy integrals
                  Nuclear Attraction integrals (point charge)
                  One-Electron Hamiltonian integrals
                  Velocity integrals
                  Orbital angular momentum around ( 0.0000  0.0000  0.0000 )
                  Velocity quadrupole around ( 4.0138  1.1685 -1.0026 )
                  Two-Electron Repulsion integrals
 
 Title:
            orca_geometry_optimisation_210_150_BP86_def2-SVP_def2J_scf_cas1_ras12i11    
 
 
                   Integrals are discarded if absolute value <: 0.10E-13
                   Integral cutoff threshold is set to       <: 0.10E-15
 
++    Symmetry information:
      ---------------------
 
                    Character Table for C1 
 
                             E  
                    a        1  x, y, xy, Rz, z, xz, Ry, yz, Rx, I
--
 
 
++    Basis set information:
      ----------------------
 
 
      Basis set label: C.ANO-S...4S3P1D......
 
      Electronic valence basis set:
      ------------------
      Associated Effective Charge   6.000000 au
      Associated Actual Charge      6.000000 au
      Nuclear Model: Point charge
 
      Shell  nPrim  nBasis  Cartesian Spherical Contaminant
         s      10       4        X                  
         p       6       3        X                  
         d       3       1                 X         
 
 
      Basis set label: N.ANO-S...4S3P1D......
 
      Electronic valence basis set:
      ------------------
      Associated Effective Charge   7.000000 au
      Associated Actual Charge      7.000000 au
      Nuclear Model: Point charge
 
      Shell  nPrim  nBasis  Cartesian Spherical Contaminant
         s      10       4        X                  
         p       6       3        X                  
         d       3       1                 X         
 
 
      Basis set label: O.ANO-S...4S3P1D......
 
      Electronic valence basis set:
      ------------------
      Associated Effective Charge   8.000000 au
      Associated Actual Charge      8.000000 au
      Nuclear Model: Point charge
 
      Shell  nPrim  nBasis  Cartesian Spherical Contaminant
         s      10       4        X                  
         p       6       3        X                  
         d       3       1                 X         
 
 
      Basis set label: H.ANO-S...2S1P......
 
      Electronic valence basis set:
      ------------------
      Associated Effective Charge   1.000000 au
      Associated Actual Charge      1.000000 au
      Nuclear Model: Point charge
 
      Shell  nPrim  nBasis  Cartesian Spherical Contaminant
         s       7       2        X                  
         p       3       1        X                  
--
 
 
++    Molecular structure info:
      -------------------------
 
                    ************************************************ 
                    **** Cartesian Coordinates / Bohr, Angstrom **** 
                    ************************************************ 
 
     Center  Label                x              y              z                     x              y              z
        1      C1               0.032690      -0.035238       0.123274              0.017299      -0.018647       0.065234
        2      C3               4.044983       2.325830      -0.040472              2.140513       1.230776      -0.021417
        3      C4               6.559893       1.798396      -1.385279              3.471346       0.951670      -0.733058
        4      C6               9.951502       3.671196      -4.007550              5.266108       1.942713      -2.120704
        5      C19             -1.157837      -2.658170       0.230558             -0.612701      -1.406643       0.122006
        6      N2               2.625722       0.001610       0.116343              1.389472       0.000852       0.061566
        7      N5               7.527153       3.783449      -2.727689              3.983198       2.002115      -1.443431
        8      O7              -1.239657       1.913181       0.048762             -0.655998       1.012412       0.025804
        9      O8               7.592806      -0.284109      -1.218635              4.017940      -0.150344      -0.644874
       10      H9              -2.355525      -2.783228       1.944154             -1.246490      -1.472821       1.028802
       11      H10             -2.429381      -2.886215      -1.417521             -1.285573      -1.527319      -0.750120
       12      H11              0.229543      -4.225224       0.250495              0.121469      -2.235892       0.132556
       13      H12              3.694006      -1.613966       0.104591              1.954784      -0.854074       0.055347
       14      H13              2.863118       3.763637      -1.009739              1.515097       1.991631      -0.534331
       15      H14              4.489511       3.111784       1.869776              2.375747       1.646685       0.989443
       16      H15              6.504874       5.418340      -2.801132              3.442231       2.867262      -1.482295
       17      H16              9.749386       4.029183      -6.065208              5.159153       2.132152      -3.209570
       18      H17             11.314962       5.059396      -3.218549              5.987620       2.677317      -1.703183
       19      H18             10.711433       1.743664      -3.729135              5.668246       0.922707      -1.973373
 
                    ************************************************* 
                    **** InterNuclear Distances / Bohr, Angstrom **** 
                    ************************************************* 
 
     Atom centers         Bohr        Angstrom
   16 H15       7 N5      1.929590        1.021095
   13 H12       6 N2      1.936868        1.024946
   19 H18       4 C6      2.090548        1.106270
   12 H11       5 C19     2.093055        1.107597
   11 H10       5 C19     2.094038        1.108117
   10 H9        5 C19     2.094399        1.108308
   17 H16       4 C6      2.098324        1.110385
   14 H13       2 C3      2.098469        1.110462
   18 H17       4 C6      2.099677        1.111101
   15 H14       2 C3      2.112908        1.118103
    8 O7        1 C1      2.328252        1.232058
    9 O8        3 C4      2.330559        1.233279
    7 N5        3 C4      2.584201        1.367500
    6 N2        1 C1      2.593302        1.372316
    6 N2        2 C3      2.727800        1.443489
    7 N5        4 C6      2.743740        1.451925
    5 C19       1 C1      2.882471        1.525338
    3 C4        2 C3      2.900252        1.534747
   11 H10      10 H9      3.364063        1.780186
   15 H14      14 H13     3.370709        1.783702
   19 H18      17 H16     3.406813        1.802808
   18 H17      17 H16     3.408201        1.803542
   19 H18      18 H17     3.408669        1.803790
   12 H11      10 H9      3.410338        1.804673
   12 H11      11 H10     3.412492        1.805813
   16 H15       3 C4      3.887372        2.057109
   19 H18       7 N5      3.911937        2.070108
   14 H13       6 N2      3.934116        2.081844
   13 H12       2 C3      3.958057        2.094514
   13 H12       1 C1      3.987225        2.109949
   17 H16       7 N5      4.017180        2.125800
   18 H17       7 N5      4.026969        2.130980
   15 H14       6 N2      4.027582        2.131305
   16 H15       4 C6      4.048111        2.142168
   11 H10       1 C1      4.069879        2.153687
   10 H9        1 C1      4.070703        2.154123
   15 H14       3 C4      4.075151        2.156477
   12 H11       1 C1      4.196536        2.220711
   14 H13       3 C4      4.203492        2.224392
    8 O7        6 N2      4.312751        2.282209
   13 H12       9 O8      4.326671        2.289576
    9 O8        7 N5      4.338961        2.296079
   13 H12      12 H11     4.340790        2.297047
   16 H15      14 H13     4.382866        2.319313
   19 H18       9 O8      4.487794        2.374839
    9 O8        2 C3      4.559265        2.412659
    8 O7        5 C19     4.575696        2.421354
    6 N2        3 C4      4.578320        2.422743
   14 H13       8 O7      4.623567        2.446686
    6 N2        5 C19     4.626315        2.448140
    7 N5        2 C3      4.633713        2.452055
    2 C3        1 C1      4.658320        2.465077
    4 C6        3 C4      4.678322        2.475661
   13 H12       3 C4      4.698641        2.486414
   19 H18       3 C4      4.767802        2.523012
   17 H16      16 H15     4.807371        2.543951
   16 H15       2 C3      4.820365        2.550827
   18 H17      16 H15     4.841490        2.562006
   12 H11       6 N2      4.860637        2.572138
   14 H13       1 C1      4.870985        2.577614
   13 H12       5 C19     4.964536        2.627119
   14 H13       7 N5      4.970409        2.630227
   15 H14      13 H12     5.106997        2.702506
    9 O8        6 N2      5.151284        2.725942
   11 H10       8 O7      5.157483        2.729223
   10 H9        8 O7      5.185936        2.744279
    8 O7        2 C3      5.301477        2.805421
    9 O8        4 C6      5.383858        2.849015
   15 H14       9 O8      5.540831        2.932082
   15 H14       7 N5      5.551134        2.937534
   14 H13      13 H12     5.554343        2.939231
   16 H15      15 H14     5.585631        2.955788
   19 H18      16 H15     5.662117        2.996263
--
 
 
            Nuclear Potential Energy            446.88012236 au
 
 
      Basis set specifications :
      Symmetry species         a  
      Basis functions          212
 
 
      Input file to MOLDEN was generated!
 
--- Stop Module: seward at Tue Jun 10 17:25:57 2025 /rc=_RC_ALL_IS_WELL_ ---
*** files: orca_geometry_optimisation_210_150_BP86_def2-SVP_def2J_scf_cas1_ras12i11_cas8.GssOrb
           orca_geometry_optimisation_210_150_BP86_def2-SVP_def2J_scf_cas1_ras12i11_cas8.guessorb.molden xmldump
    saved to directory /home/pcaah4/diamide_project
--- Module seward spent 1 minute 48 seconds ---

*** symbolic link created: INPORB -> orca_geometry_optimisation_210_150_BP86_def2-SVP_def2J_scf_cas1_ras12i11_cas8.GssOrb
--- Start Module: rasscf at Tue Jun 10 17:25:58 2025 ---
 
()()()()()()()()()()()()()()()()()()()()()()()()()()()()()()()()()()()()()()()()()()()()()()()()()()

                                              &RASSCF

                                   only a single process is used
                       available to each process: 2.0 GB of memory, 1 thread
                                            pid: 3121033
()()()()()()()()()()()()()()()()()()()()()()()()()()()()()()()()()()()()()()()()()()()()()()()()()()
 
 
      Header of the ONEINT file:
      --------------------------
      orca_geometry_optimisation_210_150_BP86_def2-SVP_def2J_scf_cas1_ras12i11
      Integrals generated by Gateway/Seward, Tue Jun 10 17:24:09 2025
 
 
      OrdInt status: non-squared
 
 
      Cartesian coordinates in Angstrom:
      -----------------------------------------------------
      No.  Label        X            Y            Z        
      -----------------------------------------------------
       1   C1         0.01729900  -0.01864700   0.06523400
       2   C3         2.14051300   1.23077600  -0.02141700
       3   C4         3.47134600   0.95167000  -0.73305800
       4   C6         5.26610800   1.94271300  -2.12070400
       5   C19       -0.61270100  -1.40664300   0.12200600
       6   N2         1.38947200   0.00085200   0.06156600
       7   N5         3.98319800   2.00211500  -1.44343100
       8   O7        -0.65599800   1.01241200   0.02580400
       9   O8         4.01794000  -0.15034400  -0.64487400
      10   H9        -1.24649000  -1.47282100   1.02880200
      11   H10       -1.28557300  -1.52731900  -0.75012000
      12   H11        0.12146900  -2.23589200   0.13255600
      13   H12        1.95478400  -0.85407400   0.05534700
      14   H13        1.51509700   1.99163100  -0.53433100
      15   H14        2.37574700   1.64668500   0.98944300
      16   H15        3.44223100   2.86726200  -1.48229500
      17   H16        5.15915300   2.13215200  -3.20957000
      18   H17        5.98762000   2.67731700  -1.70318300
      19   H18        5.66824600   0.92270700  -1.97337300
      -----------------------------------------------------
      Nuclear repulsion energy =  446.88012236
 
++    Wave function specifications:
      -----------------------------
 
      Number of closed shell electrons          58
      Number of electrons in active shells      12
      Max number of holes in RAS1 space          0
      Max nr of electrons in RAS3 space          0
      Number of inactive orbitals               29
      Number of active orbitals                  8
      Number of secondary orbitals             172
      Spin quantum number                      0.0
      State symmetry                             1
--
 
++    Orbital specifications:
      -----------------------
 
      Symmetry species                           1
                                                 a
      Frozen orbitals                            0
      Inactive orbitals                         29
      Active orbitals                            8
      RAS1 orbitals                              0
      RAS2 orbitals                              8
      RAS3 orbitals                              0
      Secondary orbitals                       172
      Deleted orbitals                           3
      Number of basis functions                212
--
 
++    CI expansion specifications:
      ----------------------------
 
      Number of CSFs                           336
      Number of determinants                   406
      Number of root(s) required                 7
      Root chosen for geometry opt.              7
      CI roots used                              1     2     3     4     5     6     7
      weights                                0.143 0.143 0.143 0.143 0.143 0.143 0.143
      highest root included in the CI            7
      max. size of the explicit Hamiltonian    200
--
 
++    Optimization specifications:
      ----------------------------
 
      RASSCF algorithm: Conventional
      Maximum number of macro iterations        64
      Maximum number of SX iterations           25
      Threshold for RASSCF energy            0.100E-07
      Threshold for max MO rotation          0.100E+00
      Threshold for max BLB element          0.100E-03
      Level shift parameter                  0.300E+00
      Make Quasi-Newton update
--
 
      The MO-coefficients are taken from the file:
      /home/pcaah4/diamide_project/cas/ras12i11/ras_orb/orca_geometry_optimisation_210_150_BP86_def2-SVP_def2J_scf_cas1_ras12i11.RasOrb                                                                                                                               
      Title: RASSCF average (pseudo-natural) orbitals                                      
 
      Total molecular charge    0.00
 
      Molecular orbitals exchanged:
        In symmetry  1 :  36  37
        In symmetry  1 :  37  38
 
 
      ************************************************************************************************************************
      *                                                                                                                      *
      *                                            Wave function control section                                             *
      *                                                                                                                      *
      ************************************************************************************************************************
 
 
                                         RASSCF iterations: Energy and convergence statistics
                                         ----------------------------------------------------
 
      Iter CI   SX   CI       RASSCF       Energy    max ROT     max BLB   max BLB  Level Ln srch  Step   QN   Walltime
          iter iter root      energy       change     param      element    value   shift minimum  type update hh:mm:ss
 Nr of preliminary CI iterations:   4
        1   1   25    0  -453.70431705    0.00E+00  -0.52E-01   34 143 1  0.14E-01*  0.20   0.00    SX    NO    0:00:13
        2   3   13    0  -453.70820160   -0.39E-02* -0.33E-01   33  38 1  0.50E-02*  0.20   0.00    SX    NO    0:00:06
        3   3   11    0  -453.70890540   -0.70E-03* -0.20E-01   33  38 1  0.24E-02*  0.20   0.00    SX    NO    0:00:06
        4   3   11    0  -453.70912717   -0.22E-03* -0.12E-01   33  38 1  0.10E-02*  0.20   0.00    SX    NO    0:00:07
        5   5   10    0  -453.70920866   -0.81E-04* -0.17E-01   36  40 1  0.61E-03*  0.20   2.50    LS   YES    0:00:06
        6   4   10    0  -453.70925871   -0.50E-04* -0.35E-02   34  40 1  0.66E-03*  0.20   1.16    QN   YES    0:00:06
        7   5    9    0  -453.70926874   -0.10E-04*  0.17E-02   32  38 1  0.34E-03*  0.20   1.15    QN   YES    0:00:06
        8   3    8    0  -453.70927162   -0.29E-05* -0.19E-02   32  38 1  0.16E-03*  0.20   1.65    QN   YES    0:00:06
        9   6    8    0  -453.70927280   -0.12E-05*  0.45E-03   11 111 1 -0.67E-04   0.20   0.94    QN   YES    0:00:06
       10   3    8    0  -453.70927304   -0.25E-06*  0.43E-03   33  38 1  0.58E-04   0.20   1.95    LS   YES    0:00:06
       11   3    8    0  -453.70927312   -0.80E-07*  0.35E-03   33  39 1  0.65E-04   0.20   1.00    QN   YES    0:00:06
       12   3    7    0  -453.70927319   -0.68E-07*  0.26E-03   32  38 1 -0.22E-04   0.20   1.41    QN   YES    0:00:06
       13   1    7    0  -453.70927321   -0.19E-07*  0.63E-04   33  38 1 -0.11E-04   0.20   1.14    QN   YES    0:00:06
       14   3    6    0  -453.70927321   -0.40E-08   0.47E-04   34  40 1 -0.45E-05   0.20   1.24    QN   YES    0:00:06
      Convergence after 14 iterations
       15   1    6    0  -453.70927321   -0.10E-08   0.47E-04   33  39 1 -0.26E-05   0.20   1.24    QN   YES    0:00:06
 
      ************************************************************************************************************************
                                                      Wave function printout:
                       occupation of active orbitals, and spin coupling of open shells (u,d: Spin up or down)
      ************************************************************************************************************************
 
      Note: transformation to natural orbitals
      has been made, which may change the order of the CSFs.
 
      printout of CI-coefficients larger than  0.05 for root  1
      energy=    -453.960252
      conf/sym  11111111     Coeff  Weight
             1  22222200   0.96271 0.92681
             6  22220220  -0.08264 0.00683
             7  22222u0d  -0.13484 0.01818
            15  22222002  -0.08050 0.00648
            64  2u22220d   0.07892 0.00623
            73  2u222d02   0.06507 0.00423
            81  u22222d0  -0.09947 0.00989
           175  20222202  -0.09972 0.00994
           191  02222220  -0.07917 0.00627
 
      printout of CI-coefficients larger than  0.05 for root  2
      energy=    -453.748608
      conf/sym  11111111     Coeff  Weight
            21  222u22d0  -0.07957 0.00633
            24  222u220d   0.95891 0.91951
            32  222u022d  -0.08120 0.00659
            33  222u2d02   0.10075 0.01015
           125  2u2d2202  -0.18495 0.03421
           213  u22u22dd   0.08313 0.00691
           269  022u222d   0.07979 0.00637
 
      printout of CI-coefficients larger than  0.05 for root  3
      energy=    -453.731857
      conf/sym  11111111     Coeff  Weight
             2  22222ud0   0.15807 0.02499
             3  2222u2d0  -0.07852 0.00616
            21  222u22d0   0.08639 0.00746
            41  22u222d0  -0.93017 0.86522
            43  22u2d220   0.16514 0.02727
            45  22u22dud   0.06701 0.00449
            47  22u22udd  -0.11888 0.01413
            55  22u220d2  -0.07881 0.00621
           161  u2d22220  -0.12734 0.01621
           219  2uu222dd  -0.06697 0.00448
           222  2uu22dd2  -0.05614 0.00315
           294  20u222d2   0.09726 0.00946
 
      printout of CI-coefficients larger than  0.05 for root  4
      energy=    -453.646907
      conf/sym  11111111     Coeff  Weight
             2  22222ud0  -0.72765 0.52947
             3  2222u2d0   0.58252 0.33934
            12  2222uudd   0.07264 0.00528
            18  2222u0d2   0.05604 0.00314
            21  222u22d0   0.07534 0.00568
            41  22u222d0  -0.16291 0.02654
            65  2u222dud   0.10582 0.01120
            67  2u222udd  -0.15098 0.02279
            81  u22222d0   0.05229 0.00273
            83  u222d220   0.15501 0.02403
           176  20222ud2   0.10194 0.01039
           177  2022u2d2  -0.05698 0.00325
 
      printout of CI-coefficients larger than  0.05 for root  5
      energy=    -453.640359
      conf/sym  11111111     Coeff  Weight
             1  22222200  -0.07394 0.00547
             2  22222ud0   0.52370 0.27426
             3  2222u2d0   0.66336 0.44005
             7  22222u0d  -0.40390 0.16313
            12  2222uudd   0.05816 0.00338
            15  22222002   0.08676 0.00753
            18  2222u0d2   0.05421 0.00294
            21  222u22d0  -0.05622 0.00316
            65  2u222dud  -0.09135 0.00835
            67  2u222udd   0.11619 0.01350
            68  2u22u2dd   0.05092 0.00259
            73  2u222d02   0.10425 0.01087
            81  u22222d0   0.06938 0.00481
            83  u222d220   0.14951 0.02235
           176  20222ud2  -0.07441 0.00554
           177  2022u2d2  -0.07009 0.00491
 
      printout of CI-coefficients larger than  0.05 for root  6
      energy=    -453.622333
      conf/sym  11111111     Coeff  Weight
             1  22222200  -0.10811 0.01169
             2  22222ud0  -0.27715 0.07681
             3  2222u2d0  -0.32399 0.10497
             7  22222u0d  -0.81709 0.66763
            14  22220u2d  -0.07337 0.00538
            15  22222002   0.16247 0.02640
            21  222u22d0  -0.07938 0.00630
            65  2u222dud   0.05157 0.00266
            67  2u222udd  -0.07707 0.00594
            73  2u222d02   0.21439 0.04596
            83  u222d220  -0.08550 0.00731
            87  u2222udd  -0.07923 0.00628
           175  20222202  -0.09210 0.00848
           193  02222u2d  -0.06220 0.00387
 
      printout of CI-coefficients larger than  0.05 for root  7
      energy=    -453.614596
      conf/sym  11111111     Coeff  Weight
             2  22222ud0  -0.05202 0.00271
             7  22222u0d   0.09981 0.00996
            21  222u22d0  -0.88867 0.78974
            24  222u220d  -0.07248 0.00525
            25  222u2dud  -0.22263 0.04956
            27  222u2udd   0.31603 0.09988
            41  22u222d0  -0.09359 0.00876
           210  2u2u2dd2   0.07790 0.00607
           262  202u22d2   0.08402 0.00706
 
      Natural orbitals and occupation numbers for root  1
      sym 1:   1.971035   1.995774   1.999883   1.999836   1.994486   1.954427   0.034574   0.049986
 
      Natural orbitals and occupation numbers for root  2
      sym 1:   1.970485   1.999891   1.999503   1.001961   1.994937   1.999675   0.035174   0.998374
 
      Natural orbitals and occupation numbers for root  3
      sym 1:   1.999871   1.995166   1.007703   1.998769   1.999338   1.952672   0.994385   0.052095
 
      Natural orbitals and occupation numbers for root  4
      sym 1:   1.987200   1.927538   1.999287   1.998903   1.972673   1.062753   0.975366   0.076280
 
      Natural orbitals and occupation numbers for root  5
      sym 1:   1.971948   1.938416   1.999473   1.999213   1.858382   1.131937   0.913326   0.187305
 
      Natural orbitals and occupation numbers for root  6
      sym 1:   1.979133   1.953213   1.999368   1.998224   1.880182   1.111195   0.158209   0.920476
 
      Natural orbitals and occupation numbers for root  7
      sym 1:   1.999659   1.991942   1.995909   1.084962   1.997184   1.926637   0.919775   0.083932
 
      ************************************************************************************************************************
      *                                                                                                                      *
      *                                                    Final results                                                     *
      *                                                                                                                      *
      ************************************************************************************************************************
 
 
++    Wave function specifications:
      -----------------------------
 
      Number of closed shell electrons          58
      Number of electrons in active shells      12
      Max number of holes in RAS1 space          0
      Max nr of electrons in RAS3 space          0
      Number of inactive orbitals               29
      Number of active orbitals                  8
      Number of secondary orbitals             172
      Spin quantum number                      0.0
      State symmetry                             1
--
 
++    Orbital specifications:
      -----------------------
 
      Symmetry species                           1
                                                 a
      Frozen orbitals                            0
      Inactive orbitals                         29
      Active orbitals                            8
      RAS1 orbitals                              0
      RAS2 orbitals                              8
      RAS3 orbitals                              0
      Secondary orbitals                       172
      Deleted orbitals                           3
      Number of basis functions                212
--
 
++    CI expansion specifications:
      ----------------------------
 
      Number of CSFs                           336
      Number of determinants                   406
      Number of root(s) required                 7
      CI roots used                              1     2     3     4     5     6     7
      weights                                0.143 0.143 0.143 0.143 0.143 0.143 0.143
      highest root included in the CI            7
      Root passed to geometry opt.               7
--
 
++    Final optimization conditions:
      ------------------------------
 
      Average CI energy                            -453.70927321
      RASSCF energy for state  7                   -453.61459620
      Super-CI energy                                -0.00000000
      RASSCF energy change                            0.00000000
      Max change in MO coefficients               0.480E-04
      Max non-diagonal density matrix element     0.466E-04
      Maximum BLB matrix element                 -0.263E-05
      (orbital pair  33,  39 in symmetry   1)
      Norm of electronic gradient            0.410E+00
--
 
 
      Final state energy(ies):
      ------------------------
 
::    RASSCF root number  1 Total energy:   -453.96025161
::    RASSCF root number  2 Total energy:   -453.74860801
::    RASSCF root number  3 Total energy:   -453.73185702
::    RASSCF root number  4 Total energy:   -453.64690712
::    RASSCF root number  5 Total energy:   -453.64035933
::    RASSCF root number  6 Total energy:   -453.62233322
::    RASSCF root number  7 Total energy:   -453.61459620
 
++    Molecular orbitals:
      -------------------
 
      Pseudonatural active orbitals and approximate occupation numbers
 
 
 
 
      Molecular orbitals for symmetry species 1: a  
 
 
      Orbital                 1         2         3         4         5         6         7         8         9        10
      Energy           -20.5968  -20.5217  -15.6333  -15.5834  -11.3394  -11.2882  -11.2875  -11.2627  -11.2562   -1.4214
      Occ. No.           2.0000    2.0000    2.0000    2.0000    2.0000    2.0000    2.0000    2.0000    2.0000    2.0000
 
     1 C1     1s         0.0003   -0.0001    0.0003    0.0000    1.0000    0.0001   -0.0001   -0.0000   -0.0038   -0.0391
     2 C1     2s         0.0011   -0.0006    0.0016    0.0002    0.0021   -0.0003    0.0002   -0.0004   -0.0007    0.3545
     3 C1     3s        -0.0003   -0.0004    0.0008    0.0001   -0.0002   -0.0004    0.0002   -0.0003   -0.0009   -0.0054
     4 C1     4s        -0.0004   -0.0001    0.0002    0.0000    0.0013   -0.0002    0.0001   -0.0001   -0.0003    0.0034
     5 C1     2px       -0.0012   -0.0000    0.0017   -0.0000    0.0012   -0.0003   -0.0002   -0.0002   -0.0004   -0.0410
     6 C1     3px       -0.0008   -0.0001    0.0013   -0.0001    0.0012   -0.0008   -0.0002   -0.0002    0.0001    0.0286
     7 C1     4px        0.0001   -0.0001   -0.0001   -0.0001    0.0004   -0.0004    0.0000   -0.0000    0.0002   -0.0126
     8 C1     2py        0.0030   -0.0001    0.0003   -0.0001    0.0011   -0.0003   -0.0005   -0.0002   -0.0006    0.0944
     9 C1     3py        0.0020   -0.0001    0.0002   -0.0001    0.0009   -0.0008   -0.0003   -0.0003    0.0002   -0.0698
    10 C1     4py       -0.0004    0.0000   -0.0000   -0.0000    0.0007   -0.0004    0.0001   -0.0001    0.0003    0.0231
    11 C1     2pz       -0.0001   -0.0002    0.0001   -0.0000   -0.0000    0.0001    0.0001    0.0000   -0.0000   -0.0033
    12 C1     3pz       -0.0001   -0.0003    0.0001   -0.0001   -0.0000    0.0001    0.0001    0.0000   -0.0001    0.0016
    13 C1     4pz        0.0000   -0.0000    0.0000   -0.0001   -0.0000    0.0000    0.0000    0.0000   -0.0000   -0.0013
    14 C1     3d2-       0.0002   -0.0000    0.0001   -0.0000   -0.0004    0.0000   -0.0000   -0.0000    0.0001   -0.0328
    15 C1     3d1-       0.0000    0.0000    0.0000   -0.0000   -0.0000    0.0000    0.0000    0.0000    0.0000   -0.0022
    16 C1     3d0       -0.0000   -0.0000    0.0001   -0.0000   -0.0004   -0.0000    0.0000   -0.0000    0.0001   -0.0279
    17 C1     3d1+      -0.0000   -0.0000   -0.0000    0.0000    0.0000    0.0000    0.0000   -0.0000   -0.0000    0.0011
    18 C1     3d2+       0.0001    0.0000   -0.0002    0.0000   -0.0000    0.0000   -0.0000    0.0000   -0.0000   -0.0101
    19 C3     1s         0.0001    0.0000    0.0004   -0.0000   -0.0001    0.8942   -0.4467    0.0000    0.0001   -0.0101
    20 C3     2s         0.0005    0.0002    0.0021   -0.0001    0.0007   -0.0011    0.0004    0.0007    0.0008    0.0179
    21 C3     3s         0.0003    0.0001    0.0010   -0.0000    0.0003   -0.0025    0.0008    0.0004    0.0005   -0.0192
    22 C3     4s         0.0000   -0.0000    0.0001   -0.0001   -0.0000    0.0006   -0.0004    0.0000    0.0001   -0.0018
    23 C3     2px       -0.0002   -0.0000   -0.0002    0.0001    0.0007   -0.0011    0.0002    0.0002    0.0002   -0.0238
    24 C3     3px        0.0001   -0.0001    0.0002   -0.0001    0.0013   -0.0014   -0.0004   -0.0001    0.0004   -0.0145
    25 C3     4px        0.0002   -0.0001    0.0002   -0.0002    0.0005   -0.0006   -0.0000   -0.0002    0.0001   -0.0073
    26 C3     2py       -0.0002    0.0006   -0.0003   -0.0005    0.0005   -0.0001    0.0001    0.0002   -0.0001   -0.0232
    27 C3     3py       -0.0001    0.0006    0.0002   -0.0004    0.0007   -0.0000   -0.0000    0.0003    0.0001   -0.0075
    28 C3     4py        0.0001   -0.0000    0.0002    0.0000    0.0001   -0.0007    0.0003    0.0001    0.0001   -0.0052
    29 C3     2pz        0.0001   -0.0009   -0.0001    0.0005    0.0000    0.0002   -0.0001   -0.0003    0.0000    0.0013
    30 C3     3pz        0.0001   -0.0008   -0.0002    0.0006   -0.0001    0.0002    0.0001   -0.0003   -0.0000    0.0039
    31 C3     4pz        0.0000    0.0001   -0.0000    0.0001   -0.0001    0.0000    0.0000   -0.0000   -0.0000    0.0016
    32 C3     3d2-       0.0001    0.0001    0.0000   -0.0000    0.0001   -0.0001   -0.0000   -0.0000    0.0000    0.0035
    33 C3     3d1-      -0.0000   -0.0001    0.0000   -0.0000   -0.0000    0.0000    0.0001    0.0000   -0.0000   -0.0002
    34 C3     3d0       -0.0000   -0.0000    0.0001   -0.0000   -0.0000    0.0001    0.0000   -0.0000   -0.0000   -0.0028
    35 C3     3d1+       0.0000   -0.0001    0.0000   -0.0000    0.0000    0.0001    0.0000   -0.0001    0.0000   -0.0009
    36 C3     3d2+      -0.0000    0.0000    0.0001   -0.0000    0.0000    0.0000    0.0000    0.0001   -0.0000   -0.0004
    37 C4     1s         0.0000    0.0002   -0.0002    0.0003   -0.0001    0.4470    0.8946    0.0003   -0.0000   -0.0005
    38 C4     2s         0.0002    0.0005   -0.0012    0.0011   -0.0010    0.0021    0.0022   -0.0006   -0.0003    0.0332
    39 C4     3s         0.0001   -0.0007   -0.0009    0.0004   -0.0008    0.0004    0.0002   -0.0005   -0.0002    0.0086
    40 C4     4s        -0.0000   -0.0004   -0.0003    0.0001   -0.0003    0.0007    0.0013   -0.0002   -0.0001    0.0032
    41 C4     2px       -0.0001    0.0014    0.0006    0.0007    0.0002   -0.0004    0.0008   -0.0000    0.0001   -0.0044
    42 C4     3px       -0.0001    0.0009    0.0008    0.0005    0.0005    0.0002    0.0003   -0.0007    0.0002   -0.0069
    43 C4     4px        0.0000   -0.0002    0.0002   -0.0001    0.0002    0.0004    0.0002   -0.0005    0.0000   -0.0025
    44 C4     2py       -0.0000   -0.0028   -0.0002    0.0012   -0.0001    0.0005    0.0007   -0.0004   -0.0001   -0.0028
    45 C4     3py       -0.0001   -0.0019   -0.0000    0.0009   -0.0002    0.0005    0.0003   -0.0005   -0.0002    0.0049
    46 C4     4py       -0.0001    0.0003    0.0001   -0.0001   -0.0001    0.0002   -0.0000   -0.0001   -0.0001    0.0004
    47 C4     2pz       -0.0001    0.0003    0.0000   -0.0009   -0.0001    0.0005   -0.0005    0.0002   -0.0001    0.0045
    48 C4     3pz       -0.0002    0.0003   -0.0001   -0.0007   -0.0002    0.0002   -0.0003    0.0006   -0.0002    0.0041
    49 C4     4pz       -0.0001   -0.0000   -0.0001    0.0001   -0.0000   -0.0001   -0.0001    0.0003   -0.0000    0.0016
    50 C4     3d2-       0.0000    0.0001    0.0000   -0.0001   -0.0000   -0.0001   -0.0001    0.0000    0.0000   -0.0011
    51 C4     3d1-       0.0000   -0.0000    0.0000    0.0002    0.0000   -0.0001   -0.0002   -0.0001    0.0000   -0.0009
    52 C4     3d0        0.0000    0.0000   -0.0001    0.0000    0.0000   -0.0001   -0.0002   -0.0000   -0.0000   -0.0010
    53 C4     3d1+      -0.0000   -0.0001   -0.0000    0.0000   -0.0000    0.0000   -0.0001   -0.0000   -0.0000   -0.0002
    54 C4     3d2+       0.0000    0.0001   -0.0000    0.0002    0.0001   -0.0001   -0.0003   -0.0000    0.0000   -0.0011
    55 C6     1s         0.0000    0.0001   -0.0000    0.0003   -0.0000   -0.0001   -0.0004    0.9997   -0.0000    0.0003
    56 C6     2s         0.0002    0.0004   -0.0002    0.0013   -0.0003    0.0003   -0.0005    0.0001   -0.0001    0.0061
    57 C6     3s         0.0001    0.0003   -0.0003    0.0003   -0.0003    0.0001   -0.0006   -0.0016   -0.0001    0.0052
    58 C6     4s         0.0000    0.0001   -0.0001   -0.0001   -0.0001   -0.0001   -0.0002    0.0009   -0.0000    0.0022
    59 C6     2px        0.0000   -0.0002    0.0001   -0.0004    0.0002   -0.0001    0.0004   -0.0001    0.0001   -0.0058
    60 C6     3px        0.0000   -0.0002    0.0001    0.0002    0.0003   -0.0001    0.0004    0.0002    0.0001   -0.0052
    61 C6     4px        0.0000   -0.0000   -0.0000    0.0002    0.0000    0.0001    0.0001   -0.0006   -0.0000   -0.0005
    62 C6     2py        0.0000   -0.0002   -0.0000    0.0001   -0.0000    0.0001    0.0002    0.0002    0.0000   -0.0006
    63 C6     3py        0.0000   -0.0001    0.0000    0.0001    0.0000    0.0001    0.0003   -0.0001    0.0001   -0.0013
    64 C6     4py        0.0000    0.0001    0.0000    0.0000    0.0000    0.0000    0.0001   -0.0000    0.0000   -0.0007
    65 C6     2pz        0.0001    0.0001   -0.0002    0.0002   -0.0000   -0.0003   -0.0003   -0.0000    0.0000    0.0013
    66 C6     3pz        0.0001    0.0001   -0.0002   -0.0002   -0.0001   -0.0003   -0.0003   -0.0001    0.0000    0.0015
    67 C6     4pz       -0.0000   -0.0000   -0.0000   -0.0001   -0.0000   -0.0001   -0.0001    0.0003   -0.0000    0.0008
    68 C6     3d2-       0.0000   -0.0000   -0.0000    0.0001   -0.0000    0.0000    0.0001    0.0001    0.0000   -0.0000
    69 C6     3d1-      -0.0000   -0.0000   -0.0000    0.0000    0.0000   -0.0000   -0.0000   -0.0000    0.0000   -0.0000
    70 C6     3d0       -0.0000   -0.0000    0.0000    0.0001   -0.0000    0.0000    0.0000    0.0000   -0.0000    0.0001
    71 C6     3d1+       0.0000   -0.0000    0.0000    0.0001    0.0000   -0.0000   -0.0000    0.0001    0.0000   -0.0003
    72 C6     3d2+      -0.0000    0.0000   -0.0000   -0.0000   -0.0000    0.0000   -0.0000   -0.0001   -0.0000    0.0004
    73 C19    1s         0.0002    0.0000   -0.0000   -0.0000    0.0036    0.0001   -0.0001   -0.0000    1.0000   -0.0147
    74 C19    2s         0.0012    0.0000   -0.0000   -0.0001    0.0005    0.0006   -0.0005   -0.0002    0.0019   -0.0135
    75 C19    3s         0.0007   -0.0000    0.0001   -0.0001    0.0002    0.0002   -0.0003   -0.0002   -0.0005   -0.0399
    76 C19    4s         0.0001   -0.0000    0.0000   -0.0000    0.0001   -0.0001   -0.0000   -0.0001    0.0012   -0.0038
    77 C19    2px        0.0008   -0.0000   -0.0003   -0.0000   -0.0002    0.0002   -0.0001   -0.0000   -0.0002   -0.0102
    78 C19    3px        0.0005   -0.0000   -0.0002   -0.0000   -0.0003    0.0002   -0.0000   -0.0000   -0.0001   -0.0081
    79 C19    4px       -0.0002   -0.0000    0.0000    0.0000   -0.0000    0.0000    0.0000    0.0000    0.0002    0.0076
    80 C19    2py       -0.0001   -0.0001    0.0004   -0.0000    0.0004    0.0001   -0.0002   -0.0001   -0.0002    0.0210
    81 C19    3py       -0.0002   -0.0000    0.0003   -0.0000   -0.0001   -0.0000   -0.0001   -0.0001   -0.0000   -0.0059
    82 C19    4py       -0.0001    0.0000   -0.0001   -0.0000   -0.0001   -0.0001    0.0001   -0.0000    0.0004    0.0057
    83 C19    2pz       -0.0000   -0.0001    0.0000    0.0001   -0.0000    0.0001   -0.0001   -0.0000   -0.0000   -0.0000
    84 C19    3pz       -0.0000   -0.0001    0.0000    0.0001   -0.0000    0.0001   -0.0001   -0.0000   -0.0000    0.0011
    85 C19    4pz        0.0000    0.0000   -0.0000    0.0000    0.0000   -0.0000   -0.0000    0.0000   -0.0000   -0.0002
    86 C19    3d2-       0.0001   -0.0000   -0.0000    0.0000    0.0000    0.0001   -0.0000   -0.0000   -0.0001    0.0006
    87 C19    3d1-      -0.0000    0.0000   -0.0000   -0.0000    0.0000   -0.0000    0.0000    0.0000    0.0000   -0.0002
    88 C19    3d0       -0.0001   -0.0000   -0.0001    0.0000    0.0001   -0.0000    0.0000    0.0000    0.0001    0.0014
    89 C19    3d1+      -0.0000    0.0000   -0.0000   -0.0000    0.0000   -0.0000    0.0000    0.0000    0.0000    0.0000
    90 C19    3d2+       0.0001   -0.0000   -0.0000   -0.0000   -0.0001   -0.0000    0.0000   -0.0000    0.0001   -0.0069
    91 N2     1s         0.0000   -0.0000    0.9999   -0.0000   -0.0002    0.0001   -0.0000    0.0000    0.0001   -0.0185
    92 N2     2s         0.0002    0.0000    0.0002   -0.0001   -0.0000    0.0014   -0.0005    0.0001    0.0007    0.1188
    93 N2     3s         0.0002    0.0001   -0.0013   -0.0000   -0.0002    0.0007   -0.0002    0.0001    0.0005   -0.0497
    94 N2     4s         0.0000    0.0001    0.0005   -0.0000    0.0001    0.0003   -0.0001    0.0000    0.0001   -0.0119
    95 N2     2px        0.0004   -0.0004    0.0008    0.0002   -0.0003    0.0010   -0.0002   -0.0002   -0.0006   -0.0294
    96 N2     3px        0.0005   -0.0007    0.0010    0.0002   -0.0002    0.0010   -0.0001   -0.0004   -0.0006    0.0183
    97 N2     4px        0.0001   -0.0001   -0.0001    0.0000   -0.0003    0.0001   -0.0000   -0.0001    0.0001   -0.0054
    98 N2     2py       -0.0016    0.0003   -0.0008   -0.0000    0.0001    0.0008   -0.0001    0.0000   -0.0004    0.0394
    99 N2     3py       -0.0019    0.0003   -0.0002   -0.0000    0.0000    0.0008   -0.0001    0.0000   -0.0004    0.0166
   100 N2     4py        0.0000   -0.0000    0.0005   -0.0000   -0.0000    0.0002   -0.0001   -0.0000    0.0001   -0.0054
   101 N2     2pz        0.0000    0.0004   -0.0001   -0.0002    0.0000   -0.0001    0.0001    0.0001    0.0000   -0.0013
   102 N2     3pz        0.0000    0.0005   -0.0001   -0.0002    0.0000   -0.0002    0.0001    0.0001    0.0001   -0.0014
   103 N2     4pz       -0.0000    0.0001   -0.0001    0.0000    0.0000   -0.0000    0.0000    0.0000    0.0000   -0.0004
   104 N2     3d2-       0.0001    0.0000   -0.0002   -0.0000   -0.0001    0.0000    0.0000   -0.0000   -0.0000   -0.0028
   105 N2     3d1-       0.0000    0.0000    0.0000   -0.0000    0.0000    0.0000   -0.0000    0.0000    0.0000   -0.0002
   106 N2     3d0       -0.0000    0.0000   -0.0000   -0.0000    0.0002    0.0001   -0.0001    0.0000   -0.0001   -0.0030
   107 N2     3d1+      -0.0000    0.0000   -0.0000   -0.0000   -0.0000   -0.0000   -0.0000    0.0000   -0.0000    0.0000
   108 N2     3d2+      -0.0000   -0.0000    0.0000   -0.0000    0.0001   -0.0000    0.0000   -0.0000    0.0000    0.0047
   109 N5     1s        -0.0000    0.0002    0.0001    0.9999    0.0001   -0.0001   -0.0002    0.0001    0.0000   -0.0018
   110 N5     2s        -0.0000    0.0011    0.0005    0.0006    0.0003   -0.0001   -0.0003    0.0017    0.0001   -0.0000
   111 N5     3s        -0.0000    0.0008    0.0003   -0.0011    0.0002   -0.0001   -0.0004    0.0010    0.0001   -0.0055
   112 N5     4s        -0.0000    0.0002    0.0001    0.0006    0.0001   -0.0000    0.0000    0.0004    0.0000   -0.0011
   113 N5     2px       -0.0001   -0.0011   -0.0000   -0.0006    0.0002   -0.0001    0.0005    0.0008    0.0000   -0.0022
   114 N5     3px       -0.0002   -0.0013    0.0000   -0.0003    0.0003   -0.0002    0.0004    0.0008    0.0000   -0.0040
   115 N5     4px       -0.0000    0.0000    0.0000    0.0002    0.0001   -0.0001   -0.0001    0.0002    0.0000   -0.0014
   116 N5     2py        0.0001    0.0009   -0.0001    0.0007   -0.0000   -0.0003   -0.0001    0.0000    0.0000   -0.0030
   117 N5     3py        0.0001    0.0010   -0.0001    0.0003    0.0000   -0.0001   -0.0000   -0.0002    0.0000   -0.0010
   118 N5     4py       -0.0000    0.0000    0.0000   -0.0003    0.0000    0.0000   -0.0002   -0.0002   -0.0000    0.0000
   119 N5     2pz        0.0000    0.0003    0.0000    0.0001   -0.0002    0.0003   -0.0001   -0.0005   -0.0000    0.0044
   120 N5     3pz        0.0001    0.0004   -0.0000    0.0000   -0.0004    0.0003   -0.0003   -0.0003   -0.0001    0.0062
   121 N5     4pz        0.0000   -0.0000   -0.0000    0.0000   -0.0001    0.0001    0.0001   -0.0000   -0.0000    0.0017
   122 N5     3d2-      -0.0000   -0.0000    0.0000   -0.0001   -0.0000    0.0000    0.0000   -0.0000   -0.0000    0.0003
   123 N5     3d1-       0.0000    0.0000   -0.0000    0.0000   -0.0000   -0.0000    0.0001    0.0001    0.0000   -0.0002
   124 N5     3d0       -0.0000   -0.0000   -0.0000   -0.0000   -0.0000    0.0000    0.0001    0.0000   -0.0000    0.0001
   125 N5     3d1+       0.0000   -0.0001   -0.0000    0.0001    0.0000    0.0000    0.0001    0.0001    0.0000   -0.0001
   126 N5     3d2+      -0.0000    0.0001   -0.0000   -0.0001   -0.0000   -0.0000   -0.0000    0.0000   -0.0000    0.0001
   127 O7     1s         0.9997    0.0000    0.0000    0.0000   -0.0003   -0.0000    0.0000    0.0000    0.0001   -0.0237
   128 O7     2s        -0.0014    0.0001    0.0001    0.0000    0.0004   -0.0000    0.0002    0.0000    0.0003    0.6893
   129 O7     3s        -0.0013    0.0000    0.0001    0.0000   -0.0000    0.0001    0.0001    0.0000    0.0003   -0.0339
   130 O7     4s         0.0001    0.0000   -0.0000    0.0000    0.0000    0.0000    0.0000    0.0000    0.0001   -0.0139
   131 O7     2px        0.0002    0.0000   -0.0003    0.0000    0.0004   -0.0000    0.0001   -0.0000    0.0001    0.0856
   132 O7     3px       -0.0002   -0.0000   -0.0004    0.0000   -0.0000    0.0001    0.0001   -0.0000    0.0001   -0.0265
   133 O7     4px        0.0008   -0.0000   -0.0001    0.0000    0.0001    0.0000   -0.0000   -0.0000   -0.0000   -0.0017
   134 O7     2py       -0.0002   -0.0000   -0.0002   -0.0000   -0.0006    0.0000   -0.0000   -0.0000   -0.0001   -0.1201
   135 O7     3py        0.0005   -0.0000   -0.0002   -0.0000   -0.0003    0.0000    0.0000   -0.0000   -0.0001    0.0368
   136 O7     4py       -0.0011   -0.0000    0.0001   -0.0000   -0.0003   -0.0000    0.0000   -0.0000    0.0000    0.0001
   137 O7     2pz        0.0000    0.0000   -0.0000    0.0000    0.0000    0.0000   -0.0000    0.0000    0.0000    0.0057
   138 O7     3pz       -0.0000    0.0001   -0.0000    0.0000   -0.0000   -0.0000   -0.0001    0.0000    0.0000   -0.0012
   139 O7     4pz        0.0000    0.0000   -0.0000    0.0000    0.0000    0.0000   -0.0000    0.0000    0.0000    0.0001
   140 O7     3d2-       0.0001   -0.0000    0.0000   -0.0000   -0.0002    0.0000   -0.0000    0.0000   -0.0000   -0.0180
   141 O7     3d1-       0.0000   -0.0000   -0.0000    0.0000   -0.0000    0.0000   -0.0000    0.0000   -0.0000   -0.0010
   142 O7     3d0       -0.0000    0.0000   -0.0001    0.0000   -0.0001   -0.0000    0.0000    0.0000   -0.0000   -0.0105
   143 O7     3d1+      -0.0000    0.0000   -0.0000   -0.0000    0.0000    0.0000   -0.0000    0.0000   -0.0000    0.0007
   144 O7     3d2+       0.0000   -0.0000   -0.0001    0.0000   -0.0001   -0.0000    0.0000    0.0000   -0.0000   -0.0067
   145 O8     1s        -0.0000    0.9997   -0.0000    0.0000    0.0000   -0.0001   -0.0002   -0.0000    0.0000   -0.0016
   146 O8     2s        -0.0000   -0.0011   -0.0002    0.0002    0.0002    0.0004    0.0006   -0.0003    0.0001    0.0255
   147 O8     3s        -0.0001   -0.0011   -0.0002    0.0002    0.0002    0.0001    0.0001   -0.0001    0.0001   -0.0034
   148 O8     4s        -0.0001    0.0002   -0.0001    0.0000    0.0001    0.0000    0.0001   -0.0000    0.0000   -0.0011
   149 O8     2px        0.0001   -0.0002    0.0001   -0.0002   -0.0001   -0.0001   -0.0002   -0.0000   -0.0001   -0.0028
   150 O8     3px        0.0001    0.0002    0.0001   -0.0002   -0.0002   -0.0000   -0.0002   -0.0000   -0.0001    0.0023
   151 O8     4px        0.0000   -0.0006   -0.0000    0.0001   -0.0000   -0.0000   -0.0001   -0.0000   -0.0000    0.0001
   152 O8     2py        0.0001    0.0003   -0.0000   -0.0001    0.0001    0.0004    0.0007   -0.0001    0.0000    0.0038
   153 O8     3py        0.0001   -0.0004   -0.0000   -0.0002    0.0000    0.0001    0.0001   -0.0000   -0.0000   -0.0034
   154 O8     4py        0.0000    0.0012   -0.0000   -0.0001   -0.0000    0.0000    0.0001    0.0000   -0.0000    0.0000
   155 O8     2pz       -0.0000   -0.0000   -0.0000    0.0002    0.0000   -0.0001    0.0000    0.0000    0.0000   -0.0001
   156 O8     3pz       -0.0000   -0.0000   -0.0001    0.0002    0.0000   -0.0001    0.0000   -0.0000    0.0001   -0.0003
   157 O8     4pz       -0.0000   -0.0001   -0.0000    0.0000    0.0000   -0.0000    0.0000   -0.0000    0.0000   -0.0001
   158 O8     3d2-      -0.0000    0.0001    0.0000   -0.0000   -0.0000   -0.0001   -0.0001   -0.0000   -0.0000   -0.0006
   159 O8     3d1-      -0.0000   -0.0000    0.0000    0.0000   -0.0000   -0.0000   -0.0000    0.0000    0.0000   -0.0000
   160 O8     3d0       -0.0000    0.0000    0.0000   -0.0000   -0.0000   -0.0001   -0.0001   -0.0000   -0.0000   -0.0004
   161 O8     3d1+       0.0000   -0.0001    0.0000   -0.0000   -0.0000   -0.0000    0.0001   -0.0000   -0.0000    0.0001
   162 O8     3d2+      -0.0000    0.0001   -0.0000    0.0000   -0.0000   -0.0001   -0.0002    0.0000    0.0000   -0.0003
   163 H9     1s         0.0002    0.0001    0.0001   -0.0001    0.0000   -0.0004    0.0001   -0.0000    0.0003    0.0141
   164 H9     2s         0.0001    0.0001    0.0001   -0.0000    0.0000   -0.0003    0.0000   -0.0000   -0.0002    0.0034
   165 H9     2px       -0.0000    0.0000    0.0000   -0.0000    0.0000   -0.0000   -0.0000   -0.0000   -0.0000    0.0009
   166 H9     2py       -0.0001    0.0000   -0.0000    0.0000    0.0000   -0.0000   -0.0000    0.0000    0.0000    0.0012
   167 H9     2pz       -0.0000   -0.0000    0.0000    0.0000   -0.0000    0.0000   -0.0000    0.0000    0.0001   -0.0007
   168 H10    1s         0.0002   -0.0002    0.0002   -0.0000    0.0000   -0.0002   -0.0000   -0.0001    0.0003    0.0153
   169 H10    2s         0.0001   -0.0002    0.0001   -0.0000    0.0000   -0.0002   -0.0000   -0.0000   -0.0003    0.0039
   170 H10    2px       -0.0000   -0.0000    0.0001    0.0000    0.0000   -0.0000   -0.0000   -0.0000   -0.0000    0.0010
   171 H10    2py       -0.0001   -0.0000   -0.0000   -0.0000    0.0000   -0.0000    0.0000    0.0000    0.0000    0.0012
   172 H10    2pz        0.0000   -0.0000   -0.0000   -0.0000    0.0000   -0.0000    0.0000   -0.0000   -0.0001    0.0006
   173 H11    1s        -0.0005   -0.0001    0.0005   -0.0000    0.0003   -0.0002   -0.0000   -0.0001    0.0004    0.0212
   174 H11    2s        -0.0002   -0.0001    0.0004   -0.0000    0.0002   -0.0001   -0.0000   -0.0001   -0.0002    0.0064
   175 H11    2px       -0.0000    0.0000   -0.0001   -0.0000   -0.0000    0.0000    0.0000    0.0000    0.0001   -0.0002
   176 H11    2py       -0.0000   -0.0000    0.0000   -0.0000    0.0001   -0.0000    0.0000   -0.0000   -0.0000    0.0020
   177 H11    2pz       -0.0000    0.0000    0.0000   -0.0000   -0.0000   -0.0000    0.0000    0.0000   -0.0000   -0.0000
   178 H12    1s        -0.0012    0.0006   -0.0010    0.0000    0.0000   -0.0002    0.0002   -0.0000   -0.0005    0.0366
   179 H12    2s        -0.0007    0.0004   -0.0007    0.0000   -0.0000   -0.0001    0.0001   -0.0000   -0.0003   -0.0028
   180 H12    2px        0.0001   -0.0000    0.0002    0.0000   -0.0001    0.0000   -0.0000    0.0000    0.0001   -0.0048
   181 H12    2py       -0.0000    0.0001   -0.0004    0.0000   -0.0000    0.0001    0.0000   -0.0000   -0.0000    0.0041
   182 H12    2pz       -0.0000   -0.0000   -0.0000   -0.0000    0.0000    0.0000    0.0000   -0.0000    0.0000    0.0002
   183 H13    1s         0.0001   -0.0004   -0.0004    0.0005   -0.0004    0.0005   -0.0006   -0.0001    0.0001    0.0148
   184 H13    2s         0.0001   -0.0003   -0.0002    0.0004   -0.0002   -0.0001   -0.0002   -0.0001    0.0001   -0.0009
   185 H13    2px        0.0000   -0.0000    0.0000   -0.0000   -0.0000    0.0001    0.0000    0.0000   -0.0000   -0.0003
   186 H13    2py        0.0000   -0.0000    0.0000   -0.0001    0.0000   -0.0001    0.0000   -0.0000   -0.0000   -0.0011
   187 H13    2pz        0.0000    0.0000    0.0000    0.0000   -0.0000   -0.0000   -0.0000   -0.0000   -0.0000    0.0010
   188 H14    1s         0.0002    0.0008   -0.0006   -0.0002   -0.0007    0.0007   -0.0006   -0.0002   -0.0001    0.0126
   189 H14    2s         0.0001    0.0005   -0.0003   -0.0002   -0.0005    0.0001   -0.0001   -0.0001   -0.0001    0.0027
   190 H14    2px        0.0000   -0.0000    0.0000   -0.0000    0.0001    0.0000    0.0001   -0.0000   -0.0000   -0.0005
   191 H14    2py       -0.0000   -0.0000    0.0001    0.0000    0.0000   -0.0000    0.0000    0.0000   -0.0000   -0.0005
   192 H14    2pz       -0.0000   -0.0000    0.0000    0.0000    0.0001   -0.0000   -0.0000    0.0000    0.0000   -0.0012
   193 H15    1s        -0.0002   -0.0013    0.0001   -0.0008   -0.0000    0.0002    0.0003   -0.0001   -0.0001    0.0063
   194 H15    2s        -0.0002   -0.0007    0.0001   -0.0006   -0.0000    0.0001    0.0001   -0.0000   -0.0001    0.0028
   195 H15    2px       -0.0000   -0.0000    0.0000   -0.0003   -0.0000    0.0000   -0.0000    0.0000   -0.0000    0.0006
   196 H15    2py        0.0000    0.0001   -0.0000    0.0004    0.0000   -0.0001   -0.0001    0.0000    0.0000   -0.0007
   197 H15    2pz       -0.0000   -0.0000    0.0000   -0.0000    0.0000    0.0000    0.0001   -0.0000    0.0000   -0.0000
   198 H16    1s         0.0001    0.0003   -0.0002   -0.0005   -0.0001   -0.0004   -0.0003    0.0005    0.0000    0.0021
   199 H16    2s         0.0001    0.0002   -0.0001   -0.0002   -0.0001   -0.0003   -0.0002   -0.0001   -0.0000    0.0017
   200 H16    2px       -0.0000   -0.0000   -0.0000    0.0000    0.0000   -0.0000   -0.0000   -0.0000    0.0000    0.0000
   201 H16    2py       -0.0000   -0.0000    0.0000    0.0000   -0.0000    0.0000    0.0000   -0.0000   -0.0000    0.0000
   202 H16    2pz        0.0000    0.0000   -0.0000   -0.0000   -0.0000   -0.0000   -0.0001   -0.0000    0.0000    0.0002
   203 H17    1s        -0.0000    0.0003    0.0001   -0.0005   -0.0001   -0.0000   -0.0004    0.0005   -0.0001    0.0037
   204 H17    2s        -0.0000    0.0002    0.0001   -0.0002   -0.0001   -0.0000   -0.0003   -0.0001   -0.0001    0.0025
   205 H17    2px        0.0000   -0.0000   -0.0000    0.0000    0.0000    0.0000    0.0000   -0.0000    0.0000   -0.0002
   206 H17    2py        0.0000   -0.0000    0.0000    0.0000    0.0000   -0.0000    0.0000    0.0000    0.0000   -0.0004
   207 H17    2pz        0.0000    0.0000    0.0000   -0.0000    0.0000    0.0000    0.0000    0.0000    0.0000   -0.0002
   208 H18    1s        -0.0001    0.0000   -0.0002   -0.0002   -0.0002    0.0001   -0.0001    0.0010    0.0000    0.0039
   209 H18    2s        -0.0000    0.0001   -0.0001   -0.0000   -0.0001    0.0001    0.0000    0.0001    0.0000    0.0023
   210 H18    2px        0.0000    0.0000    0.0000   -0.0000    0.0000   -0.0000   -0.0000   -0.0001   -0.0000   -0.0001
   211 H18    2py       -0.0000    0.0000   -0.0000    0.0000   -0.0000    0.0000   -0.0000    0.0001   -0.0000    0.0005
   212 H18    2pz       -0.0000   -0.0000    0.0000   -0.0000    0.0000    0.0000    0.0000    0.0000   -0.0000    0.0000
 
 
      Orbital                11        12        13        14        15        16        17        18        19        20
      Energy            -1.3637   -1.2530   -1.2143   -1.0284   -0.9719   -0.9146   -0.8177   -0.7776   -0.7179   -0.6917
      Occ. No.           2.0000    2.0000    2.0000    2.0000    2.0000    2.0000    2.0000    2.0000    2.0000    2.0000
 
     1 C1     1s         0.0048   -0.0089    0.0024   -0.0153    0.0002    0.0065   -0.0131    0.0024    0.0069   -0.0033
     2 C1     2s         0.0111    0.1267    0.0090    0.2851   -0.0385   -0.0913    0.3751   -0.0389   -0.2649    0.0754
     3 C1     3s         0.0196   -0.0008    0.0136   -0.0115   -0.0001    0.0092   -0.0019    0.0043    0.0062   -0.0184
     4 C1     4s         0.0055    0.0007    0.0043   -0.0036   -0.0009    0.0041   -0.0021    0.0015    0.0037   -0.0034
     5 C1     2px        0.0322    0.1533    0.0148   -0.0066    0.1021   -0.0966    0.1361   -0.0050    0.1416   -0.2588
     6 C1     3px        0.0180   -0.0366    0.0280   -0.0509   -0.0303    0.0408   -0.0243   -0.0044   -0.0688    0.0535
     7 C1     4px        0.0089    0.0288    0.0051   -0.0101    0.0104   -0.0064    0.0101   -0.0017    0.0045   -0.0180
     8 C1     2py        0.0049   -0.0384    0.0199   -0.1571    0.0620    0.0022    0.0540    0.0356    0.0577    0.1542
     9 C1     3py        0.0238    0.0449    0.0221    0.0141   -0.0492    0.0416   -0.0054    0.0002   -0.0050   -0.0661
    10 C1     4py        0.0002   -0.0060    0.0041   -0.0247    0.0068    0.0040    0.0079    0.0021   -0.0017    0.0085
    11 C1     2pz        0.0016   -0.0036   -0.0030    0.0103    0.0004   -0.0047    0.0029   -0.0015    0.0023   -0.0033
    12 C1     3pz        0.0010   -0.0097   -0.0044    0.0048    0.0050   -0.0086    0.0048   -0.0012    0.0029    0.0028
    13 C1     4pz       -0.0001   -0.0014   -0.0012    0.0027    0.0007   -0.0025    0.0000    0.0001    0.0012    0.0005
    14 C1     3d2-       0.0034    0.0145   -0.0002    0.0083   -0.0092    0.0070    0.0131    0.0069    0.0166   -0.0054
    15 C1     3d1-       0.0001    0.0006    0.0000   -0.0007    0.0008   -0.0003   -0.0005    0.0000    0.0008   -0.0008
    16 C1     3d0        0.0010   -0.0065    0.0001   -0.0116   -0.0002    0.0050   -0.0133    0.0012    0.0061   -0.0024
    17 C1     3d1+       0.0000   -0.0009    0.0001   -0.0001    0.0008   -0.0003   -0.0002    0.0001    0.0004    0.0007
    18 C1     3d2+       0.0029    0.0280   -0.0011    0.0031    0.0152   -0.0137    0.0109   -0.0006    0.0149   -0.0174
    19 C3     1s        -0.0165   -0.0298   -0.0064    0.0339    0.0260   -0.0220   -0.0103   -0.0064   -0.0002    0.0004
    20 C3     2s         0.0236    0.1772    0.0133   -0.2918   -0.2364    0.3125    0.1016    0.0692   -0.0330   -0.0416
    21 C3     3s        -0.0414   -0.0470   -0.0176    0.0582    0.0444   -0.0180   -0.0234   -0.0141    0.0019    0.0010
    22 C3     4s        -0.0054   -0.0095   -0.0018    0.0159    0.0105   -0.0053   -0.0059   -0.0048    0.0020    0.0020
    23 C3     2px        0.0196   -0.0545    0.0264   -0.0325   -0.0710    0.0041   -0.0522   -0.1384   -0.2615   -0.1024
    24 C3     3px        0.0024    0.0043    0.0172   -0.0267    0.0234    0.0159    0.0113    0.0246    0.0382    0.0123
    25 C3     4px        0.0096   -0.0085    0.0070   -0.0048    0.0020   -0.0023   -0.0028   -0.0075   -0.0023   -0.0029
    26 C3     2py       -0.0362   -0.1002    0.0096    0.0083   -0.0329   -0.0343    0.1469    0.0116   -0.0323   -0.2273
    27 C3     3py       -0.0022    0.0063   -0.0041   -0.0363    0.0116   -0.0269   -0.0108    0.0100    0.0080    0.0338
    28 C3     4py        0.0050   -0.0027    0.0027   -0.0139   -0.0079    0.0047    0.0081    0.0092   -0.0031   -0.0095
    29 C3     2pz        0.0031   -0.0000   -0.0182    0.0131    0.0263    0.0340   -0.0035    0.0552    0.0518    0.0563
    30 C3     3pz        0.0134    0.0039   -0.0016   -0.0056   -0.0159    0.0219    0.0018   -0.0123   -0.0062   -0.0072
    31 C3     4pz       -0.0044    0.0071   -0.0005   -0.0047   -0.0037    0.0121    0.0005    0.0012   -0.0017    0.0001
    32 C3     3d2-      -0.0012    0.0188    0.0043   -0.0026    0.0076   -0.0021   -0.0031    0.0061    0.0204    0.0206
    33 C3     3d1-       0.0046   -0.0022   -0.0017    0.0002   -0.0018    0.0009   -0.0018   -0.0036   -0.0083   -0.0007
    34 C3     3d0       -0.0030   -0.0122    0.0017    0.0061   -0.0015   -0.0030    0.0058   -0.0026   -0.0064   -0.0114
    35 C3     3d1+      -0.0009   -0.0039   -0.0031    0.0049    0.0078    0.0010    0.0056    0.0095    0.0111   -0.0010
    36 C3     3d2+       0.0009   -0.0083    0.0025   -0.0004   -0.0096   -0.0033    0.0161   -0.0095   -0.0094   -0.0165
    37 C4     1s        -0.0400    0.0065   -0.0063    0.0086    0.0148    0.0076   -0.0035    0.0162    0.0031    0.0020
    38 C4     2s         0.3589    0.0058    0.1225   -0.1075   -0.2263   -0.0524    0.0168   -0.4021   -0.0779   -0.0307
    39 C4     3s        -0.0083    0.0152    0.0069    0.0157    0.0117    0.0174   -0.0114    0.0089    0.0045    0.0034
    40 C4     4s         0.0018    0.0045    0.0023    0.0049    0.0038    0.0055   -0.0026    0.0050    0.0035    0.0022
    41 C4     2px        0.0671   -0.0469    0.0412    0.0665    0.1090   -0.0342    0.0164   -0.0475    0.1608    0.0695
    42 C4     3px       -0.0203    0.0030    0.0487   -0.0312    0.0373    0.0868    0.0049   -0.0022   -0.0715   -0.0348
    43 C4     4px        0.0172   -0.0116    0.0131    0.0068    0.0200    0.0052    0.0044   -0.0064    0.0036   -0.0006
    44 C4     2py       -0.0738    0.0076    0.1532   -0.0323   -0.0783   -0.0680    0.0189   -0.0908    0.0253   -0.0352
    45 C4     3py        0.0609   -0.0330   -0.0446    0.0203    0.0352    0.0251    0.0179    0.0219   -0.0159    0.0065
    46 C4     4py       -0.0214   -0.0021    0.0288   -0.0020   -0.0079   -0.0054    0.0098   -0.0029    0.0023   -0.0021
    47 C4     2pz       -0.0094    0.0134   -0.0830   -0.0299   -0.0367    0.0395   -0.0128    0.0499   -0.1205   -0.0336
    48 C4     3pz       -0.0149   -0.0031   -0.0164    0.0119   -0.0233   -0.0746   -0.0055   -0.0071    0.0496    0.0222
    49 C4     4pz       -0.0028    0.0035   -0.0195   -0.0045   -0.0075   -0.0026   -0.0030    0.0048   -0.0044    0.0005
    50 C4     3d2-      -0.0252    0.0050    0.0233    0.0012    0.0001   -0.0086   -0.0071   -0.0099    0.0118    0.0119
    51 C4     3d1-      -0.0113    0.0008   -0.0150   -0.0003    0.0050    0.0136    0.0022    0.0098   -0.0086   -0.0058
    52 C4     3d0       -0.0227    0.0039    0.0051    0.0014    0.0044    0.0014   -0.0020    0.0019    0.0020    0.0026
    53 C4     3d1+      -0.0039   -0.0028   -0.0105    0.0077    0.0096   -0.0034    0.0002    0.0170    0.0010   -0.0021
    54 C4     3d2+      -0.0229    0.0077   -0.0010   -0.0068    0.0002    0.0159    0.0009   -0.0048   -0.0015    0.0025
    55 C6     1s        -0.0092    0.0049   -0.0346   -0.0137   -0.0372   -0.0428   -0.0055    0.0074    0.0061    0.0056
    56 C6     2s         0.0264    0.0123    0.1567    0.0858    0.2490    0.3722    0.0268   -0.1150   -0.0469   -0.0388
    57 C6     3s        -0.0139    0.0223   -0.0602   -0.0216   -0.0717   -0.0692   -0.0172    0.0121    0.0162    0.0163
    58 C6     4s        -0.0004    0.0065   -0.0098   -0.0036   -0.0157   -0.0140   -0.0046    0.0035    0.0042    0.0043
    59 C6     2px       -0.0202   -0.0044   -0.0940   -0.0218   -0.0139    0.0319    0.0301   -0.1039   -0.0714   -0.1067
    60 C6     3px        0.0030   -0.0107    0.0170    0.0034    0.0189    0.0032    0.0017    0.0074    0.0136    0.0172
    61 C6     4px       -0.0034   -0.0008   -0.0013    0.0039    0.0120    0.0179    0.0033   -0.0096   -0.0035   -0.0048
    62 C6     2py       -0.0058    0.0026    0.0025   -0.0021    0.0081    0.0129   -0.0110    0.1177   -0.0982   -0.0442
    63 C6     3py       -0.0007    0.0014    0.0016   -0.0024    0.0074    0.0120    0.0028   -0.0028    0.0075    0.0028
    64 C6     4py       -0.0003    0.0001    0.0024    0.0002    0.0021    0.0005   -0.0024    0.0067   -0.0055   -0.0023
    65 C6     2pz        0.0132    0.0040    0.0500    0.0067    0.0023   -0.0195   -0.0099    0.0106    0.0731    0.0707
    66 C6     3pz       -0.0007    0.0091   -0.0099   -0.0067   -0.0156   -0.0025   -0.0008   -0.0014   -0.0095   -0.0111
    67 C6     4pz        0.0019    0.0012   -0.0002   -0.0018   -0.0081   -0.0097   -0.0009    0.0025    0.0037    0.0032
    68 C6     3d2-       0.0000    0.0001   -0.0021   -0.0010   -0.0022   -0.0014    0.0014   -0.0095    0.0024   -0.0005
    69 C6     3d1-      -0.0003    0.0002    0.0015   -0.0003   -0.0001   -0.0002   -0.0009    0.0083   -0.0050   -0.0018
    70 C6     3d0       -0.0008    0.0003   -0.0039   -0.0013   -0.0025   -0.0006    0.0004   -0.0023   -0.0038   -0.0034
    71 C6     3d1+      -0.0040    0.0007   -0.0167   -0.0036   -0.0046    0.0022    0.0023   -0.0047   -0.0117   -0.0125
    72 C6     3d2+       0.0031   -0.0004    0.0164    0.0032    0.0036   -0.0026   -0.0028    0.0126    0.0048    0.0087
    73 C19    1s         0.0009   -0.0100    0.0014   -0.0556    0.0435   -0.0216    0.0133   -0.0039   -0.0093   -0.0019
    74 C19    2s         0.0049   -0.0014    0.0070    0.2976   -0.2771    0.1615   -0.0703    0.0405    0.0981   -0.0014
    75 C19    3s         0.0072   -0.0283    0.0101   -0.1097    0.0818   -0.0365    0.0369   -0.0072   -0.0174   -0.0116
    76 C19    4s         0.0029   -0.0033    0.0037   -0.0234    0.0184   -0.0080    0.0101   -0.0022   -0.0054   -0.0033
    77 C19    2px        0.0027    0.0230   -0.0018    0.0556    0.0001   -0.0276    0.0441   -0.0263   -0.0620   -0.1337
    78 C19    3px       -0.0004   -0.0027   -0.0018    0.0054    0.0059   -0.0029   -0.0025    0.0046    0.0138    0.0120
    79 C19    4px       -0.0012    0.0001   -0.0007   -0.0074    0.0125   -0.0088    0.0011   -0.0034   -0.0061   -0.0030
    80 C19    2py        0.0044    0.0083    0.0071    0.0454   -0.0130   -0.0140    0.0605   -0.0371   -0.2097    0.0584
    81 C19    3py        0.0065   -0.0018    0.0081   -0.0312    0.0176   -0.0014   -0.0103    0.0004    0.0209   -0.0133
    82 C19    4py        0.0004    0.0014    0.0003   -0.0125    0.0140   -0.0094    0.0129   -0.0021   -0.0089    0.0018
    83 C19    2pz        0.0028   -0.0004    0.0002   -0.0029    0.0001    0.0035   -0.0022   -0.0001    0.0101   -0.0002
    84 C19    3pz        0.0026    0.0009    0.0005   -0.0006   -0.0018    0.0036   -0.0002   -0.0022   -0.0017    0.0003
    85 C19    4pz       -0.0000    0.0005    0.0002    0.0001   -0.0010    0.0009   -0.0008    0.0001    0.0002   -0.0001
    86 C19    3d2-       0.0005    0.0058   -0.0001    0.0110   -0.0023   -0.0026    0.0071   -0.0032   -0.0144    0.0009
    87 C19    3d1-      -0.0001    0.0002    0.0000   -0.0009    0.0005   -0.0000   -0.0004    0.0003    0.0013    0.0002
    88 C19    3d0       -0.0001   -0.0008    0.0001   -0.0088    0.0039    0.0006   -0.0033    0.0025    0.0085    0.0084
    89 C19    3d1+      -0.0003   -0.0001    0.0001   -0.0006    0.0000    0.0001   -0.0005    0.0003    0.0003    0.0004
    90 C19    3d2+       0.0006    0.0024   -0.0002   -0.0071    0.0050   -0.0010   -0.0029    0.0020    0.0139   -0.0048
    91 N2     1s        -0.0063   -0.0411    0.0006   -0.0043   -0.0040    0.0010    0.0036   -0.0001    0.0020    0.0007
    92 N2     2s         0.0595    0.5858   -0.0230   -0.0144    0.2072   -0.1235   -0.1577   -0.0089    0.1238    0.0484
    93 N2     3s        -0.0140   -0.0784   -0.0010   -0.0109    0.0045   -0.0054    0.0054   -0.0001    0.0102    0.0014
    94 N2     4s        -0.0037   -0.0254    0.0003   -0.0011   -0.0012    0.0000    0.0025   -0.0002   -0.0002   -0.0002
    95 N2     2px        0.0225   -0.0366    0.0054   -0.1441   -0.0350    0.1241   -0.3658    0.0070   -0.0819    0.2709
    96 N2     3px        0.0145   -0.0200    0.0097    0.0337    0.0499   -0.0604    0.1158   -0.0058   -0.0069   -0.0615
    97 N2     4px        0.0056    0.0006    0.0024   -0.0058    0.0071   -0.0044   -0.0007   -0.0008   -0.0024   -0.0062
    98 N2     2py       -0.0028   -0.0036    0.0022   -0.1169   -0.0432    0.1094    0.2257    0.1416    0.2499    0.2159
    99 N2     3py       -0.0112   -0.0461   -0.0054    0.0422    0.0452   -0.0550   -0.0310   -0.0385   -0.0550   -0.0290
   100 N2     4py        0.0003   -0.0118   -0.0001   -0.0006    0.0046   -0.0048    0.0084   -0.0026   -0.0018   -0.0046
   101 N2     2pz       -0.0073    0.0049    0.0008    0.0088    0.0062   -0.0089   -0.0064    0.0093    0.0124    0.0035
   102 N2     3pz       -0.0079    0.0106    0.0011   -0.0032   -0.0039   -0.0033   -0.0095    0.0048   -0.0017   -0.0005
   103 N2     4pz       -0.0018    0.0008    0.0000    0.0001    0.0003   -0.0005   -0.0018    0.0016   -0.0007   -0.0005
   104 N2     3d2-       0.0010    0.0068    0.0003   -0.0023   -0.0082    0.0092    0.0066    0.0042    0.0067    0.0041
   105 N2     3d1-      -0.0002   -0.0008   -0.0001    0.0009    0.0006   -0.0003   -0.0001    0.0005   -0.0003   -0.0001
   106 N2     3d0       -0.0022   -0.0170    0.0009    0.0014   -0.0042    0.0013    0.0004   -0.0004   -0.0019    0.0001
   107 N2     3d1+      -0.0005   -0.0004    0.0003    0.0001   -0.0001   -0.0002    0.0004    0.0003    0.0006    0.0001
   108 N2     3d2+       0.0010    0.0056    0.0004    0.0101    0.0055   -0.0114    0.0184   -0.0051   -0.0043   -0.0139
   109 N5     1s        -0.0200    0.0010   -0.0425   -0.0015    0.0012    0.0027    0.0019   -0.0036    0.0035    0.0019
   110 N5     2s         0.1287   -0.0320    0.5759    0.0441   -0.0156   -0.2229   -0.0546    0.1672    0.0999    0.0983
   111 N5     3s        -0.0508    0.0016   -0.0799   -0.0031   -0.0037   -0.0148    0.0000   -0.0005    0.0158    0.0105
   112 N5     4s        -0.0120    0.0015   -0.0265   -0.0018   -0.0021   -0.0017   -0.0002   -0.0022    0.0018    0.0010
   113 N5     2px        0.0167   -0.0198   -0.0099    0.0529    0.1373    0.1348    0.0077   -0.0168    0.0962    0.1193
   114 N5     3px        0.0143   -0.0238   -0.0269   -0.0112   -0.0464   -0.0831    0.0073    0.0079   -0.0183   -0.0256
   115 N5     4px       -0.0075   -0.0041   -0.0065    0.0019    0.0020   -0.0043    0.0022   -0.0044    0.0014   -0.0009
   116 N5     2py       -0.0372    0.0096   -0.0093    0.0116    0.0480    0.0335   -0.0565    0.3717   -0.2209   -0.0851
   117 N5     3py        0.0103   -0.0013    0.0282    0.0039    0.0060    0.0049    0.0027   -0.0964    0.0357    0.0162
   118 N5     4py       -0.0014   -0.0016    0.0101    0.0043    0.0037   -0.0004   -0.0003    0.0071   -0.0019   -0.0020
   119 N5     2pz        0.0090    0.0120    0.0152   -0.0326   -0.1035   -0.0880    0.0091   -0.1453    0.0267   -0.0289
   120 N5     3pz       -0.0137    0.0174    0.0034    0.0181    0.0219    0.0422   -0.0095    0.0336   -0.0027    0.0083
   121 N5     4pz        0.0043    0.0032   -0.0010    0.0011   -0.0027    0.0016   -0.0022   -0.0006    0.0000    0.0012
   122 N5     3d2-       0.0014   -0.0000    0.0032   -0.0020   -0.0048   -0.0012    0.0024   -0.0167    0.0044    0.0006
   123 N5     3d1-      -0.0044    0.0011   -0.0105    0.0009    0.0050    0.0071   -0.0013    0.0097   -0.0035    0.0001
   124 N5     3d0       -0.0014    0.0009   -0.0057   -0.0013   -0.0017    0.0020    0.0010   -0.0059    0.0003   -0.0003
   125 N5     3d1+      -0.0007   -0.0000   -0.0148   -0.0008   -0.0018   -0.0029   -0.0004    0.0024   -0.0013   -0.0016
   126 N5     3d2+      -0.0041    0.0016    0.0015    0.0011    0.0063    0.0115   -0.0002    0.0031   -0.0015    0.0019
   127 O7     1s         0.0012    0.0028   -0.0006   -0.0043    0.0023    0.0005   -0.0129   -0.0002    0.0140   -0.0219
   128 O7     2s        -0.0723   -0.3082    0.0033   -0.2090    0.0588    0.0301   -0.3390   -0.0103    0.2376   -0.3592
   129 O7     3s        -0.0004   -0.0089   -0.0018   -0.0199    0.0103    0.0001   -0.0413   -0.0011    0.0390   -0.0623
   130 O7     4s         0.0005   -0.0000   -0.0005   -0.0033    0.0026   -0.0007   -0.0080   -0.0004    0.0076   -0.0131
   131 O7     2px       -0.0082   -0.0029   -0.0025   -0.0009    0.0286   -0.0319    0.1649    0.0093   -0.0986    0.2288
   132 O7     3px       -0.0016   -0.0021   -0.0029   -0.0053    0.0048    0.0029   -0.0227   -0.0018    0.0081   -0.0177
   133 O7     4px       -0.0003   -0.0004   -0.0003   -0.0002    0.0005    0.0010   -0.0020    0.0001    0.0007   -0.0008
   134 O7     2py        0.0113    0.0401   -0.0012   -0.0309    0.0249    0.0023   -0.1493    0.0046    0.2631   -0.4131
   135 O7     3py       -0.0036   -0.0021   -0.0012    0.0143    0.0005   -0.0031    0.0213   -0.0043   -0.0316    0.0447
   136 O7     4py       -0.0008   -0.0020   -0.0002   -0.0001    0.0011    0.0007    0.0023   -0.0008   -0.0038    0.0071
   137 O7     2pz       -0.0007    0.0006    0.0006    0.0015   -0.0003   -0.0003    0.0054   -0.0001   -0.0115    0.0171
   138 O7     3pz       -0.0001    0.0019    0.0015   -0.0010   -0.0005    0.0004   -0.0022    0.0003    0.0004   -0.0017
   139 O7     4pz        0.0000    0.0005    0.0005   -0.0000   -0.0001   -0.0001   -0.0006   -0.0000   -0.0000   -0.0003
   140 O7     3d2-       0.0015    0.0037   -0.0000    0.0008   -0.0022    0.0025   -0.0115   -0.0001    0.0096   -0.0183
   141 O7     3d1-       0.0001    0.0004    0.0000   -0.0000    0.0001   -0.0001   -0.0002   -0.0000    0.0007   -0.0013
   142 O7     3d0        0.0010    0.0043   -0.0002    0.0014    0.0000   -0.0002   -0.0047   -0.0003    0.0062   -0.0121
   143 O7     3d1+      -0.0000   -0.0001    0.0001    0.0001    0.0001   -0.0002    0.0004   -0.0000   -0.0004    0.0008
   144 O7     3d2+       0.0008    0.0050   -0.0002   -0.0022    0.0044   -0.0028    0.0010    0.0008    0.0109   -0.0123
   145 O8     1s        -0.0234    0.0024    0.0037    0.0011    0.0031   -0.0000   -0.0003    0.0125    0.0019   -0.0020
   146 O8     2s         0.6662   -0.1459   -0.3295    0.1123    0.1523    0.0026    0.0203    0.3508    0.0354   -0.0573
   147 O8     3s        -0.0287   -0.0041   -0.0111    0.0074    0.0138   -0.0008    0.0023    0.0467    0.0062   -0.0068
   148 O8     4s        -0.0129   -0.0005   -0.0004    0.0005    0.0015   -0.0005    0.0014    0.0097    0.0013   -0.0014
   149 O8     2px       -0.0549    0.0002    0.0352    0.0185    0.0104   -0.0285    0.0213    0.0489    0.0924    0.0011
   150 O8     3px        0.0189   -0.0016   -0.0044    0.0015   -0.0115   -0.0068   -0.0024   -0.0103   -0.0084    0.0024
   151 O8     4px        0.0006   -0.0004   -0.0026    0.0015   -0.0003   -0.0002   -0.0003   -0.0006   -0.0023   -0.0001
   152 O8     2py        0.1297   -0.0263   -0.0294    0.0013   -0.0187   -0.0185    0.0197   -0.1841    0.0290    0.0546
   153 O8     3py       -0.0385    0.0027    0.0019    0.0042    0.0060    0.0026    0.0000    0.0274    0.0007   -0.0047
   154 O8     4py       -0.0009   -0.0004    0.0013   -0.0001   -0.0014    0.0016    0.0021    0.0038   -0.0001   -0.0011
   155 O8     2pz       -0.0091    0.0103   -0.0068   -0.0163   -0.0092    0.0273   -0.0168    0.0315   -0.0668   -0.0195
   156 O8     3pz        0.0055    0.0030    0.0041   -0.0030    0.0021    0.0069    0.0019   -0.0028    0.0057    0.0008
   157 O8     4pz        0.0009    0.0014    0.0015   -0.0010    0.0002    0.0007    0.0001   -0.0001    0.0018    0.0004
[...]
AIVX     1  Mu1.0001  In1.025 Se1.048               0.22931451      0.00010244      0.00000569      0.00000000
AIVX     1  Mu1.0001  In1.026 Se1.048               0.28403049      0.00031888     -0.00051736     -0.00000016
AIVX     1  Mu1.0001  In1.027 Se1.048               0.25874328      0.00029684      0.00007417      0.00000002
AIVX     1  Mu1.0001  In1.028 Se1.048               0.03669936      0.00018835     -0.00024034     -0.00000005
AIVX     1  Mu1.0001  In1.029 Se1.048               0.07968587     -0.00006941     -0.00004788      0.00000000
AIVX     1  Mu1.0001  In1.018 Se1.049               0.27370368      0.00015125     -0.00016659     -0.00000003
AIVX     1  Mu1.0001  In1.021 Se1.049               0.20781754     -0.00010066      0.00019501     -0.00000002
AIVX     1  Mu1.0001  In1.022 Se1.049               0.11800853      0.00014403      0.00021065      0.00000003
AIVX     1  Mu1.0001  In1.024 Se1.049               0.13893530      0.00024537     -0.00051893     -0.00000013
AIVX     1  Mu1.0001  In1.025 Se1.049               0.23179630      0.00013385     -0.00011158     -0.00000001
AIVX     1  Mu1.0001  In1.026 Se1.049               0.28651227     -0.00028099      0.00049225     -0.00000014
AIVX     1  Mu1.0001  In1.027 Se1.049               0.26122507      0.00040128     -0.00024059     -0.00000010
AIVX     1  Mu1.0001  In1.028 Se1.049               0.03918115      0.00006860      0.00016758      0.00000001
AIVX     1  Mu1.0001  In1.029 Se1.049               0.08216766      0.00000337     -0.00008724     -0.00000000
AIVX     1  Mu1.0001  In1.021 Se1.050               0.24294646     -0.00053459      0.00088039     -0.00000047
AIVX     1  Mu1.0001  In1.022 Se1.050               0.15313745      0.00014732     -0.00001358     -0.00000000
AIVX     1  Mu1.0001  In1.024 Se1.050               0.17406422     -0.00002251      0.00008798     -0.00000000
AIVX     1  Mu1.0001  In1.025 Se1.050               0.26692522     -0.00044032      0.00087461     -0.00000039
AIVX     1  Mu1.0001  In1.027 Se1.050               0.29635400      0.00089808     -0.00117920     -0.00000106
AIVX     1  Mu1.0001  In1.028 Se1.050               0.07431007      0.00016456     -0.00046184     -0.00000008
AIVX     1  Mu1.0001  In1.029 Se1.050               0.11729658      0.00012566     -0.00035608     -0.00000004
AIVX     1  Mu1.0001  In1.021 Se1.051               0.26153981     -0.00065910      0.00099361     -0.00000065
AIVX     1  Mu1.0001  In1.022 Se1.051               0.17173080     -0.00014795      0.00014671     -0.00000002
AIVX     1  Mu1.0001  In1.024 Se1.051               0.19265757      0.00006989     -0.00017602     -0.00000001
AIVX     1  Mu1.0001  In1.025 Se1.051               0.28551857      0.00081702     -0.00159798     -0.00000131
AIVX     1  Mu1.0001  In1.028 Se1.051               0.09290342      0.00027328     -0.00049039     -0.00000013
AIVX     1  Mu1.0001  In1.029 Se1.051               0.13588993      0.00033509     -0.00049893     -0.00000017
AIVX     1  Mu1.0001  In1.021 Se1.052               0.26436605      0.00019212     -0.00018976     -0.00000004
AIVX     1  Mu1.0001  In1.022 Se1.052               0.17455703     -0.00003592     -0.00005408      0.00000000
AIVX     1  Mu1.0001  In1.024 Se1.052               0.19548381     -0.00003205      0.00010903     -0.00000000
AIVX     1  Mu1.0001  In1.025 Se1.052               0.28834481     -0.00015269      0.00038026     -0.00000006
AIVX     1  Mu1.0001  In1.028 Se1.052               0.09572966      0.00009013     -0.00037318     -0.00000003
AIVX     1  Mu1.0001  In1.029 Se1.052               0.13871617     -0.00030694      0.00041125     -0.00000013
AIVX     1  Mu1.0001  In1.022 Se1.053               0.22309870      0.00032306     -0.00052098     -0.00000017
AIVX     1  Mu1.0001  In1.024 Se1.053               0.24402548     -0.00011645      0.00003335     -0.00000000
AIVX     1  Mu1.0001  In1.028 Se1.053               0.14427133      0.00018469     -0.00032001     -0.00000006
AIVX     1  Mu1.0001  In1.029 Se1.053               0.18725784      0.00007076      0.00004505      0.00000000
AIVX     1  Mu1.0001  In1.022 Se1.054               0.24232114     -0.00014043      0.00017043     -0.00000002
AIVX     1  Mu1.0001  In1.024 Se1.054               0.26324791      0.00001115     -0.00007344     -0.00000000
AIVX     1  Mu1.0001  In1.028 Se1.054               0.16349376      0.00007469     -0.00025419     -0.00000002
AIVX     1  Mu1.0001  In1.029 Se1.054               0.20648027     -0.00019650      0.00016670     -0.00000003
AIVX     1  Mu1.0001  In1.022 Se1.055               0.25053564      0.00044364     -0.00057082     -0.00000025
AIVX     1  Mu1.0001  In1.024 Se1.055               0.27146242      0.00008931     -0.00002083     -0.00000000
AIVX     1  Mu1.0001  In1.028 Se1.055               0.17170826      0.00006478     -0.00006937     -0.00000000
AIVX     1  Mu1.0001  In1.029 Se1.055               0.21469478     -0.00024441      0.00051374     -0.00000013
AIVX     1  Mu1.0001  In1.022 Se1.056               0.28844862     -0.00063706      0.00104418     -0.00000067
AIVX     1  Mu1.0001  In1.028 Se1.056               0.20962124      0.00021280     -0.00025568     -0.00000005
AIVX     1  Mu1.0001  In1.029 Se1.056               0.25260776      0.00040624     -0.00070788     -0.00000029
AIVX     1  Mu1.0001  In1.022 Se1.057               0.26784318      0.00033569     -0.00038368     -0.00000013
AIVX     1  Mu1.0001  In1.024 Se1.057               0.28876995     -0.00000020      0.00003280     -0.00000000
AIVX     1  Mu1.0001  In1.028 Se1.057               0.18901580     -0.00014446      0.00046300     -0.00000007
AIVX     1  Mu1.0001  In1.029 Se1.057               0.23200231     -0.00021425      0.00040724     -0.00000009
AIVX     1  Mu1.0001  In1.028 Se1.058               0.23345089     -0.00010718      0.00017706     -0.00000002
AIVX     1  Mu1.0001  In1.029 Se1.058               0.27643740     -0.00018744      0.00019434     -0.00000004
AIVX     1  Mu1.0001  In1.021 Se1.059               0.29325128      0.00004865     -0.00008154     -0.00000000
AIVX     1  Mu1.0001  In1.022 Se1.059               0.20344227     -0.00025615      0.00040087     -0.00000010
AIVX     1  Mu1.0001  In1.024 Se1.059               0.22436905     -0.00001949      0.00005173     -0.00000000
AIVX     1  Mu1.0001  In1.028 Se1.059               0.12461489      0.00006201      0.00008552      0.00000001
AIVX     1  Mu1.0001  In1.029 Se1.059               0.16760141      0.00008001     -0.00008125     -0.00000001
AIVX     1  Mu1.0001  In1.028 Se1.060               0.27820619      0.00021796     -0.00035333     -0.00000008
AIVX     1  Mu1.0001  In1.022 Se1.061               0.29461883     -0.00000619      0.00000811     -0.00000000
AIVX     1  Mu1.0001  In1.028 Se1.061               0.21579145      0.00020185     -0.00001884     -0.00000000
AIVX     1  Mu1.0001  In1.029 Se1.061               0.25877796     -0.00010824      0.00018069     -0.00000002
AIVX     1  Mu1.0001  In1.028 Se1.062               0.24717630      0.00027617     -0.00071270     -0.00000020
AIVX     1  Mu1.0001  In1.029 Se1.062               0.29016281      0.00044285     -0.00066560     -0.00000029
AIVX     1  Mu1.0001  In1.022 Se1.065               0.26888833      0.00011803      0.00008794      0.00000001
AIVX     1  Mu1.0001  In1.024 Se1.065               0.28981510     -0.00003747     -0.00001610      0.00000000
AIVX     1  Mu1.0001  In1.028 Se1.065               0.19006095      0.00009773      0.00018730      0.00000002
AIVX     1  Mu1.0001  In1.029 Se1.065               0.23304747     -0.00022338      0.00028008     -0.00000006
AIVX     1  Mu1.0001  In1.028 Se1.068               0.28181310      0.00017264     -0.00043345     -0.00000007
AIVX     1  Mu1.0001  In1.028 Se1.071               0.29603386     -0.00000110      0.00014538     -0.00000000
--
 
   (Skipping property calculation,
    use PROP keyword to activate)
--
 
  Total CASPT2 energies:
::    CASPT2 Root  1     Total energy:   -455.38220340
::    CASPT2 Root  2     Total energy:   -455.16829762
::    CASPT2 Root  3     Total energy:   -455.16741662
::    CASPT2 Root  4     Total energy:   -455.12474863
::    CASPT2 Root  5     Total energy:   -455.12836166
::    CASPT2 Root  6     Total energy:   -455.12641932
::    CASPT2 Root  7     Total energy:   -455.07599422
 
++ Multi-State CASPT2 section:
********************************************************************************
  MULTI-STATE CASPT2 SECTION
--------------------------------------------------------------------------------
 
  Output diagonal energies have been shifted. Add   -455.000000000000     
 
  Effective Hamiltonian matrix (Symmetric):
 
                1               2               3               4               5
   1        -0.38220340
   2         0.00031372     -0.16829762
   3         0.00015993      0.00048091     -0.16741662
   4         0.00394182      0.00036386      0.00138180     -0.12474863
   5         0.01742442     -0.00090347     -0.00102793     -0.01011820     -0.12836166
   6         0.01528961     -0.00058679      0.00117162      0.00577214     -0.00940846
   7        -0.00548657     -0.00032876      0.00155164     -0.00052029      0.00143495
 
                6               7
   6        -0.12641932
   7         0.00673283     -0.07599422
 
       Total MS-CASPT2 energies:
::    MS-CASPT2 Root  1     Total energy:   -455.38456130
::    MS-CASPT2 Root  2     Total energy:   -455.16854796
::    MS-CASPT2 Root  3     Total energy:   -455.16729839
::    MS-CASPT2 Root  4     Total energy:   -455.13673501
::    MS-CASPT2 Root  5     Total energy:   -455.13157241
::    MS-CASPT2 Root  6     Total energy:   -455.10968833
::    MS-CASPT2 Root  7     Total energy:   -455.07503810
 
       Eigenvectors:
            0.99526262      0.00383828      0.00241017      0.08800454      0.03945921
           -0.00184777      0.90855485      0.41665081     -0.02281257     -0.01781295
           -0.00076462     -0.41666727      0.90821192      0.00593017     -0.00466258
           -0.01643872      0.00561375     -0.02647918      0.46691306     -0.64300102
           -0.07072057      0.01484199      0.02389898      0.79851345      0.01804204
           -0.06166412      0.02403772     -0.00946843      0.36577246      0.75855512
            0.01934508      0.00849294     -0.01361757     -0.04773457     -0.09445759
 
            0.00120726     -0.01133573
            0.00844062     -0.00422014
            0.03386890      0.01830039
            0.60623581      0.00413945
           -0.59687314     -0.00060135
            0.51966618      0.12760007
           -0.07034103      0.99157426
 
--
 
  THE ORIGINAL CI ARRAYS ARE NOW MIXED AS LINEAR
  COMBINATIONS, GIVEN BY THE EIGENVECTORS.
  A NEW JOBIPH FILE NAMED 'JOBMIX' IS PREPARED.
********************************************************************************
 
++ Mixed CI coefficients:
  The CI coefficients for the MIXED state nr.   1
--------------------------------------------------------------------------------
 CI COEFFICIENTS LARGER THAN  0.50D-01
  Occupation of active orbitals, and spin coupling
  of open shells. (u,d: Spin up or down).
  SGUGA info is (Midvert:IsyUp:UpperWalk/LowerWalk)
        Conf  SGUGA info        Occupation    Coefficient         Weight
           1  ( 1:1:   1/   1)   22222200        0.970455       0.941783
           6  ( 1:1:   6/   1)   22220220       -0.086569       0.007494
           7  ( 1:1:   7/   1)   22222u0d       -0.053477       0.002860
          15  ( 1:1:  15/   1)   22222002       -0.096618       0.009335
          64  ( 2:1:   4/   3)   2u22220d        0.079834       0.006373
          81  ( 2:1:   1/   4)   u22222d0       -0.107033       0.011456
         175  ( 3:1:   5/   8)   20222202       -0.090088       0.008116
         191  ( 3:1:   1/  10)   02222220       -0.077366       0.005986
 
  The CI coefficients for the MIXED state nr.   2
--------------------------------------------------------------------------------
 CI COEFFICIENTS LARGER THAN  0.50D-01
  Occupation of active orbitals, and spin coupling
  of open shells. (u,d: Spin up or down).
  SGUGA info is (Midvert:IsyUp:UpperWalk/LowerWalk)
        Conf  SGUGA info        Occupation    Coefficient         Weight
           2  ( 1:1:   2/   1)   22222ud0       -0.068340       0.004670
          21  ( 2:1:   1/   1)   222u22d0       -0.118144       0.013958
          24  ( 2:1:   4/   1)   222u220d        0.860596       0.740625
          32  ( 2:1:  12/   1)   222u022d       -0.072959       0.005323
          33  ( 2:1:  13/   1)   222u2d02        0.090180       0.008132
          41  ( 2:1:   1/   2)   22u222d0        0.400040       0.160032
          43  ( 2:1:   3/   2)   22u2d220       -0.072023       0.005187
          47  ( 2:1:   7/   2)   22u22udd        0.050805       0.002581
         125  ( 3:1:   5/   3)   2u2d2202       -0.165998       0.027555
         161  ( 3:1:   1/   7)   u2d22220        0.055251       0.003053
         213  ( 4:1:   1/   3)   u22u22dd        0.074739       0.005586
         269  ( 5:1:   1/   9)   022u222d        0.071801       0.005155
 
  The CI coefficients for the MIXED state nr.   3
--------------------------------------------------------------------------------
 CI COEFFICIENTS LARGER THAN  0.50D-01
  Occupation of active orbitals, and spin coupling
  of open shells. (u,d: Spin up or down).
  SGUGA info is (Midvert:IsyUp:UpperWalk/LowerWalk)
        Conf  SGUGA info        Occupation    Coefficient         Weight
           2  ( 1:1:   2/   1)   22222ud0        0.179109       0.032080
           3  ( 1:1:   3/   1)   2222u2d0       -0.067789       0.004595
          21  ( 2:1:   1/   1)   222u22d0        0.054833       0.003007
          24  ( 2:1:   4/   1)   222u220d        0.420854       0.177118
          41  ( 2:1:   1/   2)   22u222d0       -0.831812       0.691912
          43  ( 2:1:   3/   2)   22u2d220        0.147490       0.021753
          45  ( 2:1:   5/   2)   22u22dud        0.059427       0.003532
          47  ( 2:1:   7/   2)   22u22udd       -0.107393       0.011533
          55  ( 2:1:  15/   2)   22u220d2       -0.070654       0.004992
         125  ( 3:1:   5/   3)   2u2d2202       -0.080956       0.006554
         161  ( 3:1:   1/   7)   u2d22220       -0.113762       0.012942
         219  ( 4:1:   1/   4)   2uu222dd       -0.060076       0.003609
         222  ( 4:1:   4/   4)   2uu22dd2       -0.050182       0.002518
         294  ( 5:1:   2/  15)   20u222d2        0.086926       0.007556
 
  The CI coefficients for the MIXED state nr.   4
--------------------------------------------------------------------------------
 CI COEFFICIENTS LARGER THAN  0.50D-01
  Occupation of active orbitals, and spin coupling
  of open shells. (u,d: Spin up or down).
  SGUGA info is (Midvert:IsyUp:UpperWalk/LowerWalk)
        Conf  SGUGA info        Occupation    Coefficient         Weight
           3  ( 1:1:   3/   1)   2222u2d0        0.682392       0.465659
           7  ( 1:1:   7/   1)   22222u0d       -0.632747       0.400369
          12  ( 1:1:  12/   1)   2222uudd        0.072594       0.005270
          14  ( 1:1:  14/   1)   22220u2d       -0.052796       0.002787
          15  ( 1:1:  15/   1)   22222002        0.118966       0.014153
          18  ( 1:1:  18/   1)   2222u0d2        0.057864       0.003348
          41  ( 2:1:   1/   2)   22u222d0       -0.065309       0.004265
          68  ( 2:1:   8/   3)   2u22u2dd        0.053507       0.002863
          73  ( 2:1:  13/   3)   2u222d02        0.167197       0.027955
          81  ( 2:1:   1/   4)   u22222d0        0.084277       0.007103
          83  ( 2:1:   3/   4)   u222d220        0.164012       0.026900
          87  ( 2:1:   7/   4)   u2222udd       -0.062467       0.003902
          90  ( 2:1:  10/   4)   u222du2d        0.051682       0.002671
         175  ( 3:1:   5/   8)   20222202       -0.078004       0.006085
         177  ( 3:1:   7/   8)   2022u2d2       -0.071321       0.005087
         193  ( 3:1:   3/  10)   02222u2d       -0.057502       0.003307
 
  The CI coefficients for the MIXED state nr.   5
--------------------------------------------------------------------------------
 CI COEFFICIENTS LARGER THAN  0.50D-01
  Occupation of active orbitals, and spin coupling
  of open shells. (u,d: Spin up or down).
  SGUGA info is (Midvert:IsyUp:UpperWalk/LowerWalk)
        Conf  SGUGA info        Occupation    Coefficient         Weight
           2  ( 1:1:   2/   1)   22222ud0        0.271381       0.073648
           3  ( 1:1:   3/   1)   2222u2d0       -0.610224       0.372374
           7  ( 1:1:   7/   1)   22222u0d       -0.648516       0.420573
          12  ( 1:1:  12/   1)   2222uudd       -0.062607       0.003920
          14  ( 1:1:  14/   1)   22220u2d       -0.061056       0.003728
          15  ( 1:1:  15/   1)   22222002        0.129066       0.016658
          18  ( 1:1:  18/   1)   2222u0d2       -0.058961       0.003476
          41  ( 2:1:   1/   2)   22u222d0        0.101141       0.010230
          73  ( 2:1:  13/   3)   2u222d02        0.171136       0.029287
          83  ( 2:1:   3/   4)   u222d220       -0.160880       0.025882
          87  ( 2:1:   7/   4)   u2222udd       -0.062528       0.003910
         175  ( 3:1:   5/   8)   20222202       -0.079138       0.006263
         177  ( 3:1:   7/   8)   2022u2d2        0.058863       0.003465
 
  The CI coefficients for the MIXED state nr.   6
--------------------------------------------------------------------------------
 CI COEFFICIENTS LARGER THAN  0.50D-01
  Occupation of active orbitals, and spin coupling
  of open shells. (u,d: Spin up or down).
  SGUGA info is (Midvert:IsyUp:UpperWalk/LowerWalk)
        Conf  SGUGA info        Occupation    Coefficient         Weight
           2  ( 1:1:   2/   1)   22222ud0       -0.888706       0.789798
           3  ( 1:1:   3/   1)   2222u2d0       -0.215798       0.046569
           7  ( 1:1:   7/   1)   22222u0d       -0.184423       0.034012
          21  ( 2:1:   1/   1)   222u22d0        0.102748       0.010557
          41  ( 2:1:   1/   2)   22u222d0       -0.150439       0.022632
          65  ( 2:1:   5/   3)   2u222dud        0.144682       0.020933
          67  ( 2:1:   7/   3)   2u222udd       -0.199784       0.039914
         176  ( 3:1:   6/   8)   20222ud2        0.129722       0.016828
 
  The CI coefficients for the MIXED state nr.   7
--------------------------------------------------------------------------------
 CI COEFFICIENTS LARGER THAN  0.50D-01
  Occupation of active orbitals, and spin coupling
  of open shells. (u,d: Spin up or down).
  SGUGA info is (Midvert:IsyUp:UpperWalk/LowerWalk)
        Conf  SGUGA info        Occupation    Coefficient         Weight
           2  ( 1:1:   2/   1)   22222ud0       -0.087422       0.007643
          21  ( 2:1:   1/   1)   222u22d0       -0.889082       0.790466
          24  ( 2:1:   4/   1)   222u220d       -0.077458       0.006000
          25  ( 2:1:   5/   1)   222u2dud       -0.223337       0.049880
          27  ( 2:1:   7/   1)   222u2udd        0.317123       0.100567
          41  ( 2:1:   1/   2)   22u222d0       -0.113396       0.012859
         210  ( 4:1:   4/   2)   2u2u2dd2        0.078208       0.006116
         262  ( 5:1:   2/   7)   202u22d2        0.084138       0.007079
 
--
 
--- Stop Module: caspt2 at Tue Jun 10 17:35:37 2025 /rc=_RC_ALL_IS_WELL_ ---
*** files: xmldump
    saved to directory /home/pcaah4/diamide_project
--- Module caspt2 spent 6 minutes 59 seconds ---

.##################.
.# Happy landing! #.
.##################.

    Timing: Wall=683.82 User=596.26 System=78.09
******************************************************
*** WorkDir at /srv/COMMUNAL_SCRATCH/12386 cleaned ***
******************************************************
