   This run of MOLCAS is using the pymolcas driver

                             OPE
                             OPE          NMOL  CASOP  ENMOLC A   SO
                 OPE        NMOLC        AS  OP EN  MO LC     AS  OP
                OPENM       OL CA        SO  PE NM  OL CA     SOP EN
                OP EN      MO   LC       AS  OP ENMOL  CASO   PENMOL
                OP  EN     MO   LC       AS  OP EN     MO     LC ASO
               OP   E  NMOL  C  AS       OP  EN MO     LC     AS  OP
               OP  E   NMO   LC AS        OPEN  MO     LCASOP EN   M
               O  PEN   MO  LCA  SO
            OPE   NMO   L   CAS    OP
        OPENMOL  CASOP     ENMOL   CASOPE
     OPENMOLCA   SOPENMOLCASOPEN   MOLCASOPE
    OPENMOLCAS   OP           EN   MOL    CAS
    OPENMOLCAS       OP  ENM        O     LCA
    OPENMOLCAS    OPEN  MOLCASO     P  E  NMO
    OPENMOLCAS     OP               E  N  MOL
    OPENMOLCA   SO           PENM   O  L  CAS    OPEN    MO    LCAS
    OPENMOLCA   SOP           ENM   O  L  CAS   OP  EN  MOLC  AS   O
    OPENMOLCA   SOPE           NM      O  LCA   S      OP  EN MO
    OPENMOLC                AS         O  PEN   M      OL  CA  SOPE
    OPENMO        LCASOPE  NMOL        C  ASO   P      ENMOLC     AS
    OPE     NMO      LCA  SO     P     E   NM   OL  CA SO  PE N   MO
          OPENMOLCA            SOPE   NMO        LCAS  O    P  ENMO
     OPENMOLCASOPENMOLCASOPENMOLCASOPENMOLCA
        OPENMOLCASOPENMOLCASOPENMOLCASOPE
            OPENMOLCASOPENMOLCASOPENM
               OPENMOLCASOPENMOLCA        version: v23.06
                   OPENMOLCASO
                       OPE                tag:

 OpenMolcas is free software; you can redistribute it and/or modify it
 under the terms of the GNU Lesser General Public License version 2.1.
 OpenMolcas is distributed in the hope that it will be useful, but it
 is provided "as is" and without any express or implied warranties.
 For more details see the full text of the license in the file
 LICENSE or in <http://www.gnu.org/licenses/>.

                 Copyright (C) The OpenMolcas Authors
           For the author list and the recommended citation,
                   consult the file CONTRIBUTORS.md

           *************************************************
           * pymolcas version py2.24                       *
           *   build 4567b286dd94b1984b333a4ddf893180      *
           *   (after the EMIL interpreter by V. Veryazov) *
           *************************************************

configuration info
------------------
Host name: loginchem01.nottingham.ac.uk (Linux)
C Compiler ID: Intel
C flags: -std=gnu99 -gcc-sys -qopenmp
Fortran Compiler ID: Intel
Fortran flags: -fpp -i8 -heap-arrays -qopenmp
Definitions: _MOLCAS_;_I8_;_LINUX_
Parallel: OFF (GA=OFF)


   ---------------------------------------------------------------------------------------------------
  |
  |              Project: orca_geometry_optimisation_15_345_BP86_def2-SVP_def2J_scf_cas1_ras12i11_cas8
  |       Submitted from: /home/pcaah4/diamide_project
  |         Scratch area: /srv/COMMUNAL_SCRATCH/12382
  |      Save outputs to: /home/pcaah4/diamide_project
  |               Molcas: /software/chemistry/openmolcas/openmolcas-23.06-openmp
  |
  | Scratch area is empty
  |
  |       MOLCAS_DRIVER = /software/chemistry/openmolcas/openmolcas-23.06-openmp/sbin/pymolcas
  | MOLCAS_KEEP_WORKDIR = NO
  |       MOLCAS_NPROCS = 1
  |       MOLCAS_SOURCE = /software/chemistry/openmolcas/openmolcas-23.06-openmp
  |    MOLCAS_STRUCTURE = 0
  |
   ---------------------------------------------------------------------------------------------------

++ ---------   Input file   ---------

&SEWARD
TITLE
orca_geometry_optimisation_15_345_BP86_def2-SVP_def2J_scf_cas1_ras12i11
MULTIPOLES
2
SDIPOLE
ANGMOM
0 0 0
BASIS SET
C.ANO-S...4S3P1D.
C1           -0.220311   -0.599135   -0.082137 /Angstrom
C3            1.697170    1.121191    0.395814 /Angstrom
C4            1.001533    2.493496    0.620974 /Angstrom
C6           -1.043930    3.827990    0.726444 /Angstrom
C19          -0.371458   -2.100429   -0.320750 /Angstrom
END OF BASIS
BASIS SET
N.ANO-S...4S3P1D.
N2            1.050507   -0.191136    0.208507 /Angstrom
N5           -0.323642    2.621941    0.359725 /Angstrom
END OF BASIS
BASIS SET
O.ANO-S...4S3P1D.
O7           -1.219113    0.132364   -0.165699 /Angstrom
O8            1.752205    3.399493    0.994224 /Angstrom
END OF BASIS
BASIS SET
H.ANO-S...2S1P.
H9           -0.780742   -2.248114   -1.339548 /Angstrom
H10          -1.124113   -2.495773    0.390391 /Angstrom
H11           0.565731   -2.684744   -0.225723 /Angstrom
H12           1.730297   -0.954173    0.225574 /Angstrom
H13           2.369871    1.040416    1.273832 /Angstrom
H14           2.363615    1.309914   -0.476746 /Angstrom
H15          -0.845029    1.735921    0.173748 /Angstrom
H16          -0.302104    4.617248    0.956998 /Angstrom
H17          -1.701522    4.171370   -0.098212 /Angstrom
H18          -1.672458    3.672894    1.631573 /Angstrom
END OF BASIS
END OF INPUT

&RASSCF
TITLE
orca_geometry_optimisation_15_345_BP86_def2-SVP_def2J_scf_cas1_ras12i11
LUMORB
SPIN
1
SYMMETRY
1
NACTEL
12  0  0
INACTIVE
29
DELETED  ! delete Rydberg orbitals from an initial CAS(12,11) if done
3
FROZEN
0
RAS2
8
ITERATIONS
64 25
CIROOT
7 7
1 2 3 4 5 6 7
1 1 1 1 1 1 1
LEVSHFT
0.3
CIMX
20
FILEorb = /home/pcaah4/diamide_project/cas/ras12i11/ras_orb/orca_geometry_optimisation_15_345_BP86_def2-SVP_def2J_scf_cas1_ras12i11.RasOrb
ALTEr
0
END OF INPUT

&RASSI
NROF JOBIPH
    1 7
    1 2 3 5 4 6 7
TOFILE
TRDI
TDMN
1.0D-6
END OF INPUT

&CASPT2
TITLE
orca_geometry_optimisation_15_345_BP86_def2-SVP_def2J_scf_cas1_ras12i11
MULTISTATE
7 1 2 3 4 5 6 7
SHIFT
0.35
MAXITER
50
END OF INPUT

-- ----------------------------------

--- Start Module: seward at Tue Jun 10 17:12:31 2025 ---
 
()()()()()()()()()()()()()()()()()()()()()()()()()()()()()()()()()()()()()()()()()()()()()()()()()()

                                              &SEWARD

                                   only a single process is used
                       available to each process: 2.0 GB of memory, 1 thread
                                            pid: 3120644
()()()()()()()()()()()()()()()()()()()()()()()()()()()()()()()()()()()()()()()()()()()()()()()()()()
 
               SEWARD will generate:
                  Multipole Moment integrals up to order  2
                  Kinetic Energy integrals
                  Nuclear Attraction integrals (point charge)
                  One-Electron Hamiltonian integrals
                  Velocity integrals
                  Orbital angular momentum around ( 0.0000  0.0000  0.0000 )
                  Velocity quadrupole around ( 0.4659  2.2617  0.5786 )
                  Two-Electron Repulsion integrals
 
 Title:
            orca_geometry_optimisation_15_345_BP86_def2-SVP_def2J_scf_cas1_ras12i11     
 
 
                   Integrals are discarded if absolute value <: 0.10E-13
                   Integral cutoff threshold is set to       <: 0.10E-15
 
++    Symmetry information:
      ---------------------
 
                    Character Table for C1 
 
                             E  
                    a        1  x, y, xy, Rz, z, xz, Ry, yz, Rx, I
--
 
 
++    Basis set information:
      ----------------------
 
 
      Basis set label: C.ANO-S...4S3P1D......
 
      Electronic valence basis set:
      ------------------
      Associated Effective Charge   6.000000 au
      Associated Actual Charge      6.000000 au
      Nuclear Model: Point charge
 
      Shell  nPrim  nBasis  Cartesian Spherical Contaminant
         s      10       4        X                  
         p       6       3        X                  
         d       3       1                 X         
 
 
      Basis set label: N.ANO-S...4S3P1D......
 
      Electronic valence basis set:
      ------------------
      Associated Effective Charge   7.000000 au
      Associated Actual Charge      7.000000 au
      Nuclear Model: Point charge
 
      Shell  nPrim  nBasis  Cartesian Spherical Contaminant
         s      10       4        X                  
         p       6       3        X                  
         d       3       1                 X         
 
 
      Basis set label: O.ANO-S...4S3P1D......
 
      Electronic valence basis set:
      ------------------
      Associated Effective Charge   8.000000 au
      Associated Actual Charge      8.000000 au
      Nuclear Model: Point charge
 
      Shell  nPrim  nBasis  Cartesian Spherical Contaminant
         s      10       4        X                  
         p       6       3        X                  
         d       3       1                 X         
 
 
      Basis set label: H.ANO-S...2S1P......
 
      Electronic valence basis set:
      ------------------
      Associated Effective Charge   1.000000 au
      Associated Actual Charge      1.000000 au
      Nuclear Model: Point charge
 
      Shell  nPrim  nBasis  Cartesian Spherical Contaminant
         s       7       2        X                  
         p       3       1        X                  
--
 
 
++    Molecular structure info:
      -------------------------
 
                    ************************************************ 
                    **** Cartesian Coordinates / Bohr, Angstrom **** 
                    ************************************************ 
 
     Center  Label                x              y              z                     x              y              z
        1      C1              -0.416327      -1.132201      -0.155216             -0.220311      -0.599135      -0.082137
        2      C3               3.207186       2.118744       0.747980              1.697170       1.121191       0.395814
        3      C4               1.892623       4.712025       1.173471              1.001533       2.493496       0.620974
        4      C6              -1.972742       7.233853       1.372780             -1.043930       3.827990       0.726444
        5      C19             -0.701954      -3.969236      -0.606130             -0.371458      -2.100429      -0.320750
        6      N2               1.985171      -0.361195       0.394021              1.050507      -0.191136       0.208507
        7      N5              -0.611595       4.954750       0.679782             -0.323642       2.621941       0.359725
        8      O7              -2.303790       0.250132      -0.313126             -1.219113       0.132364      -0.165699
        9      O8               3.311188       6.424111       1.878811              1.752205       3.399493       0.994224
       10      H9              -1.475389      -4.248320      -2.531379             -0.780742      -2.248114      -1.339548
       11      H10             -2.124266      -4.716327       0.737732             -1.124113      -2.495773       0.390391
       12      H11              1.069077      -5.073431      -0.426555              0.565731      -2.684744      -0.225723
       13      H12              3.269787      -1.803126       0.426273              1.730297      -0.954173       0.225574
       14      H13              4.478407       1.966101       2.407194              2.369871       1.040416       1.273832
       15      H14              4.466585       2.475379      -0.900919              2.363615       1.309914      -0.476746
       16      H15             -1.596873       3.280415       0.328336             -0.845029       1.735921       0.173748
       17      H16             -0.570894       8.725334       1.808464             -0.302104       4.617248       0.956998
       18      H17             -3.215411       7.882747      -0.185594             -1.701522       4.171370      -0.098212
       19      H18             -3.160488       6.940764       3.083226             -1.672458       3.672894       1.631573
 
                    ************************************************* 
                    **** InterNuclear Distances / Bohr, Angstrom **** 
                    ************************************************* 
 
     Atom centers         Bohr        Angstrom
   13 H12       6 N2      1.931436        1.022072
   16 H15       7 N5      1.974256        1.044731
   17 H16       4 C6      2.092729        1.107425
   10 H9        5 C19     2.093484        1.107824
   11 H10       5 C19     2.094536        1.108381
   12 H11       5 C19     2.094766        1.108502
   14 H13       2 C3      2.095779        1.109039
   18 H17       4 C6      2.096144        1.109232
   19 H18       4 C6      2.102919        1.112817
   15 H14       2 C3      2.105265        1.114058
    9 O8        3 C4      2.332610        1.234364
    8 O7        1 C1      2.344844        1.240838
    7 N5        3 C4      2.563933        1.356775
    6 N2        1 C1      2.581338        1.365985
    7 N5        4 C6      2.743588        1.451844
    6 N2        2 C3      2.787240        1.474944
    5 C19       1 C1      2.886810        1.527634
    3 C4        2 C3      2.938405        1.554937
   16 H15       8 O7      3.177078        1.681237
   15 H14      14 H13     3.347105        1.771212
   11 H10      10 H9      3.365584        1.780991
   19 H18      17 H16     3.393480        1.795752
   19 H18      18 H17     3.402283        1.800411
   12 H11      10 H9      3.403733        1.801178
   18 H17      17 H16     3.417556        1.808493
   12 H11      11 H10     3.417678        1.808557
   13 H12       1 C1      3.791532        2.006392
   16 H15       3 C4      3.865274        2.045415
   13 H12       2 C3      3.935540        2.082598
   17 H16       7 N5      3.936100        2.082894
   14 H13       6 N2      3.960480        2.095796
   14 H13       3 C4      3.968431        2.100003
   15 H14       6 N2      3.985027        2.108785
   15 H14       3 C4      3.991361        2.112137
   18 H17       7 N5      4.012717        2.123438
   19 H18       7 N5      4.027114        2.131057
   13 H12      12 H11     4.033031        2.134188
   10 H9        1 C1      4.059305        2.148091
   11 H10       1 C1      4.069444        2.153457
   16 H15       4 C6      4.106313        2.172967
   12 H11       1 C1      4.220586        2.233438
    9 O8        7 N5      4.357168        2.305714
    8 O7        6 N2      4.389642        2.322898
   14 H13      13 H12     4.426272        2.342282
    9 O8        2 C3      4.452615        2.356222
   17 H16       9 O8      4.513439        2.388409
    8 O7        5 C19     4.522697        2.393308
   16 H15       1 C1      4.593332        2.430686
    6 N2        5 C19     4.608568        2.438749
    4 C6        3 C4      4.619566        2.444569
   15 H14      13 H12     4.636741        2.453657
   14 H13       9 O8      4.638474        2.454575
   13 H12       5 C19     4.640325        2.455554
   17 H16       3 C4      4.751714        2.514499
    7 N5        2 C3      4.757171        2.517386
   19 H18      16 H15     4.840709        2.561593
   12 H11       6 N2      4.870086        2.577139
   18 H17      16 H15     4.905634        2.595950
    2 C3        1 C1      4.951188        2.620056
   16 H15       2 C3      4.960300        2.624878
   15 H14       9 O8      4.965313        2.627530
   11 H10       8 O7      5.079591        2.688004
   10 H9        8 O7      5.083597        2.690124
    8 O7        7 N5      5.097335        2.697394
   16 H15       6 N2      5.108491        2.703297
    6 N2        3 C4      5.133582        2.716574
    9 O8        4 C6      5.369512        2.841423
--
 
 
            Nuclear Potential Energy            457.73941820 au
 
 
      Basis set specifications :
      Symmetry species         a  
      Basis functions          212
 
 
      Input file to MOLDEN was generated!
 
--- Stop Module: seward at Tue Jun 10 17:14:22 2025 /rc=_RC_ALL_IS_WELL_ ---
*** files: orca_geometry_optimisation_15_345_BP86_def2-SVP_def2J_scf_cas1_ras12i11_cas8.GssOrb
           orca_geometry_optimisation_15_345_BP86_def2-SVP_def2J_scf_cas1_ras12i11_cas8.guessorb.molden xmldump
    saved to directory /home/pcaah4/diamide_project
--- Module seward spent 1 minute 50 seconds ---

*** symbolic link created: INPORB -> orca_geometry_optimisation_15_345_BP86_def2-SVP_def2J_scf_cas1_ras12i11_cas8.GssOrb
--- Start Module: rasscf at Tue Jun 10 17:14:22 2025 ---
 
()()()()()()()()()()()()()()()()()()()()()()()()()()()()()()()()()()()()()()()()()()()()()()()()()()

                                              &RASSCF

                                   only a single process is used
                       available to each process: 2.0 GB of memory, 1 thread
                                            pid: 3120678
()()()()()()()()()()()()()()()()()()()()()()()()()()()()()()()()()()()()()()()()()()()()()()()()()()
 
 
      Header of the ONEINT file:
      --------------------------
      orca_geometry_optimisation_15_345_BP86_def2-SVP_def2J_scf_cas1_ras12i11
      Integrals generated by Gateway/Seward, Tue Jun 10 17:12:32 2025
 
 
      OrdInt status: non-squared
 
 
      Cartesian coordinates in Angstrom:
      -----------------------------------------------------
      No.  Label        X            Y            Z        
      -----------------------------------------------------
       1   C1        -0.22031100  -0.59913500  -0.08213700
       2   C3         1.69717000   1.12119100   0.39581400
       3   C4         1.00153300   2.49349600   0.62097400
       4   C6        -1.04393000   3.82799000   0.72644400
       5   C19       -0.37145800  -2.10042900  -0.32075000
       6   N2         1.05050700  -0.19113600   0.20850700
       7   N5        -0.32364200   2.62194100   0.35972500
       8   O7        -1.21911300   0.13236400  -0.16569900
       9   O8         1.75220500   3.39949300   0.99422400
      10   H9        -0.78074200  -2.24811400  -1.33954800
      11   H10       -1.12411300  -2.49577300   0.39039100
      12   H11        0.56573100  -2.68474400  -0.22572300
      13   H12        1.73029700  -0.95417300   0.22557400
      14   H13        2.36987100   1.04041600   1.27383200
      15   H14        2.36361500   1.30991400  -0.47674600
      16   H15       -0.84502900   1.73592100   0.17374800
      17   H16       -0.30210400   4.61724800   0.95699800
      18   H17       -1.70152200   4.17137000  -0.09821200
      19   H18       -1.67245800   3.67289400   1.63157300
      -----------------------------------------------------
      Nuclear repulsion energy =  457.73941820
 
++    Wave function specifications:
      -----------------------------
 
      Number of closed shell electrons          58
      Number of electrons in active shells      12
      Max number of holes in RAS1 space          0
      Max nr of electrons in RAS3 space          0
      Number of inactive orbitals               29
      Number of active orbitals                  8
      Number of secondary orbitals             172
      Spin quantum number                      0.0
      State symmetry                             1
--
 
++    Orbital specifications:
      -----------------------
 
      Symmetry species                           1
                                                 a
      Frozen orbitals                            0
      Inactive orbitals                         29
      Active orbitals                            8
      RAS1 orbitals                              0
      RAS2 orbitals                              8
      RAS3 orbitals                              0
      Secondary orbitals                       172
      Deleted orbitals                           3
      Number of basis functions                212
--
 
++    CI expansion specifications:
      ----------------------------
 
      Number of CSFs                           336
      Number of determinants                   406
      Number of root(s) required                 7
      Root chosen for geometry opt.              7
      CI roots used                              1     2     3     4     5     6     7
      weights                                0.143 0.143 0.143 0.143 0.143 0.143 0.143
      highest root included in the CI            7
      max. size of the explicit Hamiltonian    200
--
 
++    Optimization specifications:
      ----------------------------
 
      RASSCF algorithm: Conventional
      Maximum number of macro iterations        64
      Maximum number of SX iterations           25
      Threshold for RASSCF energy            0.100E-07
      Threshold for max MO rotation          0.100E+00
      Threshold for max BLB element          0.100E-03
      Level shift parameter                  0.300E+00
      Make Quasi-Newton update
--
 
      The MO-coefficients are taken from the file:
      /home/pcaah4/diamide_project/cas/ras12i11/ras_orb/orca_geometry_optimisation_15_345_BP86_def2-SVP_def2J_scf_cas1_ras12i11.RasOrb                                                                                                                                
      Title: RASSCF average (pseudo-natural) orbitals                                      
 
      Total molecular charge    0.00
 
      ************************************************************************************************************************
      *                                                                                                                      *
      *                                            Wave function control section                                             *
      *                                                                                                                      *
      ************************************************************************************************************************
 
 
                                         RASSCF iterations: Energy and convergence statistics
                                         ----------------------------------------------------
 
      Iter CI   SX   CI       RASSCF       Energy    max ROT     max BLB   max BLB  Level Ln srch  Step   QN   Walltime
          iter iter root      energy       change     param      element    value   shift minimum  type update hh:mm:ss
 Nr of preliminary CI iterations:   4
        1   1   23    0  -453.67773805    0.00E+00   0.95E-01   32  38 1  0.17E-01*  0.20   0.00    SX    NO    0:00:13
        2   3   12    0  -453.68156555   -0.38E-02*  0.48E+00*  33  39 1  0.55E-02*  0.21   0.00    SX    NO    0:00:06
        3   4   12    0  -453.68473210   -0.32E-02* -0.55E+00*  29  37 1 -0.50E-02*  0.21   0.00    SX    NO    0:00:06
        4   5   13    0  -453.69209475   -0.74E-02* -0.88E-01   32  38 1 -0.40E-02*  0.21   0.00    SX    NO    0:00:06
        5   3   12    0  -453.69309512   -0.10E-02* -0.81E-01   21  82 1  0.15E-02*  0.21   1.62    QN   YES    0:00:06
        6   5   11    0  -453.69350232   -0.41E-03* -0.26E-02   21  37 1  0.99E-03*  0.21   0.96    QN   YES    0:00:07
        7   3   10    0  -453.69352211   -0.20E-04*  0.33E-02   18  82 1 -0.79E-03*  0.21   0.99    QN   YES    0:00:06
        8   5    9    0  -453.69353592   -0.14E-04*  0.40E-02   18  82 1 -0.30E-03*  0.21   1.39    QN   YES    0:00:06
        9   3    9    0  -453.69354066   -0.47E-05* -0.15E-02   21  37 1 -0.14E-03*  0.21   1.34    QN   YES    0:00:06
       10   4    8    0  -453.69354174   -0.11E-05*  0.50E-03   32  38 1  0.56E-04   0.21   1.08    QN   YES    0:00:06
       11   3    8    0  -453.69354192   -0.18E-06*  0.62E-03   37  41 1 -0.39E-04   0.21   1.49    QN   YES    0:00:06
       12   1    7    0  -453.69354200   -0.83E-07* -0.22E-03   21  37 1  0.20E-04   0.21   1.17    QN   YES    0:00:06
       13   3    7    0  -453.69354203   -0.25E-07* -0.23E-03   32  38 1 -0.15E-04   0.21   1.46    QN   YES    0:00:06
       14   3    6    0  -453.69354204   -0.11E-07*  0.50E-04   32  38 1 -0.56E-05   0.21   1.17    QN   YES    0:00:06
       15   1    5    0  -453.69354204   -0.15E-08   0.19E-04   21  37 1 -0.22E-05   0.21   1.41    QN   YES    0:00:06
      Convergence after 15 iterations
       16   1    5    0  -453.69354204   -0.36E-09   0.19E-04   32  38 1  0.11E-05   0.21   1.41    QN   YES    0:00:06
 
      ************************************************************************************************************************
                                                      Wave function printout:
                       occupation of active orbitals, and spin coupling of open shells (u,d: Spin up or down)
      ************************************************************************************************************************
 
      Note: transformation to natural orbitals
      has been made, which may change the order of the CSFs.
 
      printout of CI-coefficients larger than  0.05 for root  1
      energy=    -453.939157
      conf/sym  11111111     Coeff  Weight
             1  22222200   0.96191 0.92527
             2  22222ud0  -0.10742 0.01154
             4  22222020  -0.09686 0.00938
            17  22220202  -0.07885 0.00622
            61  2u2222d0  -0.08819 0.00778
            62  2u222d20  -0.05370 0.00288
            84  u222220d   0.12402 0.01538
           171  20222220  -0.08954 0.00802
           195  02222202  -0.07687 0.00591
 
      printout of CI-coefficients larger than  0.05 for root  2
      energy=    -453.723004
      conf/sym  11111111     Coeff  Weight
            21  222u22d0  -0.95114 0.90466
            22  222u2d20  -0.13252 0.01756
            24  222u220d  -0.12928 0.01671
            38  222u02d2  -0.07902 0.00624
           121  2u2d2220  -0.15445 0.02386
           132  u22d22ud  -0.06453 0.00416
           213  u22u22dd  -0.10918 0.01192
           270  022u22d2   0.07719 0.00596
 
      printout of CI-coefficients larger than  0.05 for root  3
      energy=    -453.707846
      conf/sym  11111111     Coeff  Weight
             7  22222u0d   0.06540 0.00428
            24  222u220d   0.08565 0.00734
            44  22u2220d  -0.94769 0.89811
            45  22u22dud   0.07481 0.00560
            47  22u22udd   0.12166 0.01480
            49  22u2202d   0.08671 0.00752
            54  22u2d202  -0.15192 0.02308
           165  u2d22202   0.11269 0.01270
           219  2uu222dd  -0.06719 0.00451
           220  2uu22d2d  -0.05330 0.00284
           293  20u2222d  -0.09195 0.00845
 
      printout of CI-coefficients larger than  0.05 for root  4
      energy=    -453.637179
      conf/sym  11111111     Coeff  Weight
             1  22222200   0.06594 0.00435
             2  22222ud0   0.37326 0.13932
             4  22222020  -0.09179 0.00843
             7  22222u0d   0.54243 0.29423
             8  2222u20d   0.62598 0.39186
             9  222220ud  -0.06606 0.00436
            10  2222udud  -0.06603 0.00436
            12  2222uudd  -0.05956 0.00355
            13  2222u02d  -0.06919 0.00479
            21  222u22d0   0.05050 0.00255
            24  222u220d  -0.23308 0.05433
            27  222u2udd  -0.05792 0.00336
            61  2u2222d0  -0.05598 0.00313
            62  2u222d20   0.09869 0.00974
            65  2u222dud   0.08261 0.00682
            67  2u222udd   0.08506 0.00723
            68  2u22u2dd   0.06123 0.00375
            87  u2222udd   0.05448 0.00297
            94  u222d202  -0.14519 0.02108
           173  20222u2d   0.06683 0.00447
           174  2022u22d   0.05802 0.00337
 
      printout of CI-coefficients larger than  0.05 for root  5
      energy=    -453.629952
      conf/sym  11111111     Coeff  Weight
             2  22222ud0  -0.15437 0.02383
             7  22222u0d   0.76977 0.59254
             8  2222u20d  -0.52346 0.27401
            13  2222u02d   0.05492 0.00302
            24  222u220d   0.09324 0.00869
            44  22u2220d   0.07025 0.00494
            65  2u222dud   0.13475 0.01816
            67  2u222udd   0.15084 0.02275
            68  2u22u2dd  -0.05331 0.00284
            93  u2222d02  -0.06339 0.00402
            94  u222d202   0.12180 0.01483
           173  20222u2d   0.10578 0.01119
 
      printout of CI-coefficients larger than  0.05 for root  6
      energy=    -453.610194
      conf/sym  11111111     Coeff  Weight
             1  22222200   0.08669 0.00752
             2  22222ud0   0.74621 0.55682
             4  22222020  -0.12873 0.01657
             7  22222u0d  -0.06796 0.00462
             8  2222u20d  -0.22832 0.05213
            19  22220ud2  -0.06584 0.00433
            24  222u220d   0.49387 0.24391
            25  222u2dud   0.09085 0.00825
            27  222u2udd   0.13408 0.01798
            62  2u222d20   0.20588 0.04239
            85  u2222dud   0.05353 0.00287
            87  u2222udd   0.08316 0.00692
            94  u222d202   0.05790 0.00335
           171  20222220   0.06880 0.00473
           196  02222ud2  -0.05607 0.00314
 
      printout of CI-coefficients larger than  0.05 for root  7
      energy=    -453.607461
      conf/sym  11111111     Coeff  Weight
             2  22222ud0   0.36049 0.12995
             7  22222u0d  -0.11090 0.01230
             8  2222u20d  -0.41630 0.17331
            21  222u22d0   0.11134 0.01240
            24  222u220d  -0.72911 0.53160
            25  222u2dud  -0.15411 0.02375
            27  222u2udd  -0.22941 0.05263
            44  22u2220d  -0.06874 0.00473
            62  2u222d20   0.10331 0.01067
            94  u222d202   0.09772 0.00955
           135  u22d2202   0.05756 0.00331
           208  2u2u2d2d   0.06194 0.00384
           261  202u222d  -0.06610 0.00437
 
      Natural orbitals and occupation numbers for root  1
      sym 1:   1.993337   1.975149   1.999912   1.999843   1.992634   1.957230   0.049696   0.032199
 
      Natural orbitals and occupation numbers for root  2
      sym 1:   1.973919   1.999675   1.998818   1.004254   1.993019   1.999369   0.996557   0.034389
 
      Natural orbitals and occupation numbers for root  3
      sym 1:   1.999884   1.994935   1.002552   1.997749   1.999617   1.954241   0.052393   0.998629
 
      Natural orbitals and occupation numbers for root  4
      sym 1:   1.995754   1.976080   1.999799   1.938970   1.870307   1.116923   0.181211   0.920955
 
      Natural orbitals and occupation numbers for root  5
      sym 1:   1.990851   1.925991   1.999678   1.999167   1.969804   1.076039   0.090786   0.947684
 
      Natural orbitals and occupation numbers for root  6
      sym 1:   1.974849   1.959067   1.999687   1.720095   1.985854   1.295519   0.741216   0.323713
 
      Natural orbitals and occupation numbers for root  7
      sym 1:   1.990916   1.970532   1.999545   1.250981   1.947930   1.811135   0.226046   0.802916
 
      ************************************************************************************************************************
      *                                                                                                                      *
      *                                                    Final results                                                     *
      *                                                                                                                      *
      ************************************************************************************************************************
 
 
++    Wave function specifications:
      -----------------------------
 
      Number of closed shell electrons          58
      Number of electrons in active shells      12
      Max number of holes in RAS1 space          0
      Max nr of electrons in RAS3 space          0
      Number of inactive orbitals               29
      Number of active orbitals                  8
      Number of secondary orbitals             172
      Spin quantum number                      0.0
      State symmetry                             1
--
 
++    Orbital specifications:
      -----------------------
 
      Symmetry species                           1
                                                 a
      Frozen orbitals                            0
      Inactive orbitals                         29
      Active orbitals                            8
      RAS1 orbitals                              0
      RAS2 orbitals                              8
      RAS3 orbitals                              0
      Secondary orbitals                       172
      Deleted orbitals                           3
      Number of basis functions                212
--
 
++    CI expansion specifications:
      ----------------------------
 
      Number of CSFs                           336
      Number of determinants                   406
      Number of root(s) required                 7
      CI roots used                              1     2     3     4     5     6     7
      weights                                0.143 0.143 0.143 0.143 0.143 0.143 0.143
      highest root included in the CI            7
      Root passed to geometry opt.               7
--
 
++    Final optimization conditions:
      ------------------------------
 
      Average CI energy                            -453.69354204
      RASSCF energy for state  7                   -453.60746134
      Super-CI energy                                -0.00000000
      RASSCF energy change                            0.00000000
      Max change in MO coefficients              -0.217E-04
      Max non-diagonal density matrix element     0.190E-04
      Maximum BLB matrix element                  0.112E-05
      (orbital pair  32,  38 in symmetry   1)
      Norm of electronic gradient            0.253E+00
--
 
 
      Final state energy(ies):
      ------------------------
 
::    RASSCF root number  1 Total energy:   -453.93915744
::    RASSCF root number  2 Total energy:   -453.72300435
::    RASSCF root number  3 Total energy:   -453.70784594
::    RASSCF root number  4 Total energy:   -453.63717929
::    RASSCF root number  5 Total energy:   -453.62995212
::    RASSCF root number  6 Total energy:   -453.61019382
::    RASSCF root number  7 Total energy:   -453.60746134
 
++    Molecular orbitals:
      -------------------
 
      Pseudonatural active orbitals and approximate occupation numbers
 
 
 
 
      Molecular orbitals for symmetry species 1: a  
 
 
      Orbital                 1         2         3         4         5         6         7         8         9        10
      Energy           -20.5990  -20.5268  -15.6193  -15.5980  -11.3434  -11.3037  -11.2870  -11.2825  -11.2276   -1.4228
      Occ. No.           2.0000    2.0000    2.0000    2.0000    2.0000    2.0000    2.0000    2.0000    2.0000    2.0000
 
     1 C1     1s        -0.0001    0.0003    0.0001    0.0001   -0.0000   -0.0009    0.9999   -0.0001   -0.0051   -0.0003
     2 C1     2s        -0.0009    0.0008    0.0004    0.0003   -0.0001   -0.0019    0.0021   -0.0004   -0.0003    0.0269
     3 C1     3s        -0.0007   -0.0005    0.0002    0.0001   -0.0001   -0.0013   -0.0003   -0.0003   -0.0006    0.0094
     4 C1     4s        -0.0002   -0.0004    0.0000    0.0000   -0.0001   -0.0004    0.0012   -0.0001   -0.0002    0.0032
     5 C1     2px        0.0001   -0.0020    0.0000    0.0012   -0.0004   -0.0010    0.0011   -0.0002    0.0000    0.0074
     6 C1     3px        0.0001   -0.0011   -0.0000    0.0010   -0.0004   -0.0011    0.0008   -0.0003    0.0002    0.0136
     7 C1     4px       -0.0000    0.0003   -0.0000   -0.0001   -0.0000   -0.0001    0.0002   -0.0001    0.0001    0.0028
     8 C1     2py        0.0003    0.0021   -0.0000    0.0006   -0.0008   -0.0005    0.0011   -0.0001   -0.0008    0.0171
     9 C1     3py        0.0004    0.0012   -0.0001    0.0003   -0.0009   -0.0009    0.0009   -0.0001   -0.0000    0.0184
    10 C1     4py        0.0001   -0.0004   -0.0001   -0.0001   -0.0001   -0.0003    0.0007   -0.0000    0.0003    0.0061
    11 C1     2pz        0.0000   -0.0001    0.0000    0.0003   -0.0002   -0.0002    0.0003   -0.0000   -0.0001    0.0032
    12 C1     3pz        0.0000   -0.0000   -0.0000    0.0003   -0.0002   -0.0003    0.0003   -0.0001    0.0000    0.0041
    13 C1     4pz        0.0000   -0.0000   -0.0000   -0.0000   -0.0000   -0.0000    0.0001   -0.0000    0.0000    0.0012
    14 C1     3d2-       0.0000    0.0001    0.0000   -0.0000   -0.0000   -0.0000   -0.0003    0.0000    0.0000   -0.0008
    15 C1     3d1-       0.0000    0.0000    0.0000   -0.0000   -0.0000   -0.0000   -0.0000    0.0000   -0.0000    0.0000
    16 C1     3d0        0.0000   -0.0000   -0.0000    0.0001    0.0000   -0.0000   -0.0003   -0.0000    0.0001   -0.0011
    17 C1     3d1+      -0.0000    0.0000    0.0000   -0.0001   -0.0000   -0.0000    0.0001   -0.0000   -0.0000    0.0004
    18 C1     3d2+      -0.0000   -0.0001    0.0000   -0.0002   -0.0000    0.0000    0.0003    0.0000   -0.0001    0.0004
    19 C3     1s         0.0001    0.0001    0.0000    0.0004    0.0068    0.9996    0.0007    0.0000    0.0000   -0.0139
    20 C3     2s         0.0008    0.0004    0.0002    0.0024    0.0003   -0.0007   -0.0002    0.0008    0.0003    0.0052
    21 C3     3s         0.0005    0.0003    0.0001    0.0011   -0.0001   -0.0021   -0.0002    0.0004    0.0002   -0.0396
    22 C3     4s         0.0000    0.0000   -0.0000    0.0001   -0.0000    0.0007   -0.0001    0.0000    0.0000   -0.0049
    23 C3     2px       -0.0003   -0.0003    0.0002   -0.0006    0.0001    0.0001    0.0006   -0.0002    0.0001    0.0003
    24 C3     3px       -0.0002   -0.0003    0.0002   -0.0001    0.0003    0.0000    0.0007   -0.0003    0.0002    0.0075
    25 C3     4px        0.0001    0.0000    0.0000    0.0003    0.0000   -0.0007    0.0001   -0.0000    0.0001   -0.0041
    26 C3     2py       -0.0007    0.0001    0.0004   -0.0005   -0.0001   -0.0005    0.0005   -0.0002   -0.0000    0.0282
    27 C3     3py       -0.0009    0.0001    0.0002    0.0001   -0.0008   -0.0006    0.0005   -0.0005    0.0002    0.0053
    28 C3     4py       -0.0002    0.0000   -0.0002    0.0003   -0.0003   -0.0005    0.0000   -0.0002    0.0001    0.0086
    29 C3     2pz       -0.0004    0.0001    0.0002   -0.0001    0.0000   -0.0000    0.0001   -0.0002    0.0001    0.0119
    30 C3     3pz       -0.0004    0.0000    0.0002    0.0001   -0.0001   -0.0001    0.0002   -0.0003    0.0002    0.0054
    31 C3     4pz       -0.0000   -0.0000   -0.0000    0.0001   -0.0000   -0.0001    0.0001   -0.0000    0.0000    0.0010
    32 C3     3d2-       0.0000    0.0000    0.0000    0.0000   -0.0001   -0.0001    0.0000   -0.0001    0.0000   -0.0019
    33 C3     3d1-      -0.0000    0.0000    0.0001    0.0000   -0.0000   -0.0000   -0.0000    0.0000    0.0000    0.0013
    34 C3     3d0       -0.0001   -0.0000   -0.0001    0.0000    0.0001    0.0001    0.0000   -0.0000   -0.0000    0.0002
    35 C3     3d1+       0.0000    0.0000    0.0000   -0.0000   -0.0001    0.0000    0.0000   -0.0000    0.0000   -0.0010
    36 C3     3d2+       0.0001   -0.0000   -0.0000    0.0001    0.0000   -0.0000    0.0001   -0.0000   -0.0000   -0.0062
    37 C4     1s         0.0003    0.0000    0.0003   -0.0002    1.0000   -0.0067   -0.0000    0.0002   -0.0000   -0.0395
    38 C4     2s         0.0010    0.0001    0.0009   -0.0012    0.0025    0.0005   -0.0002    0.0002   -0.0000    0.3519
    39 C4     3s        -0.0004    0.0001    0.0002   -0.0009    0.0001    0.0001   -0.0002    0.0000    0.0000   -0.0086
    40 C4     4s        -0.0004    0.0000   -0.0000   -0.0002    0.0013    0.0000   -0.0001   -0.0001   -0.0000    0.0026
    41 C4     2px        0.0018   -0.0002   -0.0017    0.0002   -0.0004    0.0001   -0.0001    0.0003   -0.0002    0.0447
    42 C4     3px        0.0015   -0.0001   -0.0012   -0.0001   -0.0003    0.0005   -0.0001    0.0008   -0.0003   -0.0476
    43 C4     4px       -0.0000    0.0001    0.0002   -0.0002   -0.0000    0.0003   -0.0000    0.0004   -0.0001    0.0107
    44 C4     2py        0.0023   -0.0003    0.0006    0.0010    0.0007   -0.0008    0.0003    0.0001    0.0001    0.0916
    45 C4     3py        0.0016   -0.0002    0.0004    0.0011    0.0003   -0.0001    0.0005   -0.0005    0.0001   -0.0531
    46 C4     4py       -0.0002   -0.0000   -0.0001    0.0001    0.0004    0.0003    0.0002   -0.0004    0.0001    0.0212
    47 C4     2pz        0.0009   -0.0001   -0.0001    0.0001   -0.0001   -0.0002   -0.0000   -0.0000   -0.0001    0.0315
    48 C4     3pz        0.0006    0.0000   -0.0002    0.0001   -0.0000   -0.0001   -0.0000   -0.0001   -0.0001   -0.0194
    49 C4     4pz       -0.0001    0.0000   -0.0000   -0.0000    0.0000    0.0001    0.0000   -0.0001   -0.0000    0.0078
    50 C4     3d2-      -0.0002   -0.0000   -0.0000    0.0000    0.0004   -0.0000   -0.0000   -0.0000   -0.0000    0.0308
    51 C4     3d1-      -0.0000   -0.0000   -0.0000    0.0000    0.0002   -0.0000   -0.0000    0.0000    0.0000    0.0173
    52 C4     3d0       -0.0000    0.0000    0.0001   -0.0000   -0.0003    0.0001    0.0000   -0.0001    0.0000   -0.0215
    53 C4     3d1+      -0.0000   -0.0000   -0.0001   -0.0000    0.0003   -0.0000   -0.0000    0.0000   -0.0000    0.0164
    54 C4     3d2+       0.0000    0.0000   -0.0002    0.0001    0.0002   -0.0000    0.0000    0.0001   -0.0000    0.0004
    55 C6     1s         0.0001   -0.0000    0.0004   -0.0001   -0.0001    0.0002   -0.0001    0.9996    0.0000   -0.0092
    56 C6     2s         0.0008   -0.0002    0.0022   -0.0006    0.0005    0.0008   -0.0003   -0.0003    0.0001    0.0107
    57 C6     3s         0.0006   -0.0002    0.0008   -0.0005    0.0002    0.0006   -0.0004   -0.0019   -0.0000   -0.0177
    58 C6     4s         0.0001   -0.0001   -0.0001   -0.0002   -0.0001    0.0002   -0.0002    0.0008   -0.0000   -0.0013
    59 C6     2px        0.0004   -0.0002    0.0003   -0.0001   -0.0002    0.0003   -0.0002   -0.0001   -0.0000    0.0118
    60 C6     3px        0.0004   -0.0002   -0.0002   -0.0001   -0.0004    0.0002   -0.0003   -0.0001   -0.0000   -0.0030
    61 C6     4px       -0.0000    0.0000   -0.0002   -0.0000   -0.0002   -0.0001   -0.0001    0.0004   -0.0000    0.0031
    62 C6     2py        0.0000    0.0000   -0.0005    0.0002   -0.0000   -0.0002    0.0001   -0.0001    0.0001   -0.0147
    63 C6     3py       -0.0000    0.0000    0.0002    0.0002    0.0000   -0.0002    0.0001    0.0002    0.0001    0.0007
    64 C6     4py       -0.0000    0.0000    0.0002   -0.0000    0.0000    0.0000    0.0000   -0.0006   -0.0000   -0.0025
    65 C6     2pz       -0.0003    0.0001   -0.0001    0.0001    0.0000   -0.0001    0.0001    0.0000   -0.0000    0.0033
    66 C6     3pz       -0.0003    0.0001    0.0000    0.0001   -0.0000   -0.0001    0.0001    0.0002    0.0000    0.0062
    67 C6     4pz        0.0000   -0.0000    0.0000   -0.0000   -0.0000    0.0000    0.0000   -0.0001    0.0000   -0.0010
    68 C6     3d2-      -0.0000   -0.0000   -0.0000    0.0000   -0.0001   -0.0000   -0.0000    0.0000    0.0000   -0.0031
    69 C6     3d1-       0.0000   -0.0000   -0.0001    0.0000   -0.0000    0.0000    0.0000   -0.0001    0.0000    0.0010
    70 C6     3d0       -0.0000    0.0000    0.0001    0.0000   -0.0000   -0.0000   -0.0000    0.0000    0.0000   -0.0020
    71 C6     3d1+       0.0000   -0.0000    0.0000    0.0000   -0.0000    0.0000   -0.0000    0.0000    0.0000   -0.0011
    72 C6     3d2+      -0.0000   -0.0000    0.0001   -0.0000    0.0000   -0.0000    0.0000    0.0001    0.0000   -0.0011
    73 C19    1s         0.0000    0.0001   -0.0000    0.0000   -0.0001    0.0001    0.0051    0.0000    1.0000   -0.0004
    74 C19    2s         0.0003    0.0009   -0.0004    0.0003   -0.0005    0.0008    0.0009    0.0000    0.0019    0.0023
    75 C19    3s         0.0003    0.0005   -0.0003    0.0003   -0.0004    0.0004    0.0003   -0.0001   -0.0005    0.0028
    76 C19    4s         0.0001   -0.0000   -0.0001    0.0000   -0.0001    0.0000    0.0001   -0.0000    0.0012    0.0021
    77 C19    2px        0.0002    0.0007    0.0001   -0.0002    0.0001    0.0002   -0.0002    0.0001    0.0000   -0.0032
    78 C19    3px        0.0001    0.0005    0.0001   -0.0002    0.0001    0.0003   -0.0003    0.0001   -0.0000   -0.0036
    79 C19    4px       -0.0000   -0.0001    0.0000   -0.0000    0.0000    0.0000   -0.0000    0.0000    0.0001   -0.0003
    80 C19    2py        0.0001    0.0000   -0.0001    0.0003   -0.0003    0.0001    0.0004   -0.0001   -0.0005    0.0036
    81 C19    3py        0.0001   -0.0001   -0.0001    0.0002   -0.0002   -0.0000   -0.0002   -0.0001   -0.0001    0.0029
    82 C19    4py       -0.0000   -0.0002    0.0000   -0.0001    0.0000   -0.0001   -0.0002   -0.0000    0.0003    0.0007
    83 C19    2pz       -0.0000    0.0001    0.0000    0.0000   -0.0000    0.0001    0.0000   -0.0000   -0.0000    0.0005
    84 C19    3pz       -0.0000    0.0001    0.0000    0.0000    0.0000    0.0001   -0.0001   -0.0000    0.0000    0.0002
    85 C19    4pz       -0.0000   -0.0000    0.0000   -0.0000    0.0000   -0.0000   -0.0000    0.0000    0.0001    0.0000
    86 C19    3d2-      -0.0000    0.0001   -0.0000   -0.0000   -0.0000    0.0000    0.0000   -0.0000   -0.0001   -0.0001
    87 C19    3d1-       0.0000    0.0000   -0.0000    0.0000   -0.0000    0.0000   -0.0000   -0.0000   -0.0000   -0.0001
    88 C19    3d0       -0.0000   -0.0001   -0.0000   -0.0001    0.0000   -0.0000    0.0001    0.0000    0.0001    0.0002
    89 C19    3d1+       0.0000    0.0000   -0.0000    0.0000    0.0000   -0.0000   -0.0000    0.0000   -0.0000   -0.0001
    90 C19    3d2+      -0.0000    0.0000   -0.0000   -0.0000    0.0000   -0.0000   -0.0001    0.0000    0.0001   -0.0000
    91 N2     1s        -0.0001    0.0001    0.0000    0.9999    0.0001    0.0002   -0.0002   -0.0000    0.0001   -0.0012
    92 N2     2s        -0.0004    0.0005    0.0003    0.0002    0.0005    0.0023   -0.0002   -0.0001    0.0004    0.0218
    93 N2     3s        -0.0003    0.0003    0.0002   -0.0012    0.0004    0.0014   -0.0002   -0.0001    0.0003   -0.0032
    94 N2     4s        -0.0000    0.0001    0.0001    0.0006    0.0001    0.0004    0.0001   -0.0000    0.0001   -0.0015
    95 N2     2px       -0.0003    0.0006    0.0002    0.0002   -0.0002   -0.0004   -0.0001   -0.0002   -0.0003    0.0030
    96 N2     3px       -0.0005    0.0006    0.0001    0.0000   -0.0004   -0.0007   -0.0000   -0.0004   -0.0002    0.0079
    97 N2     4px       -0.0001    0.0000   -0.0001   -0.0001   -0.0001    0.0001   -0.0002   -0.0001    0.0001    0.0019
    98 N2     2py       -0.0000   -0.0012   -0.0001   -0.0004    0.0002    0.0011    0.0007    0.0000   -0.0003    0.0060
    99 N2     3py        0.0001   -0.0014   -0.0002    0.0004    0.0001    0.0010    0.0006   -0.0000   -0.0002   -0.0015
   100 N2     4py        0.0001    0.0000   -0.0001    0.0006   -0.0000    0.0001   -0.0002   -0.0000    0.0001   -0.0013
   101 N2     2pz        0.0001   -0.0001   -0.0000   -0.0000   -0.0000   -0.0000   -0.0000    0.0000   -0.0001    0.0002
   102 N2     3pz        0.0001   -0.0001   -0.0001    0.0001   -0.0000   -0.0000    0.0000   -0.0000   -0.0001   -0.0000
   103 N2     4pz        0.0000    0.0000   -0.0000   -0.0000   -0.0000    0.0000   -0.0001   -0.0000    0.0000    0.0003
   104 N2     3d2-       0.0000    0.0000    0.0000   -0.0001    0.0000   -0.0000   -0.0000    0.0000   -0.0000   -0.0000
   105 N2     3d1-       0.0000    0.0000    0.0000   -0.0000    0.0000   -0.0000   -0.0000    0.0000    0.0000   -0.0001
   106 N2     3d0       -0.0000   -0.0000    0.0000    0.0001   -0.0000    0.0000    0.0001    0.0000   -0.0001   -0.0004
   107 N2     3d1+       0.0000    0.0000    0.0000   -0.0000    0.0000   -0.0000   -0.0000    0.0000    0.0000    0.0002
   108 N2     3d2+       0.0000   -0.0001   -0.0000    0.0001   -0.0000   -0.0000    0.0001   -0.0000    0.0000   -0.0004
   109 N5     1s         0.0001   -0.0001    0.9998    0.0001   -0.0003   -0.0001    0.0000    0.0001   -0.0000   -0.0176
   110 N5     2s         0.0006   -0.0005   -0.0004    0.0005   -0.0004   -0.0004    0.0001    0.0018   -0.0002    0.1053
   111 N5     3s         0.0004   -0.0004   -0.0016    0.0003   -0.0005   -0.0002    0.0001    0.0011   -0.0001   -0.0461
   112 N5     4s         0.0001   -0.0001    0.0004    0.0001    0.0000   -0.0000    0.0000    0.0004   -0.0000   -0.0108
   113 N5     2px       -0.0002   -0.0001   -0.0001   -0.0001    0.0003   -0.0000   -0.0002   -0.0009   -0.0000    0.0281
   114 N5     3px       -0.0003   -0.0002   -0.0001   -0.0003    0.0002    0.0001   -0.0003   -0.0006   -0.0001   -0.0175
   115 N5     4px       -0.0001   -0.0000    0.0003   -0.0001    0.0003    0.0000   -0.0000    0.0001   -0.0000    0.0062
   116 N5     2py       -0.0015    0.0006   -0.0009    0.0002   -0.0001   -0.0003    0.0002    0.0007   -0.0001    0.0398
   117 N5     3py       -0.0019    0.0007   -0.0008    0.0003   -0.0004   -0.0004    0.0005    0.0009   -0.0002    0.0285
   118 N5     4py       -0.0001   -0.0000    0.0004    0.0000   -0.0002    0.0000    0.0001    0.0003   -0.0000   -0.0039
   119 N5     2pz       -0.0003    0.0000   -0.0001    0.0001   -0.0000   -0.0001    0.0000    0.0002   -0.0000    0.0150
   120 N5     3pz       -0.0004    0.0001   -0.0003    0.0001   -0.0000   -0.0001    0.0001    0.0003   -0.0000   -0.0035
   121 N5     4pz       -0.0000    0.0000    0.0004   -0.0000    0.0001    0.0000    0.0000    0.0001   -0.0000   -0.0002
   122 N5     3d2-      -0.0001    0.0000    0.0002   -0.0000    0.0001    0.0000    0.0000    0.0001   -0.0000    0.0025
   123 N5     3d1-      -0.0000   -0.0000   -0.0000   -0.0000   -0.0001    0.0000    0.0000   -0.0000   -0.0000    0.0012
   124 N5     3d0       -0.0000    0.0000   -0.0000    0.0000    0.0001   -0.0000   -0.0000    0.0001   -0.0000   -0.0016
   125 N5     3d1+      -0.0000   -0.0000    0.0000   -0.0000   -0.0000    0.0000    0.0000   -0.0000    0.0000    0.0022
   126 N5     3d2+      -0.0001    0.0000   -0.0000    0.0000    0.0001   -0.0000    0.0000   -0.0000    0.0000    0.0047
   127 O7     1s         0.0000    0.9997   -0.0000    0.0000   -0.0000   -0.0000   -0.0002    0.0000    0.0001   -0.0010
   128 O7     2s         0.0000   -0.0013   -0.0003    0.0002   -0.0000   -0.0002    0.0006    0.0002    0.0004    0.0266
   129 O7     3s        -0.0000   -0.0014   -0.0003    0.0002   -0.0000   -0.0001    0.0001    0.0002    0.0003   -0.0014
   130 O7     4s        -0.0001    0.0001   -0.0001    0.0000   -0.0000   -0.0000    0.0001    0.0001    0.0001   -0.0007
   131 O7     2px        0.0000    0.0001   -0.0001   -0.0002   -0.0000   -0.0000    0.0007    0.0001    0.0001    0.0042
   132 O7     3px       -0.0000   -0.0005   -0.0001   -0.0002   -0.0000    0.0001    0.0001    0.0001    0.0001   -0.0036
   133 O7     4px       -0.0000    0.0011    0.0000   -0.0001   -0.0000    0.0000    0.0001    0.0000   -0.0000   -0.0008
   134 O7     2py       -0.0002   -0.0002   -0.0003   -0.0004    0.0001    0.0002   -0.0004    0.0000   -0.0002   -0.0007
   135 O7     3py       -0.0004    0.0001   -0.0003   -0.0004    0.0002    0.0002   -0.0003    0.0000   -0.0002    0.0004
   136 O7     4py       -0.0001   -0.0007   -0.0000   -0.0000    0.0000    0.0001   -0.0002    0.0000   -0.0000   -0.0003
   137 O7     2pz       -0.0000   -0.0000   -0.0001   -0.0001   -0.0000    0.0000    0.0000   -0.0000   -0.0000    0.0012
   138 O7     3pz       -0.0000   -0.0001   -0.0001   -0.0001    0.0000    0.0000   -0.0000   -0.0000   -0.0000   -0.0002
   139 O7     4pz        0.0000    0.0001   -0.0000   -0.0000   -0.0000    0.0000   -0.0000   -0.0000   -0.0000   -0.0001
   140 O7     3d2-      -0.0000    0.0001   -0.0000   -0.0000    0.0000    0.0000   -0.0002    0.0000   -0.0000   -0.0005
   141 O7     3d1-       0.0000    0.0000   -0.0000    0.0000   -0.0000    0.0000   -0.0000   -0.0000    0.0000   -0.0000
   142 O7     3d0       -0.0000    0.0000    0.0000   -0.0000    0.0000    0.0000   -0.0001   -0.0000   -0.0000   -0.0005
   143 O7     3d1+       0.0000   -0.0000   -0.0000   -0.0000   -0.0000   -0.0000    0.0000   -0.0000    0.0000    0.0001
   144 O7     3d2+      -0.0000   -0.0000    0.0000   -0.0001    0.0000   -0.0000    0.0001    0.0000   -0.0000    0.0002
   145 O8     1s         0.9997    0.0000    0.0000   -0.0000   -0.0003    0.0001    0.0000   -0.0000    0.0000   -0.0239
   146 O8     2s        -0.0012    0.0002    0.0001   -0.0002    0.0004    0.0006    0.0000   -0.0003    0.0001    0.6912
   147 O8     3s        -0.0011    0.0001    0.0001   -0.0001   -0.0000    0.0004    0.0000   -0.0002    0.0001   -0.0348
   148 O8     4s         0.0002    0.0000    0.0000    0.0000    0.0000    0.0001   -0.0000   -0.0000    0.0000   -0.0143
   149 O8     2px       -0.0003   -0.0000    0.0003    0.0000   -0.0005   -0.0002   -0.0001    0.0001   -0.0000   -0.0927
   150 O8     3px        0.0002   -0.0000    0.0004    0.0000   -0.0001   -0.0001   -0.0002    0.0000   -0.0000    0.0300
   151 O8     4px       -0.0009    0.0000    0.0001   -0.0000   -0.0001    0.0001   -0.0001   -0.0000   -0.0000    0.0020
   152 O8     2py       -0.0003   -0.0001   -0.0002   -0.0001   -0.0004   -0.0003   -0.0001   -0.0000   -0.0000   -0.1040
   153 O8     3py        0.0003   -0.0000   -0.0001   -0.0002   -0.0002   -0.0002   -0.0001   -0.0000   -0.0000    0.0323
   154 O8     4py       -0.0010    0.0000    0.0001   -0.0001   -0.0003    0.0000   -0.0000   -0.0000    0.0000   -0.0001
   155 O8     2pz       -0.0001   -0.0000    0.0001    0.0000   -0.0003   -0.0001   -0.0000    0.0000   -0.0000   -0.0464
   156 O8     3pz        0.0002   -0.0000    0.0000    0.0000   -0.0001   -0.0001    0.0000    0.0000    0.0000    0.0132
   157 O8     4pz       -0.0004   -0.0000    0.0000   -0.0000   -0.0001    0.0000    0.0000    0.0000    0.0000    0.0002
   158 O8     3d2-      -0.0001    0.0000   -0.0000   -0.0000    0.0002    0.0000    0.0000   -0.0000    0.0000    0.0171
   159 O8     3d1-      -0.0000    0.0000    0.0000   -0.0000    0.0001    0.0000    0.0000    0.0000   -0.0000    0.0083
   160 O8     3d0       -0.0000   -0.0000   -0.0000   -0.0000   -0.0000   -0.0000   -0.0000   -0.0000   -0.0000   -0.0076
   161 O8     3d1+      -0.0000    0.0000   -0.0000   -0.0000    0.0001    0.0000    0.0000   -0.0000    0.0000    0.0072
   162 O8     3d2+       0.0000   -0.0000   -0.0001    0.0000    0.0000   -0.0000    0.0000   -0.0000    0.0000   -0.0021
   163 H9     1s         0.0001    0.0001    0.0001    0.0001   -0.0001   -0.0003   -0.0001   -0.0001    0.0003    0.0051
   164 H9     2s         0.0001    0.0000    0.0001    0.0000   -0.0001   -0.0002   -0.0000   -0.0001   -0.0003    0.0034
   165 H9     2px       -0.0000   -0.0000   -0.0000    0.0000   -0.0000   -0.0000    0.0000   -0.0000   -0.0000    0.0003
   166 H9     2py        0.0000   -0.0001    0.0000   -0.0000   -0.0000   -0.0000    0.0001   -0.0000    0.0000    0.0003
   167 H9     2pz        0.0000    0.0000    0.0000    0.0000   -0.0000   -0.0000    0.0000   -0.0000   -0.0001    0.0004
   168 H10    1s         0.0002    0.0001    0.0001    0.0001   -0.0001   -0.0004   -0.0001   -0.0000    0.0002    0.0046
   169 H10    2s         0.0001    0.0000    0.0000    0.0000   -0.0001   -0.0003   -0.0001   -0.0000   -0.0003    0.0032
   170 H10    2px        0.0000    0.0000   -0.0000    0.0000   -0.0000   -0.0000    0.0000   -0.0000   -0.0001    0.0004
   171 H10    2py        0.0000   -0.0001    0.0000   -0.0000   -0.0000   -0.0000    0.0001   -0.0000    0.0000    0.0004
   172 H10    2pz       -0.0000   -0.0000   -0.0000    0.0000    0.0000    0.0000   -0.0000    0.0000    0.0001   -0.0002
   173 H11    1s        -0.0001   -0.0005   -0.0001    0.0002   -0.0002   -0.0003    0.0001   -0.0001    0.0001    0.0064
   174 H11    2s        -0.0000   -0.0002   -0.0001    0.0002   -0.0001   -0.0002    0.0001   -0.0000   -0.0004    0.0041
   175 H11    2px        0.0000    0.0000    0.0000   -0.0000    0.0000    0.0000   -0.0000    0.0000    0.0002   -0.0006
   176 H11    2py       -0.0000   -0.0000   -0.0000   -0.0000   -0.0000   -0.0000    0.0001   -0.0000   -0.0000    0.0003
   177 H11    2pz        0.0000   -0.0000   -0.0000   -0.0000    0.0000    0.0000    0.0000    0.0000    0.0000   -0.0001
   178 H12    1s         0.0001   -0.0009   -0.0003   -0.0003   -0.0000    0.0005    0.0006    0.0002   -0.0002    0.0039
   179 H12    2s         0.0001   -0.0005   -0.0002   -0.0002   -0.0000    0.0003    0.0002    0.0001   -0.0001   -0.0008
   180 H12    2px       -0.0000    0.0000    0.0000    0.0003    0.0000    0.0000   -0.0002   -0.0000   -0.0000   -0.0004
   181 H12    2py       -0.0000   -0.0000   -0.0000   -0.0003   -0.0000    0.0001    0.0000   -0.0000   -0.0000    0.0010
   182 H12    2pz       -0.0000   -0.0000    0.0000   -0.0000    0.0000    0.0000   -0.0000   -0.0000   -0.0000    0.0001
   183 H13    1s        -0.0001    0.0001    0.0001   -0.0004   -0.0001    0.0007   -0.0004   -0.0001   -0.0001    0.0199
   184 H13    2s        -0.0001    0.0001    0.0001   -0.0002   -0.0001   -0.0000   -0.0003   -0.0001   -0.0001    0.0022
   185 H13    2px        0.0000   -0.0000   -0.0000    0.0000   -0.0000   -0.0000    0.0000    0.0000   -0.0000   -0.0011
   186 H13    2py       -0.0001   -0.0000   -0.0000    0.0000    0.0001   -0.0000   -0.0000   -0.0000    0.0000    0.0015
   187 H13    2pz       -0.0000   -0.0000    0.0000   -0.0000   -0.0000   -0.0000    0.0001    0.0000    0.0000   -0.0013
   188 H14    1s        -0.0004    0.0003    0.0003   -0.0005   -0.0002    0.0008   -0.0005   -0.0004    0.0000    0.0275
   189 H14    2s        -0.0003    0.0002    0.0001   -0.0002   -0.0001    0.0000   -0.0004   -0.0003    0.0000    0.0094
   190 H14    2px        0.0000   -0.0000   -0.0000    0.0000   -0.0000   -0.0000    0.0000    0.0000   -0.0000   -0.0020
   191 H14    2py       -0.0001   -0.0000   -0.0000    0.0000    0.0001   -0.0000    0.0000    0.0000    0.0000    0.0012
   192 H14    2pz       -0.0000    0.0000   -0.0000    0.0000    0.0000    0.0000   -0.0001   -0.0000   -0.0000    0.0020
   193 H15    1s        -0.0008    0.0011   -0.0000    0.0003    0.0001   -0.0004   -0.0000   -0.0007    0.0001    0.0332
   194 H15    2s        -0.0005    0.0007   -0.0000    0.0002   -0.0001   -0.0002    0.0000   -0.0003    0.0001   -0.0023
   195 H15    2px       -0.0000    0.0001   -0.0002    0.0000    0.0002    0.0000    0.0000   -0.0001    0.0000    0.0029
   196 H15    2py       -0.0001   -0.0002   -0.0004    0.0000    0.0000   -0.0000   -0.0001   -0.0000    0.0000    0.0045
   197 H15    2pz        0.0000   -0.0000   -0.0000   -0.0000    0.0000    0.0000   -0.0000   -0.0000   -0.0000    0.0011
   198 H16    1s        -0.0002    0.0001   -0.0004   -0.0002   -0.0001   -0.0000   -0.0002    0.0010   -0.0001    0.0139
   199 H16    2s        -0.0001    0.0000   -0.0002   -0.0001   -0.0000   -0.0000   -0.0001    0.0001   -0.0000   -0.0011
   200 H16    2px       -0.0000   -0.0000    0.0000    0.0000    0.0000    0.0000    0.0000   -0.0001    0.0000    0.0001
   201 H16    2py        0.0000   -0.0000    0.0000    0.0000    0.0000    0.0000    0.0000   -0.0001    0.0000   -0.0012
   202 H16    2pz        0.0000   -0.0000    0.0000    0.0000    0.0000    0.0000    0.0000   -0.0000    0.0000   -0.0006
   203 H17    1s         0.0001   -0.0002   -0.0006    0.0000   -0.0002    0.0000   -0.0001    0.0006   -0.0001    0.0114
   204 H17    2s         0.0001   -0.0001   -0.0003    0.0000   -0.0002    0.0000   -0.0001   -0.0001   -0.0000    0.0031
   205 H17    2px       -0.0000    0.0000   -0.0001    0.0000   -0.0000    0.0000    0.0000    0.0000   -0.0000    0.0010
   206 H17    2py       -0.0000    0.0000    0.0000   -0.0000    0.0000   -0.0000    0.0000   -0.0000    0.0000   -0.0004
   207 H17    2pz        0.0000   -0.0000   -0.0000   -0.0000   -0.0000    0.0000   -0.0000   -0.0000   -0.0000    0.0007
   208 H18    1s         0.0006   -0.0003   -0.0006   -0.0001   -0.0003    0.0001   -0.0002    0.0006   -0.0000    0.0035
   209 H18    2s         0.0004   -0.0002   -0.0003   -0.0001   -0.0003    0.0001   -0.0001   -0.0001   -0.0000   -0.0021
   210 H18    2px        0.0000   -0.0000   -0.0001   -0.0000   -0.0001    0.0000   -0.0000    0.0000   -0.0000    0.0004
   211 H18    2py       -0.0000   -0.0000    0.0000   -0.0000    0.0000    0.0000   -0.0000   -0.0000   -0.0000   -0.0004
   212 H18    2pz       -0.0000    0.0000    0.0000    0.0000    0.0000   -0.0000    0.0000   -0.0000    0.0000   -0.0006
 
 
      Orbital                11        12        13        14        15        16        17        18        19        20
      Energy            -1.3647   -1.2481   -1.2248   -1.0175   -0.9662   -0.9319   -0.8159   -0.7756   -0.7123   -0.6927
      Occ. No.           2.0000    2.0000    2.0000    2.0000    2.0000    2.0000    2.0000    2.0000    2.0000    2.0000
 
     1 C1     1s        -0.0390   -0.0055   -0.0085   -0.0128   -0.0092    0.0020    0.0111   -0.0110   -0.0055   -0.0075
     2 C1     2s         0.3499    0.0057    0.1201    0.2282    0.1385   -0.0037   -0.2528    0.2732    0.1559    0.1966
     3 C1     3s        -0.0061   -0.0160   -0.0006   -0.0057   -0.0145    0.0009    0.0024   -0.0007   -0.0080   -0.0116
     4 C1     4s         0.0027   -0.0043    0.0001   -0.0025   -0.0028    0.0014    0.0024   -0.0013   -0.0027   -0.0052
     5 C1     2px       -0.0667   -0.0355    0.1507    0.0608   -0.0239   -0.0754   -0.0762    0.1251   -0.0972   -0.0714
     6 C1     3px        0.0409    0.0032   -0.0411   -0.0567   -0.0363    0.0473   -0.0114   -0.0435    0.0373    0.0370
     7 C1     4px       -0.0211   -0.0075    0.0307    0.0003   -0.0073   -0.0059   -0.0083    0.0063   -0.0083   -0.0037
     8 C1     2py        0.0774   -0.0199    0.0083   -0.0955   -0.1121   -0.0673   -0.0355    0.0733    0.0579   -0.0914
     9 C1     3py       -0.0387   -0.0430    0.0307   -0.0184    0.0377    0.0627    0.0375    0.0171   -0.0302    0.0166
    10 C1     4py        0.0200   -0.0075    0.0016   -0.0194   -0.0141   -0.0032    0.0007    0.0119   -0.0002   -0.0015
    11 C1     2pz       -0.0030   -0.0076    0.0242   -0.0013   -0.0205   -0.0249   -0.0181    0.0312   -0.0125   -0.0266
    12 C1     3pz        0.0018   -0.0039   -0.0058   -0.0081   -0.0017    0.0141    0.0015   -0.0063    0.0031    0.0082
    13 C1     4pz       -0.0009   -0.0026    0.0055   -0.0013   -0.0035   -0.0017   -0.0017    0.0027   -0.0023   -0.0013
    14 C1     3d2-      -0.0288   -0.0075    0.0253    0.0082    0.0034   -0.0045   -0.0033    0.0163    0.0036   -0.0157
    15 C1     3d1-      -0.0008   -0.0010    0.0042    0.0034    0.0034    0.0009   -0.0017    0.0052    0.0027   -0.0017
    16 C1     3d0       -0.0267   -0.0023   -0.0047   -0.0090   -0.0046    0.0019    0.0096   -0.0085   -0.0048   -0.0054
    17 C1     3d1+       0.0073   -0.0002    0.0070    0.0050   -0.0001   -0.0044   -0.0056    0.0054   -0.0003   -0.0002
    18 C1     3d2+       0.0143    0.0006    0.0120    0.0031   -0.0113   -0.0161   -0.0085   -0.0003   -0.0073    0.0010
    19 C3     1s        -0.0081    0.0088   -0.0318    0.0429    0.0011   -0.0278   -0.0021   -0.0022   -0.0045   -0.0062
    20 C3     2s         0.0203   -0.0396    0.1705   -0.3396   -0.0074    0.3256    0.0438    0.1014    0.1101    0.0409
    21 C3     3s        -0.0148    0.0140   -0.0572    0.0811    0.0026   -0.0373   -0.0005    0.0022   -0.0020   -0.0206
    22 C3     4s        -0.0015    0.0001   -0.0122    0.0197    0.0015   -0.0088   -0.0006   -0.0012   -0.0017   -0.0057
    23 C3     2px       -0.0184    0.0375   -0.0476    0.0041   -0.0301    0.0459    0.0595   -0.0263    0.0020    0.2433
    24 C3     3px       -0.0036   -0.0001    0.0100   -0.0258   -0.0196    0.0003   -0.0069   -0.0033    0.0042   -0.0254
    25 C3     4px       -0.0017   -0.0058    0.0077   -0.0175   -0.0072    0.0166    0.0028    0.0035    0.0013    0.0075
    26 C3     2py       -0.0281   -0.0010   -0.1071   -0.0389    0.0376    0.0298   -0.1698    0.1797   -0.1946    0.0459
    27 C3     3py       -0.0138   -0.0174   -0.0185    0.0035   -0.0719   -0.0260   -0.0037   -0.0137    0.0460   -0.0268
    28 C3     4py       -0.0077   -0.0093   -0.0138   -0.0092   -0.0036    0.0021   -0.0119    0.0068    0.0016   -0.0017
    29 C3     2pz       -0.0084    0.0010   -0.0135   -0.0112   -0.0040    0.0154   -0.0148    0.0136   -0.0652    0.0426
    30 C3     3pz       -0.0061   -0.0050   -0.0013   -0.0048   -0.0166   -0.0007   -0.0041   -0.0042    0.0099   -0.0053
    31 C3     4pz       -0.0017   -0.0016   -0.0018   -0.0023   -0.0017   -0.0001   -0.0017   -0.0007   -0.0008    0.0013
    32 C3     3d2-       0.0031    0.0020    0.0151    0.0082   -0.0133   -0.0060    0.0130   -0.0070    0.0222   -0.0086
    33 C3     3d1-       0.0011    0.0004    0.0057   -0.0019   -0.0012    0.0002   -0.0002    0.0010   -0.0018   -0.0053
    34 C3     3d0       -0.0026    0.0035   -0.0110    0.0070    0.0005    0.0007    0.0009    0.0021   -0.0003    0.0180
    35 C3     3d1+       0.0005    0.0001    0.0023    0.0006   -0.0023    0.0001    0.0026   -0.0008    0.0023    0.0005
    36 C3     3d2+      -0.0014   -0.0009   -0.0134    0.0079    0.0034   -0.0037   -0.0050    0.0106    0.0087    0.0049
    37 C4     1s         0.0022    0.0094    0.0046    0.0100   -0.0107    0.0048    0.0169    0.0041    0.0058    0.0008
    38 C4     2s         0.0030   -0.1587    0.0294   -0.2261    0.2179    0.0296   -0.3377   -0.1107   -0.2283   -0.0707
    39 C4     3s         0.0058   -0.0049    0.0187    0.0057   -0.0036    0.0153    0.0283   -0.0041    0.0065   -0.0084
    40 C4     4s         0.0018   -0.0024    0.0053    0.0036   -0.0021    0.0034    0.0089   -0.0023    0.0027   -0.0005
    41 C4     2px       -0.0052    0.1797    0.0401   -0.0116   -0.0313    0.1023    0.0466    0.1487   -0.1891    0.1393
    42 C4     3px        0.0136   -0.0130    0.0075   -0.0088    0.0849   -0.0550    0.0093   -0.0597    0.0659   -0.0098
    43 C4     4px       -0.0009    0.0376    0.0089   -0.0034    0.0035    0.0049    0.0081    0.0052   -0.0117    0.0135
    44 C4     2py       -0.0151    0.0140   -0.0432    0.1417   -0.0841   -0.0562   -0.0182   -0.1518    0.0141    0.0859
    45 C4     3py       -0.0001   -0.0525   -0.0100   -0.0143   -0.0491    0.0648   -0.0255    0.0528   -0.0105   -0.0400
    46 C4     4py       -0.0050   -0.0008   -0.0075    0.0133   -0.0146    0.0033   -0.0061   -0.0061   -0.0049    0.0015
    47 C4     2pz       -0.0019    0.0310   -0.0004    0.0380   -0.0355    0.0114    0.0160   -0.0003   -0.0363    0.0486
    48 C4     3pz        0.0055   -0.0247    0.0021   -0.0044   -0.0007    0.0136   -0.0042    0.0057    0.0099   -0.0172
    49 C4     4pz       -0.0010    0.0054    0.0004    0.0034   -0.0051    0.0040    0.0005    0.0012   -0.0040    0.0019
    50 C4     3d2-      -0.0025    0.0188   -0.0004    0.0122   -0.0028   -0.0130    0.0135    0.0019   -0.0163   -0.0061
    51 C4     3d1-      -0.0011    0.0062    0.0014   -0.0024    0.0006    0.0016   -0.0023    0.0029   -0.0074   -0.0018
    52 C4     3d0        0.0003    0.0083    0.0009    0.0086   -0.0082   -0.0001    0.0109    0.0036    0.0041    0.0002
    53 C4     3d1+      -0.0005   -0.0027   -0.0012   -0.0005    0.0056   -0.0077   -0.0018   -0.0056   -0.0029   -0.0031
    54 C4     3d2+       0.0011   -0.0243   -0.0075    0.0012    0.0125   -0.0147   -0.0012   -0.0111    0.0084    0.0004
    55 C6     1s         0.0003    0.0335    0.0096   -0.0270    0.0378   -0.0314    0.0084   -0.0038    0.0057    0.0077
    56 C6     2s         0.0163   -0.1519   -0.0183    0.1875   -0.3168    0.2901   -0.1251   -0.0091   -0.0351   -0.0727
    57 C6     3s         0.0084    0.0560    0.0279   -0.0455    0.0639   -0.0481    0.0176   -0.0135    0.0148    0.0243
    58 C6     4s         0.0031    0.0085    0.0070   -0.0093    0.0145   -0.0096    0.0059   -0.0028    0.0028    0.0075
    59 C6     2px        0.0054   -0.0532   -0.0104    0.0146    0.0105   -0.0211   -0.0270   -0.1020    0.1432    0.1234
    60 C6     3px        0.0043    0.0142    0.0070   -0.0093    0.0154   -0.0037   -0.0019    0.0054   -0.0154   -0.0162
    61 C6     4px        0.0009    0.0010    0.0027   -0.0060    0.0120   -0.0076    0.0003   -0.0069    0.0063    0.0076
    62 C6     2py       -0.0092    0.0887    0.0099   -0.0206   -0.0015    0.0215   -0.1224   -0.0499   -0.0350   -0.2396
    63 C6     3py       -0.0042   -0.0129   -0.0118    0.0138   -0.0130    0.0001   -0.0016   -0.0007    0.0140    0.0338
    64 C6     4py        0.0000    0.0016   -0.0004    0.0080   -0.0127    0.0124   -0.0103   -0.0034   -0.0013   -0.0110
    65 C6     2pz       -0.0036    0.0282    0.0036   -0.0127    0.0131   -0.0017   -0.0391   -0.0236   -0.0118   -0.0942
    66 C6     3pz       -0.0021   -0.0000   -0.0025   -0.0020    0.0075   -0.0059    0.0053    0.0013    0.0015    0.0148
    67 C6     4pz        0.0001    0.0007   -0.0000    0.0017   -0.0029    0.0031   -0.0038   -0.0019   -0.0002   -0.0037
    68 C6     3d2-      -0.0011    0.0177    0.0034   -0.0043    0.0002    0.0030   -0.0072    0.0017   -0.0088   -0.0238
    69 C6     3d1-       0.0004   -0.0075   -0.0019    0.0037   -0.0028   -0.0000    0.0059    0.0008    0.0054    0.0131
    70 C6     3d0       -0.0005    0.0098    0.0024   -0.0036    0.0014    0.0013   -0.0014    0.0053   -0.0102   -0.0124
    71 C6     3d1+      -0.0003    0.0053    0.0009   -0.0009   -0.0005    0.0012   -0.0022    0.0007   -0.0027   -0.0064
    72 C6     3d2+      -0.0006    0.0098    0.0019   -0.0029    0.0023    0.0003   -0.0133   -0.0088    0.0001   -0.0140
    73 C19    1s        -0.0150   -0.0009   -0.0105   -0.0350   -0.0502   -0.0385   -0.0149    0.0078    0.0005    0.0084
    74 C19    2s        -0.0060    0.0001   -0.0040    0.1742    0.3101    0.2507    0.1022   -0.0379    0.0084   -0.0793
    75 C19    3s        -0.0387   -0.0080   -0.0316   -0.0697   -0.0928   -0.0707   -0.0305    0.0246   -0.0012    0.0142
    76 C19    4s        -0.0031   -0.0037   -0.0045   -0.0142   -0.0201   -0.0153   -0.0076    0.0074   -0.0011    0.0037
    77 C19    2px       -0.0124   -0.0056    0.0188    0.0354    0.0188   -0.0117   -0.0100    0.0299   -0.0644    0.0033
    78 C19    3px       -0.0022   -0.0011   -0.0026    0.0154    0.0079   -0.0023    0.0057    0.0034    0.0049   -0.0053
    79 C19    4px        0.0057    0.0008   -0.0004    0.0003   -0.0057   -0.0077   -0.0002   -0.0013   -0.0051    0.0025
    80 C19    2py        0.0204   -0.0048    0.0151    0.0423    0.0289    0.0002   -0.0673    0.0546    0.0294    0.1762
    81 C19    3py       -0.0084   -0.0082   -0.0038   -0.0175   -0.0251   -0.0134    0.0060   -0.0063   -0.0096   -0.0211
    82 C19    4py        0.0068   -0.0003    0.0008   -0.0072   -0.0169   -0.0151   -0.0113    0.0079    0.0023    0.0080
    83 C19    2pz       -0.0001   -0.0012    0.0046    0.0116    0.0064   -0.0027   -0.0116    0.0133   -0.0098    0.0266
    84 C19    3pz       -0.0022   -0.0006   -0.0016   -0.0003   -0.0021   -0.0027    0.0017   -0.0001   -0.0012   -0.0033
    85 C19    4pz        0.0020    0.0003    0.0002   -0.0014   -0.0033   -0.0037   -0.0015    0.0010   -0.0007    0.0017
    86 C19    3d2-      -0.0027   -0.0007    0.0060    0.0043    0.0017   -0.0024   -0.0034    0.0040    0.0006    0.0036
    87 C19    3d1-       0.0001   -0.0001    0.0015    0.0032    0.0028    0.0008   -0.0019    0.0020   -0.0000    0.0043
    88 C19    3d0        0.0010    0.0000   -0.0005   -0.0054   -0.0056   -0.0025    0.0023   -0.0025    0.0029   -0.0065
    89 C19    3d1+      -0.0018   -0.0004    0.0009    0.0009    0.0007   -0.0001   -0.0001    0.0007   -0.0017   -0.0000
    90 C19    3d2+      -0.0059   -0.0008   -0.0015   -0.0080   -0.0076   -0.0034    0.0059   -0.0044   -0.0048   -0.0147
    91 N2     1s        -0.0194    0.0057   -0.0409   -0.0052    0.0008    0.0011   -0.0019    0.0029    0.0011   -0.0043
    92 N2     2s         0.1312   -0.0677    0.5750    0.0859   -0.1532   -0.2036    0.0389   -0.0979   -0.0260   -0.1306
    93 N2     3s        -0.0490    0.0123   -0.0749   -0.0036   -0.0096   -0.0146   -0.0033    0.0042   -0.0004   -0.0203
    94 N2     4s        -0.0119    0.0039   -0.0253   -0.0002    0.0003   -0.0012   -0.0017    0.0022   -0.0003   -0.0022
    95 N2     2px       -0.0348   -0.0113   -0.0130   -0.0915   -0.0734    0.0674    0.2075   -0.3491   -0.0540    0.0772
    96 N2     3px        0.0107   -0.0112   -0.0085    0.0371   -0.0264   -0.0459   -0.0781    0.0795    0.0097   -0.0155
    97 N2     4px       -0.0054   -0.0033    0.0020   -0.0027   -0.0095   -0.0051   -0.0014   -0.0028   -0.0039   -0.0011
    98 N2     2py        0.0161    0.0025   -0.0301   -0.1398   -0.0510    0.0746    0.0227    0.0329    0.3070   -0.1963
    99 N2     3py        0.0075    0.0173   -0.0463    0.0479   -0.0152   -0.0589   -0.0401   -0.0133   -0.0562    0.0458
   100 N2     4py       -0.0102    0.0011   -0.0135   -0.0026   -0.0029   -0.0045   -0.0078    0.0037   -0.0023    0.0038
   101 N2     2pz       -0.0043   -0.0009   -0.0124   -0.0349   -0.0157    0.0220    0.0397   -0.0557    0.0077   -0.0110
   102 N2     3pz        0.0064   -0.0015   -0.0007    0.0100   -0.0028   -0.0110   -0.0147    0.0132   -0.0010    0.0023
   103 N2     4pz       -0.0017   -0.0009   -0.0004   -0.0011   -0.0014   -0.0007   -0.0007    0.0002   -0.0005    0.0004
   104 N2     3d2-       0.0007   -0.0016    0.0112   -0.0004    0.0020    0.0045   -0.0027    0.0111    0.0148   -0.0050
   105 N2     3d1-      -0.0003   -0.0006    0.0045    0.0002    0.0003    0.0005    0.0003    0.0007    0.0000   -0.0005
   106 N2     3d0       -0.0029    0.0020   -0.0154   -0.0002    0.0034    0.0026   -0.0015    0.0019    0.0002    0.0010
   107 N2     3d1+       0.0020   -0.0006    0.0064    0.0023   -0.0004   -0.0025   -0.0032    0.0049    0.0006   -0.0001
   108 N2     3d2+       0.0057    0.0002    0.0017    0.0087   -0.0011   -0.0089   -0.0098    0.0116   -0.0020    0.0053
   109 N5     1s        -0.0024    0.0403    0.0060   -0.0003   -0.0001   -0.0007    0.0008    0.0025    0.0013    0.0018
   110 N5     2s         0.0371   -0.5853   -0.1199    0.0319    0.1151   -0.1898    0.2174    0.0600    0.1045    0.1587
   111 N5     3s        -0.0027    0.0751    0.0094   -0.0034    0.0174   -0.0199    0.0114    0.0081    0.0105    0.0133
   112 N5     4s        -0.0009    0.0252    0.0043   -0.0026    0.0042   -0.0023   -0.0001    0.0009    0.0002    0.0009
   113 N5     2px        0.0057   -0.0335    0.0156   -0.0843    0.1524   -0.0753   -0.2722   -0.2842    0.1259   -0.1900
   114 N5     3px        0.0155    0.0096    0.0217    0.0234   -0.0396    0.0427    0.0706    0.0496   -0.0187    0.0457
   115 N5     4px        0.0029    0.0023    0.0052   -0.0056    0.0036    0.0022    0.0007    0.0006   -0.0025    0.0051
   116 N5     2py       -0.0180    0.0096   -0.0110    0.0961   -0.1015    0.0997   -0.1376   -0.1820    0.1576    0.2480
   117 N5     3py       -0.0088    0.0316   -0.0082   -0.0393    0.0819   -0.0569    0.0425    0.0376   -0.0421   -0.0425
   118 N5     4py       -0.0008    0.0060   -0.0030   -0.0022    0.0079   -0.0063    0.0011    0.0035   -0.0029   -0.0047
   119 N5     2pz       -0.0023   -0.0245   -0.0077    0.0165   -0.0054    0.0094   -0.0700   -0.0814    0.0585    0.0369
   120 N5     3pz       -0.0017    0.0231   -0.0003   -0.0053    0.0159   -0.0139    0.0144    0.0126   -0.0077   -0.0013
   121 N5     4pz       -0.0000    0.0027   -0.0004   -0.0009    0.0029   -0.0022   -0.0005   -0.0001   -0.0001   -0.0001
   122 N5     3d2-       0.0001    0.0083   -0.0000   -0.0014    0.0043   -0.0083    0.0075    0.0022   -0.0063   -0.0055
   123 N5     3d1-       0.0005   -0.0052   -0.0015    0.0040   -0.0042    0.0014    0.0030    0.0004    0.0017    0.0061
   124 N5     3d0       -0.0014    0.0152    0.0030   -0.0001   -0.0019    0.0036   -0.0023   -0.0010   -0.0009    0.0002
   125 N5     3d1+       0.0002   -0.0038   -0.0008   -0.0024    0.0057   -0.0056   -0.0041   -0.0060    0.0015   -0.0058
   126 N5     3d2+      -0.0007   -0.0061   -0.0007   -0.0057    0.0109   -0.0068   -0.0146   -0.0137    0.0033   -0.0106
   127 O7     1s        -0.0227   -0.0020    0.0026   -0.0031   -0.0030   -0.0016    0.0066   -0.0075   -0.0123   -0.0088
   128 O7     2s         0.6884    0.1051   -0.3122   -0.1719   -0.1455   -0.0177    0.1576   -0.2367   -0.2413   -0.1455
   129 O7     3s        -0.0261    0.0019   -0.0136   -0.0183   -0.0155   -0.0100    0.0218   -0.0276   -0.0393   -0.0265
   130 O7     4s        -0.0133    0.0007   -0.0010   -0.0033   -0.0026   -0.0034    0.0034   -0.0055   -0.0077   -0.0050
   131 O7     2px        0.1190    0.0157   -0.0206    0.0102   -0.0015   -0.0269   -0.1127    0.1275    0.2003    0.0993
   132 O7     3px       -0.0351    0.0029   -0.0032   -0.0061   -0.0039   -0.0081    0.0116   -0.0156   -0.0190   -0.0097
   133 O7     4px       -0.0036    0.0023   -0.0000   -0.0001    0.0008   -0.0007   -0.0008   -0.0039   -0.0010   -0.0005
   134 O7     2py       -0.0654   -0.0256    0.0296   -0.0134   -0.0241   -0.0678    0.0950    0.0295   -0.1869   -0.1663
   135 O7     3py        0.0259    0.0041   -0.0061    0.0124    0.0130   -0.0135   -0.0067    0.0055    0.0160    0.0210
   136 O7     4py       -0.0011    0.0009   -0.0025    0.0017    0.0026   -0.0019   -0.0003    0.0005    0.0045    0.0045
   137 O7     2pz        0.0134   -0.0023   -0.0018   -0.0034   -0.0047   -0.0115   -0.0038    0.0266    0.0106   -0.0057
   138 O7     3pz       -0.0022   -0.0014   -0.0008    0.0002   -0.0003   -0.0013    0.0012   -0.0017   -0.0014    0.0008
   139 O7     4pz       -0.0007   -0.0003   -0.0000    0.0003   -0.0000    0.0003   -0.0004   -0.0006    0.0006    0.0005
   140 O7     3d2-      -0.0157   -0.0030    0.0056   -0.0001   -0.0007   -0.0031    0.0065   -0.0005   -0.0124   -0.0098
   141 O7     3d1-      -0.0009   -0.0006   -0.0004   -0.0003    0.0001   -0.0002    0.0019   -0.0002   -0.0018   -0.0010
   142 O7     3d0       -0.0110   -0.0010    0.0048    0.0013    0.0006    0.0001    0.0016   -0.0022   -0.0056   -0.0034
   143 O7     3d1+       0.0025   -0.0000   -0.0006   -0.0005   -0.0009   -0.0011   -0.0007    0.0018    0.0010   -0.0004
   144 O7     3d2+       0.0058    0.0013    0.0017    0.0001   -0.0030   -0.0039   -0.0067    0.0060    0.0053   -0.0006
   145 O8     1s         0.0009   -0.0023   -0.0001    0.0027   -0.0033   -0.0018    0.0133    0.0053    0.0179   -0.0076
   146 O8     2s        -0.0629    0.3056   -0.0084    0.1759   -0.1274   -0.0748    0.3323    0.1187    0.3021   -0.1350
   147 O8     3s        -0.0012    0.0105   -0.0007    0.0136   -0.0123   -0.0088    0.0427    0.0152    0.0511   -0.0221
   148 O8     4s         0.0001    0.0005   -0.0001    0.0022   -0.0017   -0.0023    0.0081    0.0026    0.0103   -0.0048
   149 O8     2px        0.0089   -0.0066    0.0094   -0.0013   -0.0261    0.0249    0.1425    0.1305    0.1631   -0.0922
   150 O8     3px        0.0022   -0.0054    0.0018    0.0011    0.0055    0.0020   -0.0201   -0.0156   -0.0172    0.0050
   151 O8     4px        0.0010   -0.0010    0.0002    0.0010    0.0021   -0.0004   -0.0016   -0.0020   -0.0022    0.0002
   152 O8     2py        0.0092   -0.0357   -0.0037    0.0346   -0.0194   -0.0387    0.1412    0.0166    0.2977   -0.1408
   153 O8     3py       -0.0006    0.0030    0.0019   -0.0121    0.0114    0.0008   -0.0216   -0.0011   -0.0320    0.0163
   154 O8     4py       -0.0002    0.0025    0.0004   -0.0005   -0.0001    0.0004   -0.0019    0.0005   -0.0041    0.0033
   155 O8     2pz        0.0034   -0.0102   -0.0005    0.0094   -0.0107   -0.0065    0.0677    0.0324    0.1105   -0.0516
   156 O8     3pz       -0.0010    0.0019   -0.0007   -0.0042    0.0043   -0.0011   -0.0098   -0.0039   -0.0107    0.0063
[...]
AIVX     1  Mu1.0001  In1.028 Se1.047               0.10610561     -0.00030116      0.00061918     -0.00000019
AIVX     1  Mu1.0001  In1.029 Se1.047               0.09984684      0.00042604     -0.00106509     -0.00000045
AIVX     1  Mu1.0001  In1.021 Se1.048               0.28498934      0.00131281     -0.00227132     -0.00000298
AIVX     1  Mu1.0001  In1.022 Se1.048               0.18507883      0.00112742     -0.00203460     -0.00000229
AIVX     1  Mu1.0001  In1.023 Se1.048               0.26807027     -0.00102808      0.00203609     -0.00000209
AIVX     1  Mu1.0001  In1.024 Se1.048               0.27211249      0.00001013      0.00039269      0.00000000
AIVX     1  Mu1.0001  In1.025 Se1.048               0.24073471     -0.00324101      0.00559516     -0.00001813
AIVX     1  Mu1.0001  In1.026 Se1.048               0.10457651      0.00102831     -0.00243446     -0.00000250
AIVX     1  Mu1.0001  In1.027 Se1.048               0.23516738      0.00193555     -0.00315225     -0.00000610
AIVX     1  Mu1.0001  In1.028 Se1.048               0.12648266      0.00031988     -0.00118683     -0.00000038
AIVX     1  Mu1.0001  In1.029 Se1.048               0.12022389      0.00014226     -0.00020611     -0.00000003
AIVX     1  Mu1.0001  In1.021 Se1.049               0.29650707     -0.00075783      0.00115099     -0.00000087
AIVX     1  Mu1.0001  In1.022 Se1.049               0.19659655      0.00098301     -0.00191486     -0.00000188
AIVX     1  Mu1.0001  In1.023 Se1.049               0.27958799     -0.00021442      0.00032986     -0.00000007
AIVX     1  Mu1.0001  In1.024 Se1.049               0.28363021      0.00073323     -0.00160000     -0.00000117
AIVX     1  Mu1.0001  In1.025 Se1.049               0.25225243      0.00204833     -0.00348097     -0.00000713
AIVX     1  Mu1.0001  In1.026 Se1.049               0.11609423     -0.00226047      0.00516664     -0.00001168
AIVX     1  Mu1.0001  In1.027 Se1.049               0.24668511     -0.00109467      0.00173616     -0.00000190
AIVX     1  Mu1.0001  In1.028 Se1.049               0.13800038      0.00001716     -0.00006343     -0.00000000
AIVX     1  Mu1.0001  In1.029 Se1.049               0.13174161     -0.00055861      0.00109187     -0.00000061
AIVX     1  Mu1.0001  In1.022 Se1.050               0.20707736     -0.00043498      0.00071239     -0.00000031
AIVX     1  Mu1.0001  In1.023 Se1.050               0.29006880     -0.00140722      0.00288420     -0.00000406
AIVX     1  Mu1.0001  In1.024 Se1.050               0.29411102     -0.00083370      0.00112808     -0.00000094
AIVX     1  Mu1.0001  In1.025 Se1.050               0.26273324      0.00117979     -0.00200582     -0.00000237
AIVX     1  Mu1.0001  In1.026 Se1.050               0.12657504     -0.00017834      0.00027504     -0.00000005
AIVX     1  Mu1.0001  In1.027 Se1.050               0.25716591     -0.00065504      0.00116629     -0.00000076
AIVX     1  Mu1.0001  In1.028 Se1.050               0.14848119      0.00029067     -0.00117216     -0.00000034
AIVX     1  Mu1.0001  In1.029 Se1.050               0.14222242      0.00009036     -0.00016125     -0.00000001
AIVX     1  Mu1.0001  In1.022 Se1.051               0.21938547     -0.00015983      0.00021532     -0.00000003
AIVX     1  Mu1.0001  In1.025 Se1.051               0.27504135     -0.00120021      0.00173636     -0.00000208
AIVX     1  Mu1.0001  In1.026 Se1.051               0.13888315      0.00016637      0.00005712      0.00000001
AIVX     1  Mu1.0001  In1.027 Se1.051               0.26947402     -0.00024972     -0.00008830      0.00000002
AIVX     1  Mu1.0001  In1.028 Se1.051               0.16078930     -0.00080932      0.00208391     -0.00000169
AIVX     1  Mu1.0001  In1.029 Se1.051               0.15453053     -0.00021453      0.00042988     -0.00000009
AIVX     1  Mu1.0001  In1.022 Se1.052               0.25339353     -0.00018951     -0.00036084      0.00000007
AIVX     1  Mu1.0001  In1.026 Se1.052               0.17289121     -0.00027038      0.00068326     -0.00000018
AIVX     1  Mu1.0001  In1.028 Se1.052               0.19479736      0.00012881     -0.00020823     -0.00000003
AIVX     1  Mu1.0001  In1.029 Se1.052               0.18853859      0.00146618     -0.00290871     -0.00000426
AIVX     1  Mu1.0001  In1.022 Se1.053               0.24482961     -0.00203536      0.00340204     -0.00000692
AIVX     1  Mu1.0001  In1.026 Se1.053               0.16432729      0.00172888     -0.00268720     -0.00000465
AIVX     1  Mu1.0001  In1.027 Se1.053               0.29491816      0.00159313     -0.00362429     -0.00000577
AIVX     1  Mu1.0001  In1.028 Se1.053               0.18623344      0.00000198      0.00005480      0.00000000
AIVX     1  Mu1.0001  In1.029 Se1.053               0.17997467      0.00047692     -0.00083278     -0.00000040
AIVX     1  Mu1.0001  In1.022 Se1.054               0.28786922      0.00267177     -0.00471485     -0.00001260
AIVX     1  Mu1.0001  In1.026 Se1.054               0.20736689      0.00006473      0.00022596      0.00000001
AIVX     1  Mu1.0001  In1.028 Se1.054               0.22927305     -0.00157908      0.00303402     -0.00000479
AIVX     1  Mu1.0001  In1.029 Se1.054               0.22301428      0.00013071     -0.00021883     -0.00000003
AIVX     1  Mu1.0001  In1.022 Se1.055               0.28533049     -0.00142366      0.00245770     -0.00000350
AIVX     1  Mu1.0001  In1.026 Se1.055               0.20482817     -0.00000680      0.00037690     -0.00000000
AIVX     1  Mu1.0001  In1.028 Se1.055               0.22673432     -0.00079435      0.00155859     -0.00000124
AIVX     1  Mu1.0001  In1.029 Se1.055               0.22047555      0.00054962     -0.00094204     -0.00000052
AIVX     1  Mu1.0001  In1.026 Se1.056               0.23240746     -0.00069946      0.00109317     -0.00000076
AIVX     1  Mu1.0001  In1.028 Se1.056               0.25431361     -0.00093935      0.00189477     -0.00000178
AIVX     1  Mu1.0001  In1.029 Se1.056               0.24805485      0.00046510     -0.00089390     -0.00000042
AIVX     1  Mu1.0001  In1.026 Se1.057               0.23675065      0.00138399     -0.00289759     -0.00000401
AIVX     1  Mu1.0001  In1.028 Se1.057               0.25865680     -0.00025081      0.00059376     -0.00000015
AIVX     1  Mu1.0001  In1.029 Se1.057               0.25239803      0.00019065     -0.00020901     -0.00000004
AIVX     1  Mu1.0001  In1.026 Se1.058               0.22496717      0.00015525     -0.00006956     -0.00000001
AIVX     1  Mu1.0001  In1.028 Se1.058               0.24687333      0.00114675     -0.00211906     -0.00000243
AIVX     1  Mu1.0001  In1.029 Se1.058               0.24061456      0.00085041     -0.00143178     -0.00000122
AIVX     1  Mu1.0001  In1.026 Se1.059               0.24742288     -0.00017235      0.00042692     -0.00000007
AIVX     1  Mu1.0001  In1.028 Se1.059               0.26932903     -0.00019615      0.00044462     -0.00000009
AIVX     1  Mu1.0001  In1.029 Se1.059               0.26307026     -0.00120418      0.00219454     -0.00000264
AIVX     1  Mu1.0001  In1.026 Se1.060               0.27674089      0.00254967     -0.00348853     -0.00000889
AIVX     1  Mu1.0001  In1.028 Se1.060               0.29864704     -0.00036594      0.00059199     -0.00000022
AIVX     1  Mu1.0001  In1.029 Se1.060               0.29238827      0.00033574     -0.00056003     -0.00000019
AIVX     1  Mu1.0001  In1.026 Se1.061               0.29558950     -0.00391097      0.00669761     -0.00002619
AIVX     1  Mu1.0001  In1.026 Se1.063               0.28672658     -0.00055259      0.00114951     -0.00000064
--
 
   (Skipping property calculation,
    use PROP keyword to activate)
--
 
  Total CASPT2 energies:
::    CASPT2 Root  1     Total energy:   -455.37132362
::    CASPT2 Root  2     Total energy:   -455.15424873
::    CASPT2 Root  3     Total energy:   -455.15509436
::    CASPT2 Root  4     Total energy:   -455.12758245
::    CASPT2 Root  5     Total energy:   -455.09882507
::    CASPT2 Root  6     Total energy:   -455.12044228
::    CASPT2 Root  7     Total energy:   -455.09150008
 
++ Multi-State CASPT2 section:
********************************************************************************
  MULTI-STATE CASPT2 SECTION
--------------------------------------------------------------------------------
 
  Output diagonal energies have been shifted. Add   -455.000000000000     
 
  Effective Hamiltonian matrix (Symmetric):
 
                1               2               3               4               5
   1        -0.37132362
   2        -0.00032170     -0.15424873
   3        -0.00008832      0.00109695     -0.15509436
   4        -0.01423006     -0.00239269      0.00013461     -0.12758245
   5         0.00522337      0.00031339     -0.00007483      0.01295748     -0.09882507
   6        -0.01882955     -0.00133965     -0.00072210     -0.01133444     -0.00017984
   7        -0.01137043     -0.00075232      0.00038724      0.00193055     -0.00646984
 
                6               7
   6        -0.12044228
   7        -0.01793030     -0.09150008
 
       Total MS-CASPT2 energies:
::    MS-CASPT2 Root  1     Total energy:   -455.37432958
::    MS-CASPT2 Root  2     Total energy:   -455.15597441
::    MS-CASPT2 Root  3     Total energy:   -455.15382256
::    MS-CASPT2 Root  4     Total energy:   -455.13666564
::    MS-CASPT2 Root  5     Total energy:   -455.12405954
::    MS-CASPT2 Root  6     Total energy:   -455.09332842
::    MS-CASPT2 Root  7     Total energy:   -455.08083644
 
       Eigenvectors:
            0.99371903      0.00961250     -0.01658139     -0.10145033     -0.03934391
            0.00278560     -0.62707434      0.76315784     -0.15580701     -0.00237992
            0.00052561      0.77443045      0.63211143     -0.02092054     -0.01284136
            0.06173003     -0.07234813      0.10202082      0.77664910     -0.44692619
           -0.02065878      0.01809844     -0.02337031     -0.22724481      0.35980288
            0.07957157     -0.03370059      0.08004799      0.54339831      0.67793821
            0.04410718     -0.01566274      0.01970315      0.12201879      0.45769000
 
            0.00789407     -0.01589732
           -0.00757356     -0.00461357
            0.00346391      0.00881930
            0.41639317      0.06509055
            0.86377157     -0.26739454
           -0.25990649     -0.40458823
            0.11327993      0.87190593
 
--
 
  THE ORIGINAL CI ARRAYS ARE NOW MIXED AS LINEAR
  COMBINATIONS, GIVEN BY THE EIGENVECTORS.
  A NEW JOBIPH FILE NAMED 'JOBMIX' IS PREPARED.
********************************************************************************
 
++ Mixed CI coefficients:
  The CI coefficients for the MIXED state nr.   1
--------------------------------------------------------------------------------
 CI COEFFICIENTS LARGER THAN  0.50D-01
  Occupation of active orbitals, and spin coupling
  of open shells. (u,d: Spin up or down).
  SGUGA info is (Midvert:IsyUp:UpperWalk/LowerWalk)
        Conf  SGUGA info        Occupation    Coefficient         Weight
           1  ( 1:1:   1/   1)   22222200        0.967882       0.936796
           4  ( 1:1:   4/   1)   22222020       -0.114685       0.013153
          17  ( 1:1:  17/   1)   22220202       -0.079287       0.006286
          61  ( 2:1:   1/   3)   2u2222d0       -0.092544       0.008564
          84  ( 2:1:   4/   4)   u222220d        0.124010       0.015379
         171  ( 3:1:   1/   8)   20222220       -0.079544       0.006327
         195  ( 3:1:   5/  10)   02222202       -0.076770       0.005894
 
  The CI coefficients for the MIXED state nr.   2
--------------------------------------------------------------------------------
 CI COEFFICIENTS LARGER THAN  0.50D-01
  Occupation of active orbitals, and spin coupling
  of open shells. (u,d: Spin up or down).
  SGUGA info is (Midvert:IsyUp:UpperWalk/LowerWalk)
        Conf  SGUGA info        Occupation    Coefficient         Weight
           2  ( 1:1:   2/   1)   22222ud0       -0.082997       0.006889
           8  ( 1:1:   8/   1)   2222u20d       -0.055232       0.003051
          21  ( 2:1:   1/   1)   222u22d0        0.560276       0.313909
          22  ( 2:1:   2/   1)   222u2d20        0.077680       0.006034
          24  ( 2:1:   4/   1)   222u220d        0.160627       0.025801
          44  ( 2:1:   4/   2)   22u2220d       -0.751835       0.565255
          45  ( 2:1:   5/   2)   22u22dud        0.060030       0.003604
          47  ( 2:1:   7/   2)   22u22udd        0.096582       0.009328
          49  ( 2:1:   9/   2)   22u2202d        0.068769       0.004729
          54  ( 2:1:  14/   2)   22u2d202       -0.121140       0.014675
         121  ( 3:1:   1/   3)   2u2d2220        0.091264       0.008329
         165  ( 3:1:   5/   7)   u2d22202        0.089469       0.008005
         213  ( 4:1:   1/   3)   u22u22dd        0.064971       0.004221
         219  ( 4:1:   1/   4)   2uu222dd       -0.053423       0.002854
         293  ( 5:1:   1/  15)   20u2222d       -0.072975       0.005325
 
  The CI coefficients for the MIXED state nr.   3
--------------------------------------------------------------------------------
 CI COEFFICIENTS LARGER THAN  0.50D-01
  Occupation of active orbitals, and spin coupling
  of open shells. (u,d: Spin up or down).
  SGUGA info is (Midvert:IsyUp:UpperWalk/LowerWalk)
        Conf  SGUGA info        Occupation    Coefficient         Weight
           2  ( 1:1:   2/   1)   22222ud0        0.137045       0.018781
           7  ( 1:1:   7/   1)   22222u0d        0.075291       0.005669
          21  ( 2:1:   1/   1)   222u22d0       -0.747459       0.558695
          22  ( 2:1:   2/   1)   222u2d20       -0.104003       0.010817
          38  ( 2:1:  18/   1)   222u02d2       -0.061612       0.003796
          44  ( 2:1:   4/   2)   22u2220d       -0.575559       0.331269
          47  ( 2:1:   7/   2)   22u22udd        0.073810       0.005448
          49  ( 2:1:   9/   2)   22u2202d        0.052698       0.002777
          54  ( 2:1:  14/   2)   22u2d202       -0.091591       0.008389
         121  ( 3:1:   1/   3)   2u2d2220       -0.120495       0.014519
         132  ( 3:1:   2/   4)   u22d22ud       -0.050571       0.002557
         165  ( 3:1:   5/   7)   u2d22202        0.068386       0.004677
         213  ( 4:1:   1/   3)   u22u22dd       -0.085391       0.007292
         270  ( 5:1:   2/   9)   022u22d2        0.060490       0.003659
         293  ( 5:1:   1/  15)   20u2222d       -0.055794       0.003113
 
  The CI coefficients for the MIXED state nr.   4
--------------------------------------------------------------------------------
 CI COEFFICIENTS LARGER THAN  0.50D-01
  Occupation of active orbitals, and spin coupling
  of open shells. (u,d: Spin up or down).
  SGUGA info is (Midvert:IsyUp:UpperWalk/LowerWalk)
        Conf  SGUGA info        Occupation    Coefficient         Weight
           2  ( 1:1:   2/   1)   22222ud0        0.779930       0.608290
           4  ( 1:1:   4/   1)   22222020       -0.142377       0.020271
           7  ( 1:1:   7/   1)   22222u0d        0.197004       0.038811
           8  ( 1:1:   8/   1)   2222u20d        0.431526       0.186215
           9  ( 1:1:   9/   1)   222220ud       -0.059667       0.003560
          19  ( 1:1:  19/   1)   22220ud2       -0.061416       0.003772
          21  ( 2:1:   1/   1)   222u22d0        0.182888       0.033448
          61  ( 2:1:   1/   3)   2u2222d0       -0.050369       0.002537
          62  ( 2:1:   2/   3)   2u222d20        0.214413       0.045973
          85  ( 2:1:   5/   4)   u2222dud        0.054287       0.002947
          87  ( 2:1:   7/   4)   u2222udd        0.092690       0.008591
          94  ( 2:1:  14/   4)   u222d202       -0.100285       0.010057
         171  ( 3:1:   1/   8)   20222220        0.081659       0.006668
         196  ( 3:1:   6/  10)   02222ud2       -0.066013       0.004358
 
  The CI coefficients for the MIXED state nr.   5
--------------------------------------------------------------------------------
 CI COEFFICIENTS LARGER THAN  0.50D-01
  Occupation of active orbitals, and spin coupling
  of open shells. (u,d: Spin up or down).
  SGUGA info is (Midvert:IsyUp:UpperWalk/LowerWalk)
        Conf  SGUGA info        Occupation    Coefficient         Weight
           2  ( 1:1:   2/   1)   22222ud0        0.452652       0.204894
           4  ( 1:1:   4/   1)   22222020       -0.054336       0.002952
           7  ( 1:1:   7/   1)   22222u0d       -0.061885       0.003830
           8  ( 1:1:   8/   1)   2222u20d       -0.812692       0.660468
          10  ( 1:1:  10/   1)   2222udud        0.055308       0.003059
          12  ( 1:1:  12/   1)   2222uudd        0.077346       0.005982
          13  ( 1:1:  13/   1)   2222u02d        0.088068       0.007756
          24  ( 2:1:   4/   1)   222u220d        0.138418       0.019159
          62  ( 2:1:   2/   3)   2u222d20        0.130512       0.017033
          68  ( 2:1:   8/   3)   2u22u2dd       -0.069342       0.004808
          94  ( 2:1:  14/   4)   u222d202        0.191360       0.036618
         174  ( 3:1:   4/   8)   2022u22d       -0.073563       0.005411
 
  The CI coefficients for the MIXED state nr.   6
--------------------------------------------------------------------------------
 CI COEFFICIENTS LARGER THAN  0.50D-01
  Occupation of active orbitals, and spin coupling
  of open shells. (u,d: Spin up or down).
  SGUGA info is (Midvert:IsyUp:UpperWalk/LowerWalk)
        Conf  SGUGA info        Occupation    Coefficient         Weight
           2  ( 1:1:   2/   1)   22222ud0       -0.132134       0.017459
           7  ( 1:1:   7/   1)   22222u0d        0.895803       0.802463
           8  ( 1:1:   8/   1)   2222u20d       -0.179503       0.032221
          10  ( 1:1:  10/   1)   2222udud       -0.052073       0.002712
          24  ( 2:1:   4/   1)   222u220d       -0.226273       0.051199
          27  ( 2:1:   7/   1)   222u2udd       -0.066884       0.004473
          65  ( 2:1:   5/   3)   2u222dud        0.149108       0.022233
          67  ( 2:1:   7/   3)   2u222udd        0.169370       0.028686
          93  ( 2:1:  13/   4)   u2222d02       -0.074658       0.005574
         173  ( 3:1:   3/   8)   20222u2d        0.121427       0.014745
 
  The CI coefficients for the MIXED state nr.   7
--------------------------------------------------------------------------------
 CI COEFFICIENTS LARGER THAN  0.50D-01
  Occupation of active orbitals, and spin coupling
  of open shells. (u,d: Spin up or down).
  SGUGA info is (Midvert:IsyUp:UpperWalk/LowerWalk)
        Conf  SGUGA info        Occupation    Coefficient         Weight
           2  ( 1:1:   2/   1)   22222ud0        0.079533       0.006325
           7  ( 1:1:   7/   1)   22222u0d       -0.238659       0.056958
           8  ( 1:1:   8/   1)   2222u20d       -0.089827       0.008069
          21  ( 2:1:   1/   1)   222u22d0        0.125147       0.015662
          24  ( 2:1:   4/   1)   222u220d       -0.874119       0.764083
          25  ( 2:1:   5/   1)   222u2dud       -0.177672       0.031567
          27  ( 2:1:   7/   1)   222u2udd       -0.263370       0.069364
          44  ( 2:1:   4/   2)   22u2220d       -0.105177       0.011062
         135  ( 3:1:   5/   4)   u22d2202        0.070838       0.005018
         208  ( 4:1:   2/   2)   2u2u2d2d        0.070324       0.004946
         261  ( 5:1:   1/   7)   202u222d       -0.078908       0.006226
 
--
 
--- Stop Module: caspt2 at Tue Jun 10 17:24:03 2025 /rc=_RC_ALL_IS_WELL_ ---
*** files: xmldump
    saved to directory /home/pcaah4/diamide_project
--- Module caspt2 spent 6 minutes 55 seconds ---

.##################.
.# Happy landing! #.
.##################.

    Timing: Wall=688.56 User=600.50 System=78.27
******************************************************
*** WorkDir at /srv/COMMUNAL_SCRATCH/12382 cleaned ***
******************************************************
