   This run of MOLCAS is using the pymolcas driver

                             OPE
                             OPE          NMOL  CASOP  ENMOLC A   SO
                 OPE        NMOLC        AS  OP EN  MO LC     AS  OP
                OPENM       OL CA        SO  PE NM  OL CA     SOP EN
                OP EN      MO   LC       AS  OP ENMOL  CASO   PENMOL
                OP  EN     MO   LC       AS  OP EN     MO     LC ASO
               OP   E  NMOL  C  AS       OP  EN MO     LC     AS  OP
               OP  E   NMO   LC AS        OPEN  MO     LCASOP EN   M
               O  PEN   MO  LCA  SO
            OPE   NMO   L   CAS    OP
        OPENMOL  CASOP     ENMOL   CASOPE
     OPENMOLCA   SOPENMOLCASOPEN   MOLCASOPE
    OPENMOLCAS   OP           EN   MOL    CAS
    OPENMOLCAS       OP  ENM        O     LCA
    OPENMOLCAS    OPEN  MOLCASO     P  E  NMO
    OPENMOLCAS     OP               E  N  MOL
    OPENMOLCA   SO           PENM   O  L  CAS    OPEN    MO    LCAS
    OPENMOLCA   SOP           ENM   O  L  CAS   OP  EN  MOLC  AS   O
    OPENMOLCA   SOPE           NM      O  LCA   S      OP  EN MO
    OPENMOLC                AS         O  PEN   M      OL  CA  SOPE
    OPENMO        LCASOPE  NMOL        C  ASO   P      ENMOLC     AS
    OPE     NMO      LCA  SO     P     E   NM   OL  CA SO  PE N   MO
          OPENMOLCA            SOPE   NMO        LCAS  O    P  ENMO
     OPENMOLCASOPENMOLCASOPENMOLCASOPENMOLCA
        OPENMOLCASOPENMOLCASOPENMOLCASOPE
            OPENMOLCASOPENMOLCASOPENM
               OPENMOLCASOPENMOLCA        version: v23.06
                   OPENMOLCASO
                       OPE                tag:

 OpenMolcas is free software; you can redistribute it and/or modify it
 under the terms of the GNU Lesser General Public License version 2.1.
 OpenMolcas is distributed in the hope that it will be useful, but it
 is provided "as is" and without any express or implied warranties.
 For more details see the full text of the license in the file
 LICENSE or in <http://www.gnu.org/licenses/>.

                 Copyright (C) The OpenMolcas Authors
           For the author list and the recommended citation,
                   consult the file CONTRIBUTORS.md

           *************************************************
           * pymolcas version py2.24                       *
           *   build 4567b286dd94b1984b333a4ddf893180      *
           *   (after the EMIL interpreter by V. Veryazov) *
           *************************************************

configuration info
------------------
Host name: loginchem01.nottingham.ac.uk (Linux)
C Compiler ID: Intel
C flags: -std=gnu99 -gcc-sys -qopenmp
Fortran Compiler ID: Intel
Fortran flags: -fpp -i8 -heap-arrays -qopenmp
Definitions: _MOLCAS_;_I8_;_LINUX_
Parallel: OFF (GA=OFF)


   ----------------------------------------------------------------------------------------------------
  |
  |              Project: orca_geometry_optimisation_285_145_BP86_def2-SVP_def2J_scf_cas1_ras12i11_cas8
  |       Submitted from: /home/pcaah4/diamide_project
  |         Scratch area: /srv/COMMUNAL_SCRATCH/12438
  |      Save outputs to: /home/pcaah4/diamide_project
  |               Molcas: /software/chemistry/openmolcas/openmolcas-23.06-openmp
  |
  | Scratch area is empty
  |
  |       MOLCAS_DRIVER = /software/chemistry/openmolcas/openmolcas-23.06-openmp/sbin/pymolcas
  | MOLCAS_KEEP_WORKDIR = NO
  |       MOLCAS_NPROCS = 1
  |       MOLCAS_SOURCE = /software/chemistry/openmolcas/openmolcas-23.06-openmp
  |    MOLCAS_STRUCTURE = 0
  |
   ----------------------------------------------------------------------------------------------------

++ ---------   Input file   ---------

&SEWARD
TITLE
orca_geometry_optimisation_285_145_BP86_def2-SVP_def2J_scf_cas1_ras12i11
MULTIPOLES
2
SDIPOLE
ANGMOM
0 0 0
BASIS SET
C.ANO-S...4S3P1D.
C1            0.036358   -0.017533    0.207598 /Angstrom
C3            2.110128    1.252587    0.020952 /Angstrom
C4            1.990646    1.839394   -1.403170 /Angstrom
C6            1.807360    3.930619   -2.711143 /Angstrom
C19          -0.622570   -1.375161    0.000269 /Angstrom
END OF BASIS
BASIS SET
N.ANO-S...4S3P1D.
N2            1.419471   -0.016123    0.140292 /Angstrom
N5            1.904606    3.204834   -1.458325 /Angstrom
END OF BASIS
BASIS SET
O.ANO-S...4S3P1D.
O7           -0.603663    1.007214    0.435362 /Angstrom
O8            2.025957    1.109266   -2.393180 /Angstrom
END OF BASIS
BASIS SET
H.ANO-S...2S1P.
H9           -1.006752   -1.431218   -1.039573 /Angstrom
H10          -1.491841   -1.456753    0.679409 /Angstrom
H11           0.062963   -2.228909    0.168758 /Angstrom
H12           1.858917   -0.806964   -0.336629 /Angstrom
H13           1.689768    1.945950    0.776872 /Angstrom
H14           3.187358    1.104448    0.246285 /Angstrom
H15           1.759501    3.711443   -0.583754 /Angstrom
H16           1.929461    3.192196   -3.526154 /Angstrom
H17           0.818444    4.424314   -2.825949 /Angstrom
H18           2.600387    4.703436   -2.798290 /Angstrom
END OF BASIS
END OF INPUT

&RASSCF
TITLE
orca_geometry_optimisation_285_145_BP86_def2-SVP_def2J_scf_cas1_ras12i11
LUMORB
SPIN
1
SYMMETRY
1
NACTEL
12  0  0
INACTIVE
29
DELETED  ! delete Rydberg orbitals from an initial CAS(12,11) if done
3
FROZEN
0
RAS2
8
ITERATIONS
64 25
CIROOT
7 7
1 2 3 4 5 6 7
1 1 1 1 1 1 1
LEVSHFT
0.3
CIMX
20
FILEorb = /home/pcaah4/diamide_project/cas/ras12i11/ras_orb/orca_geometry_optimisation_285_145_BP86_def2-SVP_def2J_scf_cas1_ras12i11.RasOrb
ALTEr
2
 1 36 38
 1 37 39
END OF INPUT

&RASSI
NROF JOBIPH
    1 7
    1 2 3 5 4 6 7
TOFILE
TRDI
TDMN
1.0D-6
END OF INPUT

&CASPT2
TITLE
orca_geometry_optimisation_285_145_BP86_def2-SVP_def2J_scf_cas1_ras12i11
MULTISTATE
7 1 2 3 4 5 6 7
SHIFT
0.35
MAXITER
50
END OF INPUT

-- ----------------------------------

--- Start Module: seward at Tue Jun 10 19:45:27 2025 ---
 
()()()()()()()()()()()()()()()()()()()()()()()()()()()()()()()()()()()()()()()()()()()()()()()()()()

                                              &SEWARD

                                   only a single process is used
                       available to each process: 2.0 GB of memory, 1 thread
                                            pid: 3125420
()()()()()()()()()()()()()()()()()()()()()()()()()()()()()()()()()()()()()()()()()()()()()()()()()()
 
               SEWARD will generate:
                  Multipole Moment integrals up to order  2
                  Kinetic Energy integrals
                  Nuclear Attraction integrals (point charge)
                  One-Electron Hamiltonian integrals
                  Velocity integrals
                  Orbital angular momentum around ( 0.0000  0.0000  0.0000 )
                  Velocity quadrupole around ( 2.1016  2.3147 -1.5357 )
                  Two-Electron Repulsion integrals
 
 Title:
            orca_geometry_optimisation_285_145_BP86_def2-SVP_def2J_scf_cas1_ras12i11    
 
 
                   Integrals are discarded if absolute value <: 0.10E-13
                   Integral cutoff threshold is set to       <: 0.10E-15
 
++    Symmetry information:
      ---------------------
 
                    Character Table for C1 
 
                             E  
                    a        1  x, y, xy, Rz, z, xz, Ry, yz, Rx, I
--
 
 
++    Basis set information:
      ----------------------
 
 
      Basis set label: C.ANO-S...4S3P1D......
 
      Electronic valence basis set:
      ------------------
      Associated Effective Charge   6.000000 au
      Associated Actual Charge      6.000000 au
      Nuclear Model: Point charge
 
      Shell  nPrim  nBasis  Cartesian Spherical Contaminant
         s      10       4        X                  
         p       6       3        X                  
         d       3       1                 X         
 
 
      Basis set label: N.ANO-S...4S3P1D......
 
      Electronic valence basis set:
      ------------------
      Associated Effective Charge   7.000000 au
      Associated Actual Charge      7.000000 au
      Nuclear Model: Point charge
 
      Shell  nPrim  nBasis  Cartesian Spherical Contaminant
         s      10       4        X                  
         p       6       3        X                  
         d       3       1                 X         
 
 
      Basis set label: O.ANO-S...4S3P1D......
 
      Electronic valence basis set:
      ------------------
      Associated Effective Charge   8.000000 au
      Associated Actual Charge      8.000000 au
      Nuclear Model: Point charge
 
      Shell  nPrim  nBasis  Cartesian Spherical Contaminant
         s      10       4        X                  
         p       6       3        X                  
         d       3       1                 X         
 
 
      Basis set label: H.ANO-S...2S1P......
 
      Electronic valence basis set:
      ------------------
      Associated Effective Charge   1.000000 au
      Associated Actual Charge      1.000000 au
      Nuclear Model: Point charge
 
      Shell  nPrim  nBasis  Cartesian Spherical Contaminant
         s       7       2        X                  
         p       3       1        X                  
--
 
 
++    Molecular structure info:
      -------------------------
 
                    ************************************************ 
                    **** Cartesian Coordinates / Bohr, Angstrom **** 
                    ************************************************ 
 
     Center  Label                x              y              z                     x              y              z
        1      C1               0.068707      -0.033133       0.392303              0.036358      -0.017533       0.207598
        2      C3               3.987564       2.367046       0.039594              2.110128       1.252587       0.020952
        3      C4               3.761776       3.475951      -2.651607              1.990646       1.839394      -1.403170
        4      C6               3.415415       7.427793      -5.123318              1.807360       3.930619      -2.711143
        5      C19             -1.176487      -2.598678       0.000508             -0.622570      -1.375161       0.000269
        6      N2               2.682411      -0.030468       0.265113              1.419471      -0.016123       0.140292
        7      N5               3.599184       6.056259      -2.755835              1.904606       3.204834      -1.458325
        8      O7              -1.140758       1.903359       0.822715             -0.603663       1.007214       0.435362
        9      O8               3.828504       2.096209      -4.522455              2.025957       1.109266      -2.393180
       10      H9              -1.902486      -2.704610      -1.964508             -1.006752      -1.431218      -1.039573
       11      H10             -2.819171      -2.752864       1.283897             -1.491841      -1.456753       0.679409
       12      H11              0.118983      -4.212028       0.318906              0.062963      -2.228909       0.168758
       13      H12              3.512844      -1.524941      -0.636137              1.858917      -0.806964      -0.336629
       14      H13              3.193199       3.677313       1.468075              1.689768       1.945950       0.776872
       15      H14              6.023234       2.087104       0.465411              3.187358       1.104448       0.246285
       16      H15              3.324975       7.013611      -1.103135              1.759501       3.711443      -0.583754
       17      H16              3.646153       6.032376      -6.663465              1.929461       3.192196      -3.526154
       18      H17              1.546635       8.360742      -5.340270              0.818444       4.424314      -2.825949
       19      H18              4.914019       8.888206      -5.288002              2.600387       4.703436      -2.798290
 
                    ************************************************* 
                    **** InterNuclear Distances / Bohr, Angstrom **** 
                    ************************************************* 
 
     Atom centers         Bohr        Angstrom
   16 H15       7 N5      1.929541        1.021069
   13 H12       6 N2      1.932697        1.022739
   11 H10       5 C19     2.090280        1.106129
   17 H16       4 C6      2.091048        1.106535
   12 H11       5 C19     2.093446        1.107804
   14 H13       2 C3      2.094845        1.108544
   10 H9        5 C19     2.097519        1.109959
   15 H14       2 C3      2.098485        1.110470
   19 H18       4 C6      2.098985        1.110735
   18 H17       4 C6      2.099953        1.111247
    8 O7        1 C1      2.323372        1.229475
    9 O8        3 C4      2.325556        1.230631
    7 N5        3 C4      2.587525        1.369259
    6 N2        1 C1      2.616799        1.384750
    6 N2        2 C3      2.739043        1.449439
    7 N5        4 C6      2.742235        1.451128
    5 C19       1 C1      2.878547        1.523261
    3 C4        2 C3      2.919454        1.544908
   11 H10      10 H9      3.375615        1.786299
   15 H14      14 H13     3.397528        1.797894
   12 H11      10 H9      3.401856        1.800185
   18 H17      17 H16     3.402956        1.800767
   19 H18      18 H17     3.408845        1.803883
   19 H18      17 H16     3.413964        1.806592
   12 H11      11 H10     3.419519        1.809532
   16 H15       3 C4      3.886335        2.056560
   13 H12       1 C1      3.891692        2.059394
   17 H16       7 N5      3.907986        2.068017
   14 H13       6 N2      3.931368        2.080391
   15 H14       6 N2      3.960470        2.095791
   13 H12       2 C3      3.978635        2.105403
   19 H18       7 N5      4.020023        2.127305
   18 H17       7 N5      4.025283        2.130088
   16 H15       4 C6      4.042474        2.139185
   11 H10       1 C1      4.065921        2.151593
   10 H9        1 C1      4.071480        2.154535
   15 H14       3 C4      4.093762        2.166326
   14 H13       3 C4      4.163605        2.203285
   12 H11       1 C1      4.179842        2.211877
   16 H15      14 H13     4.214187        2.230052
    8 O7        6 N2      4.320559        2.286341
    9 O8        7 N5      4.342295        2.297844
   13 H12      12 H11     4.432926        2.345804
   17 H16       9 O8      4.484483        2.373086
   15 H14      13 H12     4.534571        2.399592
    9 O8        2 C3      4.572848        2.419847
    8 O7        5 C19     4.576640        2.421853
    2 C3        1 C1      4.608981        2.438968
    6 N2        5 C19     4.642931        2.456933
    7 N5        2 C3      4.644948        2.458001
    4 C6        3 C4      4.674011        2.473380
    6 N2        3 C4      4.686924        2.480214
   14 H13       8 O7      4.727217        2.501536
   17 H16       3 C4      4.758538        2.518110
   18 H17      16 H15     4.788587        2.534011
   16 H15       2 C3      4.830674        2.556283
   13 H12       5 C19     4.852633        2.567903
   19 H18      16 H15     4.853069        2.568133
   14 H13       7 N5      4.864733        2.574306
   12 H11       6 N2      4.905048        2.595640
   14 H13       1 C1      4.968615        2.629278
   11 H10       8 O7      4.970933        2.630504
    8 O7        2 C3      5.208452        2.756194
   13 H12       9 O8      5.321263        2.815891
    9 O8        6 N2      5.362564        2.837747
    9 O8        4 C6      5.381215        2.847616
   13 H12       3 C4      5.397500        2.856234
   10 H9        8 O7      5.438954        2.878170
   15 H14       9 O8      5.449379        2.883687
   14 H13      13 H12     5.620794        2.974396
   17 H16      16 H15     5.655373        2.992695
   15 H14       7 N5      5.657440        2.993788
--
 
 
            Nuclear Potential Energy            458.49928757 au
 
 
      Basis set specifications :
      Symmetry species         a  
      Basis functions          212
 
 
      Input file to MOLDEN was generated!
 
--- Stop Module: seward at Tue Jun 10 19:47:16 2025 /rc=_RC_ALL_IS_WELL_ ---
*** files: orca_geometry_optimisation_285_145_BP86_def2-SVP_def2J_scf_cas1_ras12i11_cas8.GssOrb
           orca_geometry_optimisation_285_145_BP86_def2-SVP_def2J_scf_cas1_ras12i11_cas8.guessorb.molden xmldump
    saved to directory /home/pcaah4/diamide_project
--- Module seward spent 1 minute 49 seconds ---

*** symbolic link created: INPORB -> orca_geometry_optimisation_285_145_BP86_def2-SVP_def2J_scf_cas1_ras12i11_cas8.GssOrb
--- Start Module: rasscf at Tue Jun 10 19:47:17 2025 ---
 
()()()()()()()()()()()()()()()()()()()()()()()()()()()()()()()()()()()()()()()()()()()()()()()()()()

                                              &RASSCF

                                   only a single process is used
                       available to each process: 2.0 GB of memory, 1 thread
                                            pid: 3125456
()()()()()()()()()()()()()()()()()()()()()()()()()()()()()()()()()()()()()()()()()()()()()()()()()()
 
 
      Header of the ONEINT file:
      --------------------------
      orca_geometry_optimisation_285_145_BP86_def2-SVP_def2J_scf_cas1_ras12i11
      Integrals generated by Gateway/Seward, Tue Jun 10 19:45:27 2025
 
 
      OrdInt status: non-squared
 
 
      Cartesian coordinates in Angstrom:
      -----------------------------------------------------
      No.  Label        X            Y            Z        
      -----------------------------------------------------
       1   C1         0.03635800  -0.01753300   0.20759800
       2   C3         2.11012800   1.25258700   0.02095200
       3   C4         1.99064600   1.83939400  -1.40317000
       4   C6         1.80736000   3.93061900  -2.71114300
       5   C19       -0.62257000  -1.37516100   0.00026900
       6   N2         1.41947100  -0.01612300   0.14029200
       7   N5         1.90460600   3.20483400  -1.45832500
       8   O7        -0.60366300   1.00721400   0.43536200
       9   O8         2.02595700   1.10926600  -2.39318000
      10   H9        -1.00675200  -1.43121800  -1.03957300
      11   H10       -1.49184100  -1.45675300   0.67940900
      12   H11        0.06296300  -2.22890900   0.16875800
      13   H12        1.85891700  -0.80696400  -0.33662900
      14   H13        1.68976800   1.94595000   0.77687200
      15   H14        3.18735800   1.10444800   0.24628500
      16   H15        1.75950100   3.71144300  -0.58375400
      17   H16        1.92946100   3.19219600  -3.52615400
      18   H17        0.81844400   4.42431400  -2.82594900
      19   H18        2.60038700   4.70343600  -2.79829000
      -----------------------------------------------------
      Nuclear repulsion energy =  458.49928757
 
++    Wave function specifications:
      -----------------------------
 
      Number of closed shell electrons          58
      Number of electrons in active shells      12
      Max number of holes in RAS1 space          0
      Max nr of electrons in RAS3 space          0
      Number of inactive orbitals               29
      Number of active orbitals                  8
      Number of secondary orbitals             172
      Spin quantum number                      0.0
      State symmetry                             1
--
 
++    Orbital specifications:
      -----------------------
 
      Symmetry species                           1
                                                 a
      Frozen orbitals                            0
      Inactive orbitals                         29
      Active orbitals                            8
      RAS1 orbitals                              0
      RAS2 orbitals                              8
      RAS3 orbitals                              0
      Secondary orbitals                       172
      Deleted orbitals                           3
      Number of basis functions                212
--
 
++    CI expansion specifications:
      ----------------------------
 
      Number of CSFs                           336
      Number of determinants                   406
      Number of root(s) required                 7
      Root chosen for geometry opt.              7
      CI roots used                              1     2     3     4     5     6     7
      weights                                0.143 0.143 0.143 0.143 0.143 0.143 0.143
      highest root included in the CI            7
      max. size of the explicit Hamiltonian    200
--
 
++    Optimization specifications:
      ----------------------------
 
      RASSCF algorithm: Conventional
      Maximum number of macro iterations        64
      Maximum number of SX iterations           25
      Threshold for RASSCF energy            0.100E-07
      Threshold for max MO rotation          0.100E+00
      Threshold for max BLB element          0.100E-03
      Level shift parameter                  0.300E+00
      Make Quasi-Newton update
--
 
      The MO-coefficients are taken from the file:
      /home/pcaah4/diamide_project/cas/ras12i11/ras_orb/orca_geometry_optimisation_285_145_BP86_def2-SVP_def2J_scf_cas1_ras12i11.RasOrb                                                                                                                               
      Title: RASSCF average (pseudo-natural) orbitals                                      
 
      Total molecular charge    0.00
 
      Molecular orbitals exchanged:
        In symmetry  1 :  36  38
        In symmetry  1 :  37  39
 
 
      ************************************************************************************************************************
      *                                                                                                                      *
      *                                            Wave function control section                                             *
      *                                                                                                                      *
      ************************************************************************************************************************
 
 
                                         RASSCF iterations: Energy and convergence statistics
                                         ----------------------------------------------------
 
      Iter CI   SX   CI       RASSCF       Energy    max ROT     max BLB   max BLB  Level Ln srch  Step   QN   Walltime
          iter iter root      energy       change     param      element    value   shift minimum  type update hh:mm:ss
 Nr of preliminary CI iterations:   4
        1   1   25    0  -453.69644568    0.00E+00   0.36E-01   33  39 1 -0.13E-01*  0.16   0.00    SX    NO    0:00:13
        2   6   13    0  -453.70191109   -0.55E-02* -0.36E-01   33  39 1 -0.22E-01*  0.18   0.00    SX    NO    0:00:07
        3   5   12    0  -453.70530048   -0.34E-02*  0.22E-01   33  39 1 -0.87E-02*  0.19   0.00    SX    NO    0:00:07
        4   5   13    0  -453.70797551   -0.27E-02*  0.12E-01   19  40 1 -0.35E-02*  0.19   0.00    SX    NO    0:00:07
        5   4   12    0  -453.70881394   -0.84E-03*  0.24E-01   19  40 1 -0.23E-02*  0.20   1.38    QN   YES    0:00:06
        6   7   11    0  -453.70920603   -0.39E-03*  0.19E-02   32  40 1  0.17E-02*  0.20   0.81    QN   YES    0:00:06
        7   4   10    0  -453.70926085   -0.55E-04* -0.25E-02   20  97 1 -0.85E-03*  0.20   0.83    QN   YES    0:00:06
        8   5    9    0  -453.70927418   -0.13E-04* -0.16E-02   37  44 1  0.20E-03*  0.20   1.34    QN   YES    0:00:06
        9   3    9    0  -453.70927718   -0.30E-05*  0.11E-02   20  77 1 -0.16E-03*  0.20   1.13    QN   YES    0:00:06
       10   5    8    0  -453.70927774   -0.56E-06*  0.23E-03   32  40 1 -0.34E-04   0.20   0.98    QN   YES    0:00:06
       11   3    7    0  -453.70927782   -0.77E-07* -0.29E-03   37  44 1  0.20E-04   0.20   1.60    QN   YES    0:00:06
       12   3    7    0  -453.70927784   -0.29E-07*  0.25E-04   20  97 1  0.12E-04   0.20   0.87    QN   YES    0:00:06
       13   1    6    0  -453.70927785   -0.31E-08   0.39E-04   20  97 1 -0.52E-05   0.20   1.25    QN   YES    0:00:06
      Convergence after 13 iterations
       14   1    6    0  -453.70927785   -0.13E-08   0.39E-04   20  97 1 -0.31E-05   0.20   1.25    QN   YES    0:00:06
 
      ************************************************************************************************************************
                                                      Wave function printout:
                       occupation of active orbitals, and spin coupling of open shells (u,d: Spin up or down)
      ************************************************************************************************************************
 
      Note: transformation to natural orbitals
      has been made, which may change the order of the CSFs.
 
      printout of CI-coefficients larger than  0.05 for root  1
      energy=    -453.962132
      conf/sym  11111111     Coeff  Weight
             1  22222200  -0.96366 0.92865
             2  22222ud0  -0.12517 0.01567
             4  22222020   0.07627 0.00582
            61  2u2222d0  -0.07883 0.00621
            62  2u222d20   0.07232 0.00523
            84  u222220d  -0.09369 0.00878
           145  22022202   0.08334 0.00694
           171  20222220   0.10291 0.01059
           195  02222202   0.07863 0.00618
 
      printout of CI-coefficients larger than  0.05 for root  2
      energy=    -453.755126
      conf/sym  11111111     Coeff  Weight
             2  22222ud0  -0.09953 0.00991
            21  222u22d0  -0.95474 0.91152
            22  222u2d20   0.10154 0.01031
            23  222ud220  -0.05317 0.00283
           121  2u2d2220   0.19038 0.03624
           213  u22u22dd  -0.08143 0.00663
           250  220u22d2   0.08226 0.00677
           270  022u22d2   0.07870 0.00619
 
      printout of CI-coefficients larger than  0.05 for root  3
      energy=    -453.736892
      conf/sym  11111111     Coeff  Weight
             7  22222u0d  -0.20619 0.04251
             8  2222u20d  -0.92748 0.86022
            10  2222udud  -0.06025 0.00363
            12  2222uudd  -0.11053 0.01222
            13  2222u02d   0.07780 0.00605
            54  22u2d202  -0.16714 0.02794
            68  2u22u2dd   0.07126 0.00508
            71  2u22ud2d  -0.06273 0.00394
            94  u222d202   0.12887 0.01661
           174  2022u22d  -0.10022 0.01004
 
      printout of CI-coefficients larger than  0.05 for root  4
      energy=    -453.644836
      conf/sym  11111111     Coeff  Weight
             2  22222ud0  -0.07923 0.00628
             7  22222u0d  -0.13112 0.01719
            24  222u220d  -0.07755 0.00601
            44  22u2220d   0.92734 0.85995
            47  22u22udd   0.09206 0.00848
            49  22u2202d  -0.07704 0.00594
            84  u222220d   0.07427 0.00552
           165  u2d22202  -0.23015 0.05297
           195  02222202   0.05375 0.00289
           219  2uu222dd  -0.06755 0.00456
           220  2uu22d2d   0.05683 0.00323
           293  20u2222d   0.09689 0.00939
 
      printout of CI-coefficients larger than  0.05 for root  5
      energy=    -453.638958
      conf/sym  11111111     Coeff  Weight
             1  22222200  -0.06383 0.00407
             2  22222ud0   0.47614 0.22671
             4  22222020   0.08476 0.00718
             7  22222u0d  -0.74591 0.55638
             8  2222u20d   0.16596 0.02754
            21  222u22d0  -0.06061 0.00367
            24  222u220d  -0.25979 0.06749
            25  222u2dud   0.06376 0.00406
            27  222u2udd   0.08749 0.00765
            44  22u2220d  -0.08002 0.00640
            62  2u222d20  -0.11965 0.01432
            65  2u222dud   0.11975 0.01434
            67  2u222udd   0.15871 0.02519
            87  u2222udd   0.05133 0.00263
           171  20222220  -0.05386 0.00290
           173  20222u2d  -0.10886 0.01185
 
      printout of CI-coefficients larger than  0.05 for root  6
      energy=    -453.618697
      conf/sym  11111111     Coeff  Weight
             1  22222200  -0.09688 0.00939
             2  22222ud0   0.71475 0.51087
             4  22222020   0.15593 0.02431
             7  22222u0d   0.52677 0.27748
             8  2222u20d  -0.11164 0.01246
            21  222u22d0  -0.07609 0.00579
            24  222u220d  -0.19500 0.03802
            25  222u2dud   0.05319 0.00283
            27  222u2udd   0.07187 0.00516
            44  22u2220d   0.12563 0.01578
            62  2u222d20  -0.16510 0.02726
            64  2u22220d  -0.05241 0.00275
            65  2u222dud  -0.08225 0.00677
            67  2u222udd  -0.11806 0.01394
            87  u2222udd   0.06515 0.00424
           146  22022ud2  -0.06715 0.00451
           171  20222220  -0.09028 0.00815
           173  20222u2d   0.08058 0.00649
           196  02222ud2  -0.05649 0.00319
 
      printout of CI-coefficients larger than  0.05 for root  7
      energy=    -453.608303
      conf/sym  11111111     Coeff  Weight
             2  22222ud0   0.30609 0.09369
             4  22222020   0.07441 0.00554
             7  22222u0d  -0.11757 0.01382
            24  222u220d   0.84623 0.71610
            25  222u2dud  -0.20738 0.04301
            26  222ud2ud  -0.05996 0.00359
            27  222u2udd  -0.28142 0.07920
            28  222uu2dd  -0.05333 0.00284
            44  22u2220d   0.08634 0.00745
            62  2u222d20  -0.06875 0.00473
           208  2u2u2d2d  -0.06483 0.00420
           261  202u222d   0.07479 0.00559
 
      Natural orbitals and occupation numbers for root  1
      sym 1:   1.970991   1.996821   1.994760   1.999721   1.999866   1.950526   0.052821   0.034494
 
      Natural orbitals and occupation numbers for root  2
      sym 1:   1.969700   1.999817   1.995171   1.004811   1.999898   1.999283   0.995991   0.035328
 
      Natural orbitals and occupation numbers for root  3
      sym 1:   1.999901   1.995957   1.998972   1.999711   1.009279   1.947907   0.055240   0.993032
 
      Natural orbitals and occupation numbers for root  4
      sym 1:   1.984039   1.991246   1.068517   1.999095   1.999565   1.946973   0.061088   0.949477
 
      Natural orbitals and occupation numbers for root  5
      sym 1:   1.998302   1.917957   1.989810   1.950500   1.994247   1.087322   0.142304   0.919557
 
      Natural orbitals and occupation numbers for root  6
      sym 1:   1.997890   1.939791   1.986666   1.960209   1.991219   1.057547   0.969698   0.096980
 
      Natural orbitals and occupation numbers for root  7
      sym 1:   1.996898   1.979756   1.991060   1.249508   1.998018   1.839255   0.182687   0.762818
 
      ************************************************************************************************************************
      *                                                                                                                      *
      *                                                    Final results                                                     *
      *                                                                                                                      *
      ************************************************************************************************************************
 
 
++    Wave function specifications:
      -----------------------------
 
      Number of closed shell electrons          58
      Number of electrons in active shells      12
      Max number of holes in RAS1 space          0
      Max nr of electrons in RAS3 space          0
      Number of inactive orbitals               29
      Number of active orbitals                  8
      Number of secondary orbitals             172
      Spin quantum number                      0.0
      State symmetry                             1
--
 
++    Orbital specifications:
      -----------------------
 
      Symmetry species                           1
                                                 a
      Frozen orbitals                            0
      Inactive orbitals                         29
      Active orbitals                            8
      RAS1 orbitals                              0
      RAS2 orbitals                              8
      RAS3 orbitals                              0
      Secondary orbitals                       172
      Deleted orbitals                           3
      Number of basis functions                212
--
 
++    CI expansion specifications:
      ----------------------------
 
      Number of CSFs                           336
      Number of determinants                   406
      Number of root(s) required                 7
      CI roots used                              1     2     3     4     5     6     7
      weights                                0.143 0.143 0.143 0.143 0.143 0.143 0.143
      highest root included in the CI            7
      Root passed to geometry opt.               7
--
 
++    Final optimization conditions:
      ------------------------------
 
      Average CI energy                            -453.70927785
      RASSCF energy for state  7                   -453.60830331
      Super-CI energy                                -0.00000000
      RASSCF energy change                            0.00000000
      Max change in MO coefficients               0.326E-04
      Max non-diagonal density matrix element     0.392E-04
      Maximum BLB matrix element                 -0.306E-05
      (orbital pair  20,  97 in symmetry   1)
      Norm of electronic gradient            0.333E+00
--
 
 
      Final state energy(ies):
      ------------------------
 
::    RASSCF root number  1 Total energy:   -453.96213221
::    RASSCF root number  2 Total energy:   -453.75512627
::    RASSCF root number  3 Total energy:   -453.73689190
::    RASSCF root number  4 Total energy:   -453.64483598
::    RASSCF root number  5 Total energy:   -453.63895800
::    RASSCF root number  6 Total energy:   -453.61869727
::    RASSCF root number  7 Total energy:   -453.60830331
 
++    Molecular orbitals:
      -------------------
 
      Pseudonatural active orbitals and approximate occupation numbers
 
 
 
 
      Molecular orbitals for symmetry species 1: a  
 
 
      Orbital                 1         2         3         4         5         6         7         8         9        10
      Energy           -20.5979  -20.5139  -15.6352  -15.5775  -11.3393  -11.2871  -11.2826  -11.2576  -11.2551   -1.4229
      Occ. No.           2.0000    2.0000    2.0000    2.0000    2.0000    2.0000    2.0000    2.0000    2.0000    2.0000
 
     1 C1     1s         0.0003   -0.0000    0.0003   -0.0000    1.0000    0.0001   -0.0001    0.0000    0.0037    0.0397
     2 C1     2s         0.0005   -0.0001    0.0015   -0.0001    0.0023   -0.0009   -0.0007    0.0002    0.0001   -0.3485
     3 C1     3s        -0.0008   -0.0002    0.0006   -0.0001   -0.0001   -0.0008   -0.0005    0.0001    0.0004    0.0102
     4 C1     4s        -0.0004   -0.0001    0.0001   -0.0000    0.0013   -0.0003   -0.0002   -0.0000    0.0001   -0.0017
     5 C1     2px       -0.0011   -0.0003    0.0019   -0.0003    0.0013   -0.0000    0.0001   -0.0002    0.0003    0.0495
     6 C1     3px       -0.0007   -0.0005    0.0014   -0.0003    0.0014   -0.0004    0.0002   -0.0003   -0.0003   -0.0127
     7 C1     4px        0.0001   -0.0001   -0.0001   -0.0000    0.0005   -0.0003    0.0001   -0.0001   -0.0003    0.0153
     8 C1     2py        0.0028   -0.0005    0.0001   -0.0002    0.0009    0.0001    0.0001   -0.0003    0.0006   -0.0960
     9 C1     3py        0.0021   -0.0005   -0.0000   -0.0003    0.0008   -0.0003   -0.0001   -0.0005   -0.0002    0.0700
    10 C1     4py       -0.0002   -0.0000   -0.0000   -0.0000    0.0007   -0.0004   -0.0001   -0.0001   -0.0003   -0.0219
    11 C1     2pz        0.0005    0.0003   -0.0002   -0.0001    0.0001    0.0001    0.0002   -0.0001    0.0001   -0.0205
    12 C1     3pz        0.0003    0.0004   -0.0001   -0.0002   -0.0001    0.0000    0.0001   -0.0001    0.0000    0.0120
    13 C1     4pz       -0.0001    0.0001    0.0000   -0.0000    0.0000   -0.0001    0.0000   -0.0000    0.0000   -0.0064
    14 C1     3d2-       0.0002    0.0000    0.0001    0.0000   -0.0004    0.0000   -0.0001   -0.0000   -0.0000    0.0310
    15 C1     3d1-      -0.0000    0.0000   -0.0000    0.0000    0.0002   -0.0000   -0.0000    0.0000    0.0000   -0.0129
    16 C1     3d0       -0.0000    0.0000    0.0001    0.0000   -0.0004   -0.0001   -0.0000    0.0000   -0.0001    0.0252
    17 C1     3d1+       0.0000    0.0000   -0.0000    0.0000   -0.0001   -0.0000    0.0000   -0.0000   -0.0000    0.0085
    18 C1     3d2+       0.0001    0.0000   -0.0002   -0.0000   -0.0001    0.0000   -0.0000    0.0000    0.0000    0.0112
    19 C3     1s         0.0003   -0.0000    0.0005    0.0000   -0.0001    0.9976   -0.0630    0.0000   -0.0000    0.0107
    20 C3     2s         0.0019   -0.0002    0.0026    0.0002    0.0004   -0.0010    0.0001    0.0004   -0.0006   -0.0133
    21 C3     3s         0.0012   -0.0002    0.0014    0.0002    0.0002   -0.0024    0.0000    0.0002   -0.0003    0.0243
    22 C3     4s         0.0002   -0.0001    0.0002    0.0000   -0.0000    0.0008   -0.0000   -0.0000   -0.0000    0.0036
    23 C3     2px       -0.0006   -0.0008   -0.0009    0.0004   -0.0002   -0.0002   -0.0002   -0.0002   -0.0003    0.0152
    24 C3     3px       -0.0005   -0.0007   -0.0004    0.0003    0.0001   -0.0002   -0.0003   -0.0003   -0.0004   -0.0021
    25 C3     4px        0.0001    0.0001    0.0002    0.0000    0.0002   -0.0005   -0.0001   -0.0000   -0.0001    0.0023
    26 C3     2py       -0.0001    0.0013   -0.0005   -0.0008    0.0004   -0.0006   -0.0001    0.0005    0.0004    0.0155
    27 C3     3py       -0.0000    0.0011   -0.0000   -0.0008    0.0004   -0.0004   -0.0004    0.0005    0.0004   -0.0041
    28 C3     4py        0.0000   -0.0001    0.0001   -0.0001    0.0000   -0.0007   -0.0001    0.0000    0.0000    0.0017
    29 C3     2pz        0.0002    0.0005   -0.0004   -0.0003   -0.0001    0.0006   -0.0002   -0.0002    0.0001   -0.0010
    30 C3     3pz        0.0003    0.0005   -0.0003   -0.0001   -0.0003    0.0004    0.0003   -0.0000    0.0001   -0.0014
    31 C3     4pz        0.0001    0.0001    0.0001    0.0002   -0.0001   -0.0001    0.0001    0.0001   -0.0000   -0.0009
    32 C3     3d2-       0.0000   -0.0000    0.0000    0.0000    0.0001   -0.0001    0.0000   -0.0000   -0.0000   -0.0042
    33 C3     3d1-       0.0000   -0.0000    0.0000    0.0000    0.0000    0.0001    0.0000   -0.0001    0.0000    0.0004
    34 C3     3d0        0.0000   -0.0000    0.0001    0.0000   -0.0000   -0.0001    0.0000    0.0001    0.0000    0.0019
    35 C3     3d1+      -0.0000   -0.0000    0.0000    0.0000   -0.0001   -0.0000   -0.0000    0.0000   -0.0000    0.0002
    36 C3     3d2+      -0.0000   -0.0001    0.0000   -0.0000    0.0000    0.0001    0.0001    0.0000   -0.0000    0.0012
    37 C4     1s        -0.0001    0.0003   -0.0003    0.0003   -0.0002    0.0631    0.9980    0.0003    0.0000    0.0001
    38 C4     2s        -0.0010    0.0012   -0.0017    0.0012   -0.0010    0.0011    0.0025   -0.0005    0.0002   -0.0424
    39 C4     3s        -0.0008   -0.0002   -0.0011    0.0006   -0.0009    0.0003    0.0001   -0.0005    0.0003   -0.0157
    40 C4     4s        -0.0002   -0.0003   -0.0003    0.0001   -0.0003    0.0001    0.0014   -0.0002    0.0001   -0.0051
    41 C4     2px        0.0005    0.0002    0.0002   -0.0002    0.0001    0.0001    0.0001    0.0000   -0.0000    0.0071
    42 C4     3px        0.0006    0.0001    0.0002   -0.0001    0.0000    0.0002   -0.0002    0.0000   -0.0001    0.0093
    43 C4     4px        0.0001   -0.0001   -0.0000    0.0001   -0.0001    0.0001   -0.0000    0.0000   -0.0000    0.0012
    44 C4     2py        0.0001   -0.0022   -0.0001    0.0018   -0.0004   -0.0005    0.0010   -0.0004   -0.0005    0.0168
    45 C4     3py        0.0001   -0.0017    0.0001    0.0013   -0.0002    0.0000    0.0006   -0.0009   -0.0006    0.0158
    46 C4     4py       -0.0000    0.0001    0.0002   -0.0001    0.0001    0.0003    0.0002   -0.0004   -0.0001    0.0045
    47 C4     2pz       -0.0003   -0.0026   -0.0006   -0.0001    0.0001    0.0011   -0.0001   -0.0001    0.0001   -0.0029
    48 C4     3pz       -0.0004   -0.0018   -0.0003    0.0000    0.0003    0.0006    0.0001    0.0005    0.0001   -0.0044
    49 C4     4pz       -0.0000    0.0003    0.0001    0.0001    0.0001   -0.0001   -0.0002    0.0005    0.0000    0.0002
    50 C4     3d2-      -0.0000   -0.0000    0.0001    0.0000    0.0000    0.0000   -0.0000   -0.0000    0.0000   -0.0000
    51 C4     3d1-      -0.0000   -0.0002    0.0001   -0.0001    0.0000   -0.0000    0.0004   -0.0000    0.0000   -0.0009
    52 C4     3d0       -0.0000   -0.0000    0.0000    0.0001    0.0000    0.0001    0.0001   -0.0000    0.0000   -0.0015
    53 C4     3d1+       0.0000    0.0000    0.0000   -0.0000    0.0000   -0.0000   -0.0000    0.0000    0.0000    0.0009
    54 C4     3d2+       0.0000   -0.0000   -0.0000    0.0002    0.0000    0.0000   -0.0004   -0.0001   -0.0000    0.0016
    55 C6     1s         0.0000    0.0001   -0.0000    0.0003   -0.0000    0.0001   -0.0004    0.9997   -0.0000   -0.0004
    56 C6     2s         0.0001    0.0005   -0.0000    0.0014   -0.0002    0.0004   -0.0005    0.0000   -0.0000   -0.0075
    57 C6     3s         0.0001    0.0003   -0.0000    0.0003   -0.0001    0.0003   -0.0006   -0.0016    0.0000   -0.0062
    58 C6     4s         0.0000    0.0001   -0.0000   -0.0001   -0.0001    0.0000   -0.0003    0.0009    0.0000   -0.0026
    59 C6     2px       -0.0001    0.0002   -0.0001   -0.0000   -0.0000   -0.0002   -0.0002   -0.0000    0.0001   -0.0030
    60 C6     3px       -0.0001    0.0002   -0.0002   -0.0001   -0.0000   -0.0002   -0.0001   -0.0000    0.0001   -0.0041
    61 C6     4px       -0.0000   -0.0000   -0.0000    0.0000    0.0000   -0.0000   -0.0000    0.0000    0.0000   -0.0009
    62 C6     2py       -0.0001   -0.0003    0.0000   -0.0002   -0.0001   -0.0001    0.0005    0.0002    0.0000    0.0009
    63 C6     3py       -0.0001   -0.0002   -0.0000    0.0002   -0.0000   -0.0001    0.0006    0.0001   -0.0000    0.0007
    64 C6     4py        0.0000    0.0000   -0.0000    0.0002    0.0000    0.0000    0.0001   -0.0004   -0.0000    0.0005
    65 C6     2pz       -0.0000    0.0001    0.0000    0.0005   -0.0001    0.0002   -0.0002    0.0001    0.0001   -0.0052
    66 C6     3pz        0.0000    0.0001    0.0000   -0.0001   -0.0001    0.0001   -0.0002   -0.0003    0.0001   -0.0047
    67 C6     4pz        0.0000    0.0000   -0.0000   -0.0002   -0.0000   -0.0000   -0.0000    0.0006    0.0000   -0.0006
    68 C6     3d2-      -0.0000   -0.0000   -0.0000    0.0000   -0.0000   -0.0000   -0.0000    0.0000    0.0000   -0.0000
    69 C6     3d1-       0.0000   -0.0000    0.0000    0.0000    0.0000   -0.0000   -0.0000    0.0001   -0.0000    0.0005
    70 C6     3d0        0.0000    0.0000    0.0000   -0.0001    0.0000    0.0000   -0.0000   -0.0001    0.0000   -0.0001
    71 C6     3d1+       0.0000   -0.0000   -0.0000   -0.0000   -0.0000    0.0000    0.0000   -0.0000    0.0000   -0.0000
    72 C6     3d2+      -0.0000   -0.0000    0.0000    0.0001   -0.0000    0.0000   -0.0001    0.0000    0.0000    0.0000
    73 C19    1s         0.0001    0.0000   -0.0001   -0.0001    0.0036    0.0001    0.0000   -0.0001   -0.9999    0.0132
    74 C19    2s         0.0009    0.0001   -0.0003   -0.0004    0.0001    0.0005    0.0003   -0.0003   -0.0017    0.0049
    75 C19    3s         0.0006    0.0001   -0.0002   -0.0003   -0.0001    0.0002    0.0001   -0.0002    0.0006    0.0345
    76 C19    4s         0.0001   -0.0000   -0.0001   -0.0001    0.0000   -0.0001   -0.0000   -0.0001   -0.0012    0.0033
    77 C19    2px        0.0008    0.0000   -0.0005   -0.0001   -0.0003    0.0001   -0.0001   -0.0001    0.0002    0.0082
    78 C19    3px        0.0006    0.0001   -0.0004   -0.0000   -0.0005    0.0001   -0.0001   -0.0000    0.0001    0.0064
    79 C19    4px       -0.0002    0.0000    0.0000    0.0000   -0.0000    0.0000   -0.0000    0.0000   -0.0002   -0.0076
    80 C19    2py       -0.0002    0.0000    0.0003   -0.0001    0.0003    0.0002    0.0002   -0.0001    0.0003   -0.0185
    81 C19    3py       -0.0003    0.0000    0.0003   -0.0001   -0.0001    0.0000    0.0001   -0.0001    0.0000    0.0086
    82 C19    4py       -0.0001   -0.0000   -0.0001    0.0000   -0.0001   -0.0001   -0.0000    0.0000   -0.0004   -0.0046
    83 C19    2pz        0.0002   -0.0002    0.0001    0.0001    0.0003    0.0002    0.0001   -0.0000   -0.0000   -0.0018
    84 C19    3pz        0.0001   -0.0003    0.0001    0.0001    0.0002    0.0001    0.0000   -0.0000   -0.0001    0.0032
    85 C19    4pz       -0.0000   -0.0000   -0.0000   -0.0000   -0.0000   -0.0000   -0.0000    0.0000   -0.0000   -0.0006
    86 C19    3d2-       0.0001    0.0000   -0.0000   -0.0000    0.0000    0.0001    0.0000   -0.0000    0.0001   -0.0005
    87 C19    3d1-      -0.0000   -0.0000    0.0000   -0.0000   -0.0000    0.0000    0.0000    0.0000    0.0000   -0.0014
    88 C19    3d0       -0.0001    0.0000   -0.0001    0.0000    0.0001   -0.0000   -0.0000    0.0000   -0.0001   -0.0015
    89 C19    3d1+      -0.0000   -0.0000   -0.0000   -0.0000    0.0000   -0.0000   -0.0000   -0.0000    0.0000   -0.0001
    90 C19    3d2+       0.0001    0.0000   -0.0000    0.0000   -0.0001   -0.0000   -0.0000    0.0000   -0.0001    0.0066
    91 N2     1s        -0.0000    0.0001    0.9998    0.0000   -0.0003    0.0001    0.0000    0.0000   -0.0001    0.0169
    92 N2     2s        -0.0000    0.0007   -0.0006    0.0002   -0.0005    0.0015    0.0000    0.0001   -0.0005   -0.1233
    93 N2     3s         0.0001    0.0005   -0.0018    0.0002   -0.0006    0.0008    0.0001    0.0001   -0.0004    0.0446
    94 N2     4s         0.0000    0.0001    0.0003    0.0001   -0.0000    0.0003    0.0000    0.0000   -0.0001    0.0109
    95 N2     2px        0.0001    0.0005    0.0004   -0.0004   -0.0002    0.0004   -0.0000    0.0001    0.0004    0.0314
    96 N2     3px        0.0000    0.0007    0.0003   -0.0005    0.0001    0.0000   -0.0001    0.0001    0.0003   -0.0173
    97 N2     4px        0.0000    0.0001   -0.0004   -0.0000   -0.0002   -0.0001   -0.0000   -0.0000   -0.0001    0.0050
    98 N2     2py       -0.0014    0.0000   -0.0008    0.0001    0.0000    0.0006    0.0000    0.0000    0.0001   -0.0368
    99 N2     3py       -0.0016    0.0000   -0.0003    0.0000   -0.0000    0.0005    0.0001    0.0000    0.0000   -0.0104
   100 N2     4py        0.0000   -0.0000    0.0005   -0.0000   -0.0000    0.0002   -0.0000   -0.0000   -0.0001    0.0062
   101 N2     2pz       -0.0004   -0.0000   -0.0005   -0.0000   -0.0002   -0.0003    0.0000    0.0001    0.0002   -0.0112
   102 N2     3pz       -0.0004   -0.0001   -0.0000   -0.0001   -0.0004   -0.0003   -0.0002    0.0001    0.0004   -0.0185
   103 N2     4pz       -0.0000   -0.0000   -0.0004   -0.0000   -0.0001   -0.0000   -0.0000    0.0000    0.0001   -0.0008
   104 N2     3d2-       0.0001   -0.0000   -0.0001   -0.0000   -0.0001   -0.0000    0.0000    0.0000    0.0000    0.0032
   105 N2     3d1-       0.0000    0.0000    0.0001    0.0000   -0.0001    0.0000   -0.0000    0.0000   -0.0000    0.0010
   106 N2     3d0       -0.0000   -0.0000    0.0000    0.0000    0.0001    0.0001   -0.0000   -0.0000    0.0001    0.0028
   107 N2     3d1+       0.0000   -0.0000   -0.0000    0.0000    0.0000    0.0000   -0.0000   -0.0000    0.0000    0.0011
   108 N2     3d2+      -0.0000    0.0000   -0.0000   -0.0000    0.0001   -0.0000   -0.0000   -0.0000   -0.0000   -0.0042
   109 N5     1s         0.0000    0.0002    0.0001    0.9999    0.0001   -0.0000   -0.0003    0.0001    0.0000    0.0014
   110 N5     2s         0.0002    0.0010    0.0005    0.0004    0.0004    0.0001   -0.0003    0.0017    0.0002   -0.0045
   111 N5     3s         0.0002    0.0007    0.0003   -0.0012    0.0003    0.0000   -0.0004    0.0010    0.0001    0.0033
   112 N5     4s         0.0001    0.0001    0.0000    0.0005    0.0000   -0.0000    0.0000    0.0004    0.0000    0.0004
   113 N5     2px       -0.0001   -0.0001   -0.0000   -0.0001    0.0000    0.0001    0.0002   -0.0001    0.0000   -0.0038
   114 N5     3px       -0.0002   -0.0000    0.0000    0.0000    0.0001    0.0002    0.0001   -0.0000    0.0001   -0.0044
   115 N5     4px       -0.0000    0.0000    0.0000   -0.0001   -0.0000    0.0000    0.0000   -0.0000    0.0000   -0.0008
   116 N5     2py       -0.0001    0.0002   -0.0003    0.0004   -0.0001   -0.0005   -0.0000    0.0006   -0.0001    0.0037
   117 N5     3py       -0.0001    0.0002   -0.0003    0.0002    0.0001   -0.0004    0.0001    0.0003   -0.0001    0.0037
   118 N5     4py        0.0000    0.0000    0.0001   -0.0002    0.0001    0.0001   -0.0003   -0.0001    0.0000    0.0018
   119 N5     2pz        0.0001    0.0014    0.0000    0.0009   -0.0002    0.0001   -0.0005   -0.0008   -0.0001   -0.0025
   120 N5     3pz        0.0001    0.0017    0.0000    0.0004   -0.0003    0.0002   -0.0005   -0.0009   -0.0001   -0.0050
   121 N5     4pz        0.0000   -0.0000    0.0000   -0.0004   -0.0000    0.0000    0.0001   -0.0002    0.0000   -0.0014
   122 N5     3d2-       0.0000   -0.0000    0.0000   -0.0000    0.0000   -0.0000    0.0000    0.0000    0.0000    0.0002
   123 N5     3d1-      -0.0000   -0.0001   -0.0000    0.0002   -0.0000   -0.0000    0.0001    0.0000   -0.0000   -0.0001
   124 N5     3d0       -0.0000    0.0001   -0.0000   -0.0000   -0.0000   -0.0000   -0.0001   -0.0000   -0.0000    0.0000
   125 N5     3d1+       0.0000    0.0000    0.0000   -0.0000    0.0000    0.0000    0.0000   -0.0000    0.0000    0.0000
   126 N5     3d2+       0.0000   -0.0000   -0.0000    0.0001   -0.0000   -0.0001    0.0001    0.0001    0.0000    0.0000
   127 O7     1s         0.9997    0.0001    0.0000   -0.0000   -0.0003   -0.0000   -0.0000    0.0000   -0.0000    0.0239
   128 O7     2s        -0.0012    0.0003    0.0001   -0.0000    0.0003   -0.0001   -0.0001    0.0001   -0.0003   -0.6897
   129 O7     3s        -0.0012    0.0002    0.0000   -0.0001   -0.0001   -0.0000   -0.0000    0.0001   -0.0002    0.0342
   130 O7     4s         0.0001    0.0001   -0.0000   -0.0000   -0.0000    0.0000    0.0000    0.0000   -0.0001    0.0139
   131 O7     2px        0.0002    0.0001   -0.0004   -0.0000    0.0003   -0.0001   -0.0001    0.0000   -0.0001   -0.0840
   132 O7     3px       -0.0002    0.0001   -0.0005   -0.0000   -0.0002   -0.0000   -0.0002    0.0000   -0.0001    0.0216
   133 O7     4px        0.0008    0.0000   -0.0001   -0.0000    0.0001   -0.0000   -0.0000   -0.0000    0.0000    0.0006
   134 O7     2py       -0.0003    0.0000   -0.0002    0.0000   -0.0007   -0.0000   -0.0000    0.0000    0.0001    0.1199
   135 O7     3py        0.0004    0.0001   -0.0002    0.0000   -0.0004   -0.0001   -0.0001    0.0000    0.0001   -0.0387
   136 O7     4py       -0.0011    0.0001    0.0000   -0.0000   -0.0003   -0.0000   -0.0001    0.0000   -0.0000   -0.0005
   137 O7     2pz       -0.0001   -0.0001   -0.0000    0.0001   -0.0001   -0.0000    0.0001    0.0000    0.0000    0.0254
   138 O7     3pz        0.0000   -0.0001    0.0000    0.0001   -0.0000   -0.0000    0.0001    0.0000    0.0000   -0.0090
   139 O7     4pz       -0.0003   -0.0000    0.0000    0.0000   -0.0001   -0.0000    0.0000    0.0000   -0.0000   -0.0003
   140 O7     3d2-       0.0001   -0.0000    0.0000   -0.0000   -0.0002    0.0000    0.0000    0.0000   -0.0000    0.0172
   141 O7     3d1-      -0.0000    0.0000    0.0000    0.0000    0.0001    0.0000   -0.0000   -0.0000   -0.0000   -0.0056
   142 O7     3d0       -0.0000    0.0000   -0.0000    0.0000   -0.0000   -0.0000    0.0000    0.0000    0.0000    0.0097
   143 O7     3d1+      -0.0000   -0.0000    0.0000    0.0000   -0.0000   -0.0000    0.0000    0.0000    0.0000    0.0037
   144 O7     3d2+       0.0000    0.0000   -0.0001    0.0000   -0.0001    0.0000   -0.0000    0.0000    0.0000    0.0072
   145 O8     1s         0.0000    0.9997   -0.0001    0.0000   -0.0000   -0.0000   -0.0002   -0.0001   -0.0000    0.0020
   146 O8     2s         0.0003   -0.0015   -0.0004    0.0003   -0.0002    0.0001    0.0006   -0.0003   -0.0002   -0.0240
   147 O8     3s         0.0002   -0.0015   -0.0002    0.0002   -0.0001    0.0001    0.0001   -0.0002   -0.0001    0.0049
   148 O8     4s         0.0001    0.0000   -0.0001    0.0000   -0.0000    0.0000    0.0000   -0.0000   -0.0000    0.0014
   149 O8     2px       -0.0001   -0.0000    0.0000    0.0000    0.0001    0.0000    0.0003    0.0000   -0.0000   -0.0004
   150 O8     3px       -0.0002   -0.0001    0.0000    0.0001    0.0001    0.0000    0.0001   -0.0000   -0.0001    0.0004
   151 O8     4px       -0.0000   -0.0001   -0.0000    0.0000    0.0000    0.0000    0.0000   -0.0000   -0.0000    0.0005
   152 O8     2py       -0.0000    0.0002    0.0000   -0.0003    0.0001    0.0001    0.0006   -0.0001   -0.0000   -0.0028
   153 O8     3py       -0.0001   -0.0003    0.0000   -0.0003    0.0002    0.0001    0.0001   -0.0000   -0.0000    0.0025
   154 O8     4py       -0.0001    0.0008    0.0000   -0.0001    0.0001    0.0000    0.0001    0.0000   -0.0000    0.0004
   155 O8     2pz        0.0001    0.0002   -0.0002    0.0002   -0.0002   -0.0000    0.0005   -0.0000    0.0000   -0.0077
   156 O8     3pz        0.0001   -0.0004   -0.0002    0.0001   -0.0003   -0.0001    0.0001   -0.0000    0.0001   -0.0019
   157 O8     4pz       -0.0000    0.0011   -0.0000   -0.0001   -0.0000   -0.0001    0.0002    0.0000    0.0001   -0.0018
   158 O8     3d2-      -0.0000   -0.0000    0.0000    0.0000   -0.0000   -0.0000    0.0000    0.0000    0.0000   -0.0001
   159 O8     3d1-      -0.0000   -0.0001   -0.0000   -0.0000   -0.0000    0.0000    0.0003   -0.0000   -0.0000   -0.0008
   160 O8     3d0        0.0000   -0.0000   -0.0000    0.0001   -0.0000    0.0000    0.0001    0.0000    0.0000   -0.0007
   161 O8     3d1+      -0.0000    0.0000    0.0000    0.0000    0.0000    0.0000   -0.0000    0.0000   -0.0000    0.0002
   162 O8     3d2+       0.0000   -0.0000   -0.0000   -0.0000    0.0000   -0.0000   -0.0001    0.0000   -0.0000    0.0004
   163 H9     1s         0.0004   -0.0003    0.0002    0.0001    0.0003   -0.0000    0.0001   -0.0001   -0.0004   -0.0100
   164 H9     2s         0.0003   -0.0002    0.0001    0.0000    0.0002   -0.0000    0.0001   -0.0001    0.0002   -0.0014
   165 H9     2px       -0.0000   -0.0000    0.0000    0.0000    0.0001   -0.0000    0.0000   -0.0000   -0.0000   -0.0010
   166 H9     2py       -0.0000    0.0000   -0.0000    0.0000    0.0000   -0.0000    0.0000   -0.0000   -0.0000   -0.0011
   167 H9     2pz        0.0000   -0.0000    0.0000    0.0000    0.0001   -0.0000    0.0000   -0.0000    0.0001   -0.0003
   168 H10    1s         0.0002   -0.0001   -0.0001   -0.0001   -0.0001   -0.0003   -0.0002   -0.0001   -0.0003   -0.0107
   169 H10    2s         0.0001   -0.0001   -0.0000   -0.0001   -0.0000   -0.0002   -0.0001   -0.0001    0.0002    0.0002
   170 H10    2px       -0.0000   -0.0000    0.0000   -0.0000    0.0000   -0.0000   -0.0000   -0.0000    0.0000   -0.0007
   171 H10    2py       -0.0000   -0.0000   -0.0000   -0.0000    0.0001   -0.0000   -0.0000   -0.0000   -0.0000   -0.0007
   172 H10    2pz       -0.0001    0.0000    0.0000    0.0000   -0.0000    0.0000    0.0000    0.0000   -0.0001    0.0003
   173 H11    1s        -0.0004   -0.0000    0.0005   -0.0000    0.0004   -0.0000    0.0001   -0.0000   -0.0004   -0.0156
   174 H11    2s        -0.0002   -0.0000    0.0004   -0.0000    0.0002   -0.0000    0.0001   -0.0000    0.0002   -0.0028
   175 H11    2px       -0.0000   -0.0000   -0.0001    0.0000   -0.0000    0.0000   -0.0000    0.0000   -0.0001   -0.0003
   176 H11    2py       -0.0000    0.0000    0.0000   -0.0000    0.0001    0.0000    0.0000   -0.0000    0.0000   -0.0016
   177 H11    2pz        0.0000    0.0000   -0.0000   -0.0000   -0.0000   -0.0000   -0.0000    0.0000   -0.0000    0.0007
   178 H12    1s        -0.0008   -0.0002   -0.0007    0.0000   -0.0002   -0.0004   -0.0001   -0.0001    0.0005   -0.0457
   179 H12    2s        -0.0005   -0.0001   -0.0005    0.0000   -0.0002   -0.0002   -0.0000   -0.0001    0.0003   -0.0017
   180 H12    2px        0.0000   -0.0000    0.0002    0.0000   -0.0001    0.0001   -0.0000    0.0000   -0.0000    0.0037
   181 H12    2py        0.0000   -0.0000   -0.0004    0.0000    0.0000    0.0000   -0.0000   -0.0000    0.0000   -0.0048
   182 H12    2pz       -0.0001    0.0000   -0.0003    0.0000    0.0001   -0.0000    0.0001   -0.0000    0.0000   -0.0026
   183 H13    1s        -0.0007   -0.0008   -0.0006    0.0007   -0.0008    0.0008   -0.0003   -0.0001   -0.0002   -0.0180
   184 H13    2s        -0.0004   -0.0005   -0.0003    0.0005   -0.0005    0.0001   -0.0002   -0.0001   -0.0002   -0.0014
   185 H13    2px        0.0000   -0.0000    0.0000    0.0000   -0.0000   -0.0000    0.0000    0.0000    0.0000    0.0008
   186 H13    2py        0.0001    0.0000    0.0000   -0.0001    0.0001   -0.0000    0.0000   -0.0000    0.0000    0.0015
   187 H13    2pz        0.0000    0.0001    0.0000   -0.0000    0.0001   -0.0000   -0.0000   -0.0000    0.0000    0.0010
   188 H14    1s         0.0002    0.0010    0.0000   -0.0003    0.0001    0.0008   -0.0001    0.0000    0.0004   -0.0115
   189 H14    2s         0.0001    0.0006    0.0001   -0.0002    0.0000    0.0001    0.0001    0.0000    0.0003   -0.0022
   190 H14    2px       -0.0000   -0.0001   -0.0001    0.0000   -0.0000    0.0000   -0.0000    0.0000   -0.0000    0.0010
   191 H14    2py        0.0000   -0.0000    0.0000    0.0000   -0.0000   -0.0000    0.0000   -0.0000   -0.0000    0.0003
   192 H14    2pz       -0.0000   -0.0000    0.0000    0.0000    0.0000   -0.0000   -0.0001    0.0000   -0.0000    0.0001
   193 H15    1s         0.0000   -0.0012    0.0001   -0.0008    0.0002    0.0001    0.0004   -0.0001    0.0001   -0.0017
   194 H15    2s         0.0000   -0.0007    0.0000   -0.0006    0.0001    0.0001    0.0001   -0.0000    0.0000    0.0005
   195 H15    2px        0.0000   -0.0000    0.0000   -0.0001   -0.0000    0.0000    0.0000   -0.0000   -0.0000    0.0001
   196 H15    2py       -0.0000    0.0000    0.0000    0.0002   -0.0000   -0.0000   -0.0002    0.0000    0.0000   -0.0000
   197 H15    2pz       -0.0000    0.0001   -0.0000    0.0004   -0.0000   -0.0001   -0.0000   -0.0000   -0.0000    0.0005
   198 H16    1s        -0.0001   -0.0000   -0.0000   -0.0001   -0.0001    0.0001    0.0001    0.0010    0.0001   -0.0055
   199 H16    2s        -0.0000    0.0000   -0.0000   -0.0000   -0.0001    0.0001    0.0001    0.0001    0.0001   -0.0033
   200 H16    2px        0.0000   -0.0000    0.0000   -0.0000   -0.0000    0.0000    0.0000   -0.0000    0.0000    0.0001
   201 H16    2py       -0.0000    0.0000    0.0000    0.0000    0.0000    0.0000   -0.0000    0.0001    0.0000   -0.0002
   202 H16    2pz       -0.0000   -0.0000   -0.0000    0.0000   -0.0000    0.0000    0.0000    0.0001    0.0000   -0.0004
   203 H17    1s        -0.0001    0.0005   -0.0001   -0.0006   -0.0000   -0.0001   -0.0003    0.0005    0.0001   -0.0055
   204 H17    2s        -0.0001    0.0003   -0.0001   -0.0003   -0.0000   -0.0001   -0.0003   -0.0001    0.0001   -0.0037
   205 H17    2px        0.0000    0.0000   -0.0000   -0.0000    0.0000   -0.0000   -0.0001   -0.0000    0.0000   -0.0001
   206 H17    2py        0.0000   -0.0000    0.0000    0.0000    0.0000    0.0000    0.0000   -0.0000   -0.0000    0.0003
   207 H17    2pz       -0.0000    0.0000   -0.0000   -0.0000    0.0000   -0.0000   -0.0000    0.0000    0.0000   -0.0000
   208 H18    1s         0.0002    0.0002    0.0002   -0.0004    0.0000    0.0001   -0.0003    0.0005   -0.0001    0.0021
   209 H18    2s         0.0001    0.0001    0.0001   -0.0002    0.0000    0.0001   -0.0002   -0.0001   -0.0000    0.0014
   210 H18    2px       -0.0000   -0.0000   -0.0000    0.0000   -0.0000   -0.0000    0.0001    0.0000   -0.0000    0.0002
   211 H18    2py       -0.0000   -0.0000   -0.0000    0.0000   -0.0000   -0.0000    0.0000   -0.0000    0.0000    0.0000
   212 H18    2pz        0.0000    0.0000   -0.0000   -0.0000   -0.0000   -0.0000   -0.0000    0.0000   -0.0000    0.0001
 
 
      Orbital                11        12        13        14        15        16        17        18        19        20
      Energy            -1.3559   -1.2531   -1.2083   -1.0259   -0.9682   -0.9109   -0.8118   -0.7707   -0.7103   -0.6953
      Occ. No.           2.0000    2.0000    2.0000    2.0000    2.0000    2.0000    2.0000    2.0000    2.0000    2.0000
 
     1 C1     1s         0.0030   -0.0070    0.0026   -0.0173   -0.0023    0.0062   -0.0161   -0.0002   -0.0057    0.0048
     2 C1     2s         0.0007    0.1344    0.0039    0.2652   -0.0474   -0.0869    0.3813    0.0304    0.2247   -0.1232
     3 C1     3s         0.0140    0.0033    0.0137   -0.0257   -0.0120    0.0110   -0.0107    0.0009   -0.0044    0.0186
     4 C1     4s         0.0046    0.0003    0.0042   -0.0073   -0.0035    0.0045   -0.0037    0.0003   -0.0031    0.0039
     5 C1     2px        0.0312    0.1303    0.0085   -0.0176    0.1093   -0.0986    0.1343    0.0023   -0.1563    0.2584
     6 C1     3px        0.0152   -0.0676    0.0215   -0.0420   -0.0116    0.0294   -0.0206    0.0001    0.0578   -0.0697
     7 C1     4px        0.0078    0.0195    0.0021   -0.0103    0.0160   -0.0086    0.0109    0.0005   -0.0060    0.0154
     8 C1     2py        0.0161   -0.0435    0.0253   -0.1599    0.0540    0.0120    0.0442    0.0338   -0.0706   -0.1139
     9 C1     3py        0.0394    0.0393    0.0290    0.0131   -0.0470    0.0466   -0.0129   -0.0132    0.0173    0.0433
    10 C1     4py        0.0029   -0.0071    0.0062   -0.0261    0.0059    0.0051    0.0060    0.0011    0.0021   -0.0094
    11 C1     2pz       -0.0053   -0.0259    0.0025   -0.0215    0.0061    0.0033    0.0111    0.0153   -0.0101   -0.0394
    12 C1     3pz       -0.0018    0.0092    0.0008    0.0137   -0.0052    0.0026    0.0010    0.0058    0.0010    0.0130
    13 C1     4pz       -0.0015   -0.0013    0.0004   -0.0005   -0.0005    0.0012    0.0012    0.0027   -0.0014   -0.0033
    14 C1     3d2-       0.0034    0.0137   -0.0002    0.0082   -0.0104    0.0071    0.0104    0.0068   -0.0155    0.0076
    15 C1     3d1-      -0.0013   -0.0042   -0.0001    0.0028   -0.0018    0.0001    0.0022    0.0003    0.0054   -0.0056
    16 C1     3d0        0.0003   -0.0067    0.0003   -0.0107   -0.0007    0.0051   -0.0140   -0.0007   -0.0033    0.0024
    17 C1     3d1+      -0.0002   -0.0018   -0.0003    0.0009   -0.0019    0.0016    0.0029    0.0029   -0.0068    0.0007
    18 C1     3d2+       0.0034    0.0283   -0.0012    0.0015    0.0137   -0.0123    0.0106    0.0000   -0.0158    0.0191
    19 C3     1s        -0.0135   -0.0304   -0.0045    0.0327    0.0259   -0.0196   -0.0036   -0.0065   -0.0008    0.0031
    20 C3     2s         0.0355    0.1674    0.0175   -0.2830   -0.2742    0.3267    0.0906    0.0671    0.0467    0.0127
    21 C3     3s        -0.0344   -0.0580   -0.0137    0.0569    0.0411   -0.0093   -0.0034   -0.0119   -0.0058    0.0063
    22 C3     4s        -0.0052   -0.0138   -0.0019    0.0159    0.0110   -0.0040   -0.0017   -0.0035   -0.0034   -0.0004
    23 C3     2px        0.0191   -0.0404    0.0063   -0.0153   -0.0325    0.0450   -0.0422   -0.0322    0.1793   -0.0484
    24 C3     3px        0.0299    0.0267    0.0120   -0.0399   -0.0123    0.0314    0.0184    0.0047   -0.0151   -0.0011
    25 C3     4px        0.0023    0.0027    0.0034   -0.0117   -0.0073    0.0127   -0.0036   -0.0010    0.0087   -0.0007
    26 C3     2py       -0.0286   -0.0943    0.0283    0.0075   -0.0694   -0.0535    0.1371   -0.0453    0.1084    0.2059
    27 C3     3py       -0.0156    0.0088    0.0036   -0.0099    0.0155   -0.0332   -0.0067    0.0206   -0.0259   -0.0223
    28 C3     4py        0.0081   -0.0070    0.0044   -0.0028   -0.0060   -0.0045    0.0089    0.0051    0.0007    0.0081
    29 C3     2pz       -0.0257    0.0178   -0.0125    0.0068    0.0284    0.0262    0.0096    0.1403   -0.1953   -0.1149
    30 C3     3pz        0.0087    0.0192   -0.0055   -0.0164   -0.0334    0.0039    0.0016   -0.0148    0.0232    0.0131
    31 C3     4pz       -0.0044    0.0084   -0.0026   -0.0095   -0.0090    0.0123    0.0024    0.0109   -0.0002    0.0006
    32 C3     3d2-       0.0035    0.0175   -0.0015   -0.0025    0.0074   -0.0006   -0.0013    0.0053   -0.0182   -0.0072
    33 C3     3d1-      -0.0008   -0.0032   -0.0053    0.0047    0.0069    0.0026   -0.0005    0.0089   -0.0037   -0.0003
    34 C3     3d0        0.0037   -0.0102   -0.0021    0.0005   -0.0094   -0.0022    0.0103   -0.0100    0.0175    0.0206
    35 C3     3d1+       0.0010   -0.0002    0.0004    0.0008   -0.0010   -0.0007   -0.0054   -0.0051    0.0115   -0.0005
    36 C3     3d2+       0.0028   -0.0123   -0.0013    0.0042   -0.0020   -0.0001    0.0134    0.0003    0.0067    0.0069
    37 C4     1s        -0.0397    0.0079   -0.0057    0.0069    0.0142    0.0092   -0.0052    0.0157   -0.0020   -0.0029
    38 C4     2s         0.3622    0.0227    0.1209   -0.0977   -0.2244   -0.0621    0.0834   -0.3965    0.0717    0.0815
    39 C4     3s        -0.0077    0.0253    0.0073    0.0168    0.0126    0.0194   -0.0081    0.0082   -0.0024   -0.0017
    40 C4     4s         0.0015    0.0060    0.0019    0.0063    0.0045    0.0055   -0.0025    0.0049   -0.0031   -0.0024
    41 C4     2px        0.0089   -0.0046   -0.0088   -0.0134   -0.0127    0.0067    0.0058   -0.0127    0.0259    0.0181
    42 C4     3px       -0.0020   -0.0021    0.0024   -0.0096    0.0007   -0.0089    0.0006   -0.0029   -0.0125   -0.0009
    43 C4     4px        0.0019    0.0006   -0.0013   -0.0052   -0.0012    0.0011    0.0006   -0.0009    0.0026    0.0003
    44 C4     2py       -0.0294   -0.0207    0.1767    0.0000   -0.0085   -0.0791    0.0095   -0.1170   -0.1212   -0.0810
    45 C4     3py        0.0504   -0.0300   -0.0113   -0.0180    0.0493    0.0898    0.0228    0.0184    0.0569    0.0383
    46 C4     4py       -0.0090   -0.0056    0.0369   -0.0019    0.0051   -0.0007    0.0047   -0.0077   -0.0050   -0.0024
    47 C4     2pz       -0.1001    0.0406    0.0202   -0.0742   -0.1248   -0.0178    0.0223   -0.0006    0.1351    0.1155
    48 C4     3pz        0.0389   -0.0289   -0.0750    0.0317    0.0121   -0.0956   -0.0310    0.0024   -0.0499   -0.0468
    49 C4     4pz       -0.0281    0.0038   -0.0032   -0.0074   -0.0145   -0.0149   -0.0027    0.0032    0.0025    0.0018
    50 C4     3d2-      -0.0028   -0.0002   -0.0024    0.0008    0.0010    0.0012    0.0010    0.0011   -0.0012    0.0008
    51 C4     3d1-       0.0317   -0.0100   -0.0160    0.0065    0.0043   -0.0097   -0.0016    0.0151    0.0040    0.0081
    52 C4     3d0        0.0183   -0.0009   -0.0194   -0.0056   -0.0041    0.0146    0.0082    0.0017    0.0104    0.0121
    53 C4     3d1+      -0.0024   -0.0009    0.0014   -0.0009   -0.0018    0.0014   -0.0013   -0.0022    0.0062   -0.0004
    54 C4     3d2+      -0.0216    0.0015   -0.0167    0.0008    0.0094    0.0146    0.0004    0.0160    0.0066    0.0054
    55 C6     1s        -0.0085    0.0049   -0.0343   -0.0131   -0.0374   -0.0423   -0.0081    0.0068   -0.0049   -0.0063
    56 C6     2s         0.0330    0.0191    0.1607    0.0747    0.2400    0.3803    0.0603   -0.1082    0.0408    0.0460
    57 C6     3s        -0.0108    0.0235   -0.0590   -0.0214   -0.0721   -0.0668   -0.0217    0.0114   -0.0128   -0.0179
    58 C6     4s         0.0001    0.0068   -0.0098   -0.0033   -0.0153   -0.0137   -0.0058    0.0034   -0.0034   -0.0047
    59 C6     2px       -0.0001    0.0048    0.0077    0.0021    0.0012    0.0041   -0.0014   -0.0105   -0.0097   -0.0199
    60 C6     3px       -0.0014    0.0057   -0.0004    0.0006   -0.0021    0.0043    0.0005   -0.0021    0.0024    0.0008
    61 C6     4px        0.0001    0.0003   -0.0005    0.0005   -0.0011   -0.0014   -0.0003   -0.0001   -0.0002   -0.0010
    62 C6     2py       -0.0197   -0.0014   -0.0551   -0.0085   -0.0011    0.0309    0.0156    0.0542    0.1250    0.1343
    63 C6     3py        0.0005   -0.0047    0.0129    0.0049    0.0175    0.0138    0.0036    0.0000   -0.0137   -0.0158
    64 C6     4py       -0.0016   -0.0000    0.0021    0.0017    0.0085    0.0122    0.0018    0.0010    0.0067    0.0069
    65 C6     2pz        0.0168    0.0067    0.0907    0.0205    0.0175   -0.0240   -0.0489    0.1454   -0.0199   -0.0656
    66 C6     3pz       -0.0038    0.0111   -0.0164   -0.0017   -0.0155    0.0026    0.0013   -0.0063    0.0074    0.0129
    67 C6     4pz        0.0029    0.0012    0.0022   -0.0027   -0.0112   -0.0165   -0.0052    0.0119   -0.0007   -0.0029
    68 C6     3d2-      -0.0007    0.0002   -0.0011   -0.0002   -0.0004    0.0002   -0.0004    0.0024    0.0031    0.0022
    69 C6     3d1-      -0.0039    0.0002   -0.0177   -0.0033   -0.0035    0.0037    0.0041   -0.0060    0.0078    0.0111
    70 C6     3d0        0.0029   -0.0002    0.0154    0.0033    0.0055   -0.0002   -0.0049    0.0154   -0.0038   -0.0081
    71 C6     3d1+       0.0005    0.0001    0.0019    0.0001    0.0004   -0.0000   -0.0001    0.0009   -0.0009   -0.0009
    72 C6     3d2+      -0.0017    0.0003   -0.0043   -0.0014   -0.0022    0.0000    0.0002    0.0069    0.0085    0.0086
    73 C19    1s         0.0014   -0.0080    0.0027   -0.0568    0.0401   -0.0190    0.0132   -0.0018    0.0091   -0.0006
    74 C19    2s         0.0080    0.0141    0.0128    0.3173   -0.2752    0.1599   -0.0882    0.0222   -0.0924    0.0211
    75 C19    3s         0.0090   -0.0185    0.0157   -0.1107    0.0706   -0.0289    0.0332   -0.0026    0.0180    0.0054
    76 C19    4s         0.0034   -0.0020    0.0049   -0.0243    0.0161   -0.0066    0.0096   -0.0008    0.0054    0.0014
    77 C19    2px        0.0020    0.0340    0.0031    0.0512    0.0008   -0.0247    0.0451   -0.0238    0.0761    0.0924
    78 C19    3px       -0.0012    0.0084    0.0038   -0.0021    0.0045   -0.0003   -0.0087   -0.0021   -0.0096   -0.0043
    79 C19    4px       -0.0012    0.0003   -0.0006   -0.0084    0.0118   -0.0086    0.0029   -0.0026    0.0066    0.0014
    80 C19    2py        0.0029    0.0015    0.0040    0.0486   -0.0090   -0.0153    0.0703   -0.0120    0.2050   -0.1105
    81 C19    3py        0.0038   -0.0086    0.0050   -0.0298    0.0184   -0.0039   -0.0091    0.0008   -0.0231    0.0167
    82 C19    4py       -0.0003    0.0006   -0.0003   -0.0137    0.0139   -0.0094    0.0131    0.0002    0.0076   -0.0035
    83 C19    2pz        0.0050   -0.0055    0.0018    0.0072   -0.0060    0.0013    0.0154   -0.0005    0.0244   -0.0280
    84 C19    3pz        0.0062   -0.0062    0.0021   -0.0041   -0.0022    0.0029    0.0026   -0.0007   -0.0063    0.0021
    85 C19    4pz        0.0006   -0.0005    0.0002   -0.0023    0.0018   -0.0013    0.0022   -0.0004    0.0004   -0.0006
    86 C19    3d2-       0.0004    0.0054   -0.0005    0.0116   -0.0025   -0.0025    0.0081   -0.0010    0.0145   -0.0045
    87 C19    3d1-      -0.0000   -0.0008   -0.0000    0.0027   -0.0015    0.0002    0.0013   -0.0003    0.0051   -0.0037
    88 C19    3d0       -0.0001   -0.0011   -0.0001   -0.0082    0.0033    0.0004   -0.0034    0.0015   -0.0086   -0.0026
    89 C19    3d1+       0.0001    0.0014    0.0000    0.0019   -0.0000   -0.0009    0.0019   -0.0007    0.0015    0.0044
    90 C19    3d2+       0.0006    0.0025   -0.0002   -0.0066    0.0040   -0.0008   -0.0033    0.0007   -0.0126    0.0067
    91 N2     1s        -0.0057   -0.0406    0.0012   -0.0034   -0.0053    0.0018    0.0049    0.0016   -0.0028    0.0002
    92 N2     2s         0.0522    0.5854   -0.0322   -0.0209    0.2045   -0.1109   -0.1387   -0.0095   -0.1353   -0.0168
    93 N2     3s        -0.0122   -0.0782    0.0004   -0.0086   -0.0017   -0.0003    0.0122    0.0064   -0.0111    0.0030
    94 N2     4s        -0.0031   -0.0254    0.0006   -0.0004   -0.0027    0.0013    0.0042    0.0014    0.0002    0.0006
    95 N2     2px       -0.0009   -0.0341    0.0088   -0.1353   -0.0436    0.1197   -0.3663   -0.0146    0.0764   -0.2745
    96 N2     3px       -0.0095   -0.0021    0.0084    0.0249    0.0353   -0.0632    0.0864    0.0057    0.0000    0.0564
    97 N2     4px        0.0006    0.0034    0.0017   -0.0049    0.0072   -0.0054   -0.0018   -0.0002    0.0024    0.0070
    98 N2     2py        0.0007    0.0101    0.0029   -0.1231   -0.0592    0.1138    0.1918    0.1575   -0.2865   -0.1111
    99 N2     3py       -0.0152   -0.0383   -0.0025    0.0351    0.0487   -0.0505   -0.0195   -0.0380    0.0579    0.0167
   100 N2     4py       -0.0015   -0.0129   -0.0001   -0.0010    0.0040   -0.0042    0.0090   -0.0010    0.0005    0.0037
   101 N2     2pz       -0.0087   -0.0159    0.0043    0.0147   -0.0100    0.0019    0.1044    0.0567   -0.1424   -0.0134
   102 N2     3pz       -0.0029    0.0272   -0.0013    0.0193   -0.0033   -0.0036   -0.0351   -0.0236    0.0224    0.0004
   103 N2     4pz       -0.0015   -0.0023   -0.0005    0.0037   -0.0016    0.0006    0.0026   -0.0015    0.0011    0.0010
   104 N2     3d2-       0.0012    0.0076   -0.0002   -0.0022   -0.0070    0.0090    0.0010    0.0051   -0.0068   -0.0038
   105 N2     3d1-      -0.0008    0.0018   -0.0007    0.0025    0.0043   -0.0038   -0.0098   -0.0026    0.0052   -0.0011
   106 N2     3d0       -0.0010   -0.0144    0.0005    0.0017   -0.0022    0.0008   -0.0063   -0.0028    0.0071   -0.0010
   107 N2     3d1+      -0.0005   -0.0030    0.0002    0.0022   -0.0016    0.0004    0.0065    0.0026   -0.0036    0.0030
   108 N2     3d2+       0.0001    0.0045   -0.0002    0.0110    0.0064   -0.0112    0.0198   -0.0005    0.0010    0.0119
   109 N5     1s        -0.0198    0.0010   -0.0421   -0.0017    0.0006    0.0033    0.0016   -0.0035   -0.0034   -0.0025
   110 N5     2s         0.1341   -0.0140    0.5783    0.0414   -0.0166   -0.2154   -0.0910    0.1586   -0.0862   -0.1099
   111 N5     3s        -0.0485    0.0054   -0.0773   -0.0043   -0.0064   -0.0107   -0.0020   -0.0006   -0.0149   -0.0131
   112 N5     4s        -0.0114    0.0025   -0.0256   -0.0021   -0.0029   -0.0006    0.0002   -0.0020   -0.0017   -0.0013
   113 N5     2px        0.0051    0.0009   -0.0055   -0.0023   -0.0183   -0.0079    0.0150   -0.0468   -0.0151    0.0005
   114 N5     3px       -0.0023   -0.0009    0.0011    0.0137    0.0022   -0.0013   -0.0052    0.0157    0.0030    0.0019
   115 N5     4px       -0.0006   -0.0003   -0.0020    0.0032   -0.0002   -0.0000   -0.0005   -0.0007   -0.0002   -0.0007
   116 N5     2py       -0.0284   -0.0079   -0.0177    0.0395    0.1319    0.1196   -0.0496    0.3560    0.1438    0.0795
   117 N5     3py        0.0202   -0.0183    0.0128   -0.0104   -0.0228   -0.0463    0.0166   -0.0893   -0.0210   -0.0063
   118 N5     4py       -0.0052   -0.0034    0.0069    0.0019    0.0049   -0.0019    0.0002    0.0039    0.0008    0.0021
   119 N5     2pz       -0.0265    0.0266    0.0082   -0.0436   -0.1194   -0.1106   -0.0316    0.1698    0.1652    0.1773
   120 N5     3pz       -0.0040    0.0273    0.0399    0.0110    0.0369    0.0911    0.0017   -0.0434   -0.0303   -0.0369
   121 N5     4pz        0.0069    0.0035    0.0101    0.0004   -0.0013    0.0046   -0.0030    0.0074    0.0019    0.0000
   122 N5     3d2-      -0.0010   -0.0000   -0.0032    0.0002    0.0004    0.0007    0.0002   -0.0009   -0.0013   -0.0007
   123 N5     3d1-       0.0025   -0.0012   -0.0080    0.0002   -0.0029   -0.0092   -0.0027    0.0071    0.0012    0.0022
   124 N5     3d0       -0.0027    0.0003    0.0034    0.0029    0.0079    0.0071   -0.0027    0.0166    0.0037    0.0009
   125 N5     3d1+       0.0000   -0.0001    0.0004    0.0004    0.0012    0.0021    0.0007   -0.0029   -0.0017   -0.0017
   126 N5     3d2+      -0.0054    0.0010   -0.0168    0.0006    0.0042    0.0075   -0.0009    0.0092    0.0039    0.0021
   127 O7     1s         0.0007    0.0033   -0.0007   -0.0041    0.0020    0.0004   -0.0140   -0.0029   -0.0117    0.0219
   128 O7     2s        -0.0783   -0.3012    0.0064   -0.2026    0.0580    0.0299   -0.3564   -0.0726   -0.1874    0.3585
   129 O7     3s        -0.0027   -0.0052   -0.0025   -0.0193    0.0085    0.0001   -0.0439   -0.0093   -0.0324    0.0620
   130 O7     4s         0.0000    0.0013   -0.0008   -0.0034    0.0019   -0.0005   -0.0085   -0.0020   -0.0063    0.0129
   131 O7     2px       -0.0054    0.0058   -0.0008   -0.0056    0.0214   -0.0291    0.1698    0.0397    0.0605   -0.1982
   132 O7     3px        0.0024    0.0079   -0.0000   -0.0082   -0.0048    0.0058   -0.0245   -0.0083    0.0006    0.0149
   133 O7     4px        0.0010    0.0019    0.0003   -0.0013   -0.0023    0.0018   -0.0024   -0.0011    0.0009    0.0006
   134 O7     2py        0.0120    0.0432   -0.0014   -0.0339    0.0181    0.0033   -0.1665   -0.0394   -0.2204    0.4140
   135 O7     3py       -0.0032    0.0032   -0.0010    0.0110   -0.0062   -0.0009    0.0251    0.0060    0.0298   -0.0444
   136 O7     4py       -0.0005    0.0001    0.0003   -0.0011   -0.0015    0.0012    0.0028    0.0013    0.0042   -0.0065
   137 O7     2pz        0.0012    0.0033   -0.0015   -0.0055    0.0032    0.0029   -0.0429   -0.0096   -0.0382    0.0855
   138 O7     3pz       -0.0019   -0.0011   -0.0025    0.0017    0.0014   -0.0021    0.0047    0.0010    0.0045   -0.0083
   139 O7     4pz       -0.0008   -0.0003   -0.0008   -0.0005    0.0005   -0.0005    0.0005    0.0003    0.0003   -0.0012
   140 O7     3d2-       0.0015    0.0031   -0.0001    0.0010   -0.0022    0.0024   -0.0120   -0.0026   -0.0063    0.0163
   141 O7     3d1-      -0.0006   -0.0023    0.0001   -0.0001   -0.0005    0.0004    0.0020    0.0006    0.0037   -0.0069
   142 O7     3d0        0.0007    0.0039   -0.0004    0.0015    0.0002   -0.0003   -0.0046   -0.0014   -0.0043    0.0105
   143 O7     3d1+       0.0001    0.0005   -0.0003    0.0007   -0.0005    0.0005   -0.0026   -0.0004   -0.0011    0.0031
   144 O7     3d2+       0.0009    0.0051   -0.0003   -0.0026    0.0039   -0.0026    0.0001   -0.0001   -0.0105    0.0140
   145 O8     1s        -0.0232    0.0024    0.0042    0.0001    0.0028    0.0006   -0.0021    0.0118   -0.0013   -0.0013
   146 O8     2s         0.6695   -0.1375   -0.3260    0.0924    0.1536    0.0173   -0.0562    0.3425   -0.0277   -0.0099
   147 O8     3s        -0.0262   -0.0011   -0.0086    0.0029    0.0133    0.0018   -0.0066    0.0431   -0.0038   -0.0034
   148 O8     4s        -0.0116    0.0008    0.0002   -0.0004    0.0015    0.0000   -0.0007    0.0088   -0.0008   -0.0005
   149 O8     2px        0.0049   -0.0017    0.0001   -0.0067   -0.0068    0.0013    0.0065   -0.0007    0.0058    0.0155
   150 O8     3px        0.0015   -0.0025   -0.0007   -0.0027    0.0039   -0.0015   -0.0012    0.0003   -0.0010   -0.0016
   151 O8     4px        0.0000   -0.0006   -0.0002   -0.0012    0.0017   -0.0007   -0.0007    0.0002   -0.0001   -0.0008
   152 O8     2py        0.0906   -0.0245   -0.0103    0.0120   -0.0004   -0.0392    0.0147   -0.1416   -0.0761   -0.0546
   153 O8     3py       -0.0289   -0.0027   -0.0043    0.0009    0.0054   -0.0080   -0.0047    0.0194    0.0051    0.0025
   154 O8     4py       -0.0019   -0.0021   -0.0015   -0.0007    0.0012   -0.0014    0.0003    0.0023    0.0019    0.0012
   155 O8     2pz        0.1108   -0.0064   -0.0435   -0.0133   -0.0269    0.0216    0.0264   -0.1236    0.0726    0.0473
   156 O8     3pz       -0.0316    0.0115    0.0087    0.0056    0.0059    0.0140    0.0021    0.0226   -0.0090   -0.0036
[...]
AIVX     1  Mu1.0001  In1.026 Se1.046               0.10646269      0.00022333     -0.00066956     -0.00000015
AIVX     1  Mu1.0001  In1.027 Se1.046               0.24867277      0.00017384     -0.00043009     -0.00000007
AIVX     1  Mu1.0001  In1.028 Se1.046               0.20044380     -0.00006627      0.00009850     -0.00000001
AIVX     1  Mu1.0001  In1.029 Se1.046               0.06669615     -0.00061064      0.00156796     -0.00000096
AIVX     1  Mu1.0001  In1.021 Se1.047               0.24311969     -0.00012388      0.00015887     -0.00000002
AIVX     1  Mu1.0001  In1.022 Se1.047               0.14122249     -0.00027165      0.00016134     -0.00000004
AIVX     1  Mu1.0001  In1.023 Se1.047               0.28898692      0.00037675      0.00014155      0.00000005
AIVX     1  Mu1.0001  In1.024 Se1.047               0.15542226     -0.00021318      0.00023363     -0.00000005
AIVX     1  Mu1.0001  In1.025 Se1.047               0.26521468      0.00055371     -0.00122124     -0.00000068
AIVX     1  Mu1.0001  In1.026 Se1.047               0.10913076     -0.00014013      0.00012045     -0.00000002
AIVX     1  Mu1.0001  In1.027 Se1.047               0.25134084      0.00042018     -0.00101096     -0.00000042
AIVX     1  Mu1.0001  In1.028 Se1.047               0.20311187     -0.00046091      0.00104505     -0.00000048
AIVX     1  Mu1.0001  In1.029 Se1.047               0.06936421      0.00016066     -0.00031248     -0.00000005
AIVX     1  Mu1.0001  In1.021 Se1.048               0.24758234     -0.00024286      0.00021559     -0.00000005
AIVX     1  Mu1.0001  In1.022 Se1.048               0.14568514     -0.00022089      0.00076063     -0.00000017
AIVX     1  Mu1.0001  In1.023 Se1.048               0.29344957     -0.00067935      0.00067225     -0.00000046
AIVX     1  Mu1.0001  In1.024 Se1.048               0.15988491     -0.00020517      0.00028813     -0.00000006
AIVX     1  Mu1.0001  In1.025 Se1.048               0.26967733     -0.00085503      0.00157861     -0.00000135
AIVX     1  Mu1.0001  In1.026 Se1.048               0.11359341      0.00020610     -0.00050590     -0.00000010
AIVX     1  Mu1.0001  In1.027 Se1.048               0.25580349      0.00023078     -0.00012383     -0.00000003
AIVX     1  Mu1.0001  In1.028 Se1.048               0.20757451     -0.00178298      0.00324279     -0.00000578
AIVX     1  Mu1.0001  In1.029 Se1.048               0.07382686     -0.00035539      0.00097318     -0.00000035
AIVX     1  Mu1.0001  In1.021 Se1.049               0.27541171     -0.00038785      0.00031749     -0.00000012
AIVX     1  Mu1.0001  In1.022 Se1.049               0.17351451     -0.00010736      0.00033735     -0.00000004
AIVX     1  Mu1.0001  In1.024 Se1.049               0.18771428     -0.00012479      0.00017431     -0.00000002
AIVX     1  Mu1.0001  In1.025 Se1.049               0.29750670     -0.00127830      0.00228344     -0.00000292
AIVX     1  Mu1.0001  In1.026 Se1.049               0.14142278     -0.00015629      0.00057508     -0.00000009
AIVX     1  Mu1.0001  In1.027 Se1.049               0.28363286      0.00035457     -0.00033559     -0.00000012
AIVX     1  Mu1.0001  In1.028 Se1.049               0.23540389     -0.00114124      0.00173372     -0.00000198
AIVX     1  Mu1.0001  In1.029 Se1.049               0.10165624      0.00076813     -0.00181629     -0.00000140
AIVX     1  Mu1.0001  In1.021 Se1.050               0.28329256      0.00196556     -0.00304647     -0.00000599
AIVX     1  Mu1.0001  In1.022 Se1.050               0.18139536     -0.00054364      0.00103141     -0.00000056
AIVX     1  Mu1.0001  In1.024 Se1.050               0.19559513     -0.00019259      0.00023603     -0.00000005
AIVX     1  Mu1.0001  In1.026 Se1.050               0.14930363      0.00082113     -0.00151955     -0.00000125
AIVX     1  Mu1.0001  In1.027 Se1.050               0.29151371     -0.00080473      0.00156333     -0.00000126
AIVX     1  Mu1.0001  In1.028 Se1.050               0.24328474     -0.00286529      0.00464105     -0.00001330
AIVX     1  Mu1.0001  In1.029 Se1.050               0.10953709     -0.00027026      0.00106379     -0.00000029
AIVX     1  Mu1.0001  In1.021 Se1.051               0.27284985      0.00122437     -0.00221225     -0.00000271
AIVX     1  Mu1.0001  In1.022 Se1.051               0.17095265     -0.00055221      0.00073578     -0.00000041
AIVX     1  Mu1.0001  In1.024 Se1.051               0.18515242     -0.00030139      0.00051154     -0.00000015
AIVX     1  Mu1.0001  In1.025 Se1.051               0.29494484     -0.00105735      0.00176359     -0.00000186
AIVX     1  Mu1.0001  In1.026 Se1.051               0.13886092     -0.00010525      0.00008915     -0.00000001
AIVX     1  Mu1.0001  In1.027 Se1.051               0.28107100     -0.00206217      0.00329466     -0.00000679
AIVX     1  Mu1.0001  In1.028 Se1.051               0.23284203      0.00109918     -0.00207385     -0.00000228
AIVX     1  Mu1.0001  In1.029 Se1.051               0.09909438     -0.00004141      0.00033517     -0.00000001
AIVX     1  Mu1.0001  In1.022 Se1.052               0.23431683      0.00120286     -0.00135819     -0.00000163
AIVX     1  Mu1.0001  In1.024 Se1.052               0.24851660      0.00058977     -0.00082657     -0.00000049
AIVX     1  Mu1.0001  In1.026 Se1.052               0.20222510      0.00026119     -0.00006930     -0.00000002
AIVX     1  Mu1.0001  In1.028 Se1.052               0.29620621      0.00161335     -0.00237905     -0.00000384
AIVX     1  Mu1.0001  In1.029 Se1.052               0.16245855      0.00047332     -0.00126737     -0.00000060
AIVX     1  Mu1.0001  In1.022 Se1.053               0.22667302     -0.00029651      0.00060977     -0.00000018
AIVX     1  Mu1.0001  In1.024 Se1.053               0.24087278      0.00012885     -0.00010763     -0.00000001
AIVX     1  Mu1.0001  In1.026 Se1.053               0.19458129     -0.00111613      0.00197795     -0.00000221
AIVX     1  Mu1.0001  In1.028 Se1.053               0.28856239      0.00072456     -0.00135899     -0.00000098
AIVX     1  Mu1.0001  In1.029 Se1.053               0.15481474      0.00074002     -0.00173104     -0.00000128
AIVX     1  Mu1.0001  In1.022 Se1.054               0.25680597     -0.00013300      0.00025052     -0.00000003
AIVX     1  Mu1.0001  In1.024 Se1.054               0.27100574     -0.00018409      0.00054588     -0.00000010
AIVX     1  Mu1.0001  In1.026 Se1.054               0.22471424     -0.00029639      0.00091800     -0.00000027
AIVX     1  Mu1.0001  In1.029 Se1.054               0.18494770      0.00050195     -0.00098275     -0.00000049
AIVX     1  Mu1.0001  In1.022 Se1.055               0.26861040     -0.00068772      0.00104979     -0.00000072
AIVX     1  Mu1.0001  In1.024 Se1.055               0.28281017     -0.00008634      0.00048440     -0.00000004
AIVX     1  Mu1.0001  In1.026 Se1.055               0.23651867     -0.00056468      0.00100899     -0.00000057
AIVX     1  Mu1.0001  In1.029 Se1.055               0.19675213     -0.00003802     -0.00017214      0.00000001
AIVX     1  Mu1.0001  In1.022 Se1.056               0.24822907     -0.00000327     -0.00010072      0.00000000
AIVX     1  Mu1.0001  In1.024 Se1.056               0.26242884     -0.00059199      0.00082798     -0.00000049
AIVX     1  Mu1.0001  In1.026 Se1.056               0.21613734      0.00010019     -0.00012105     -0.00000001
AIVX     1  Mu1.0001  In1.029 Se1.056               0.17637079      0.00046495     -0.00092524     -0.00000043
AIVX     1  Mu1.0001  In1.022 Se1.057               0.29319167      0.00077153     -0.00109189     -0.00000084
AIVX     1  Mu1.0001  In1.026 Se1.057               0.26109994     -0.00006050      0.00010961     -0.00000001
AIVX     1  Mu1.0001  In1.029 Se1.057               0.22133340      0.00069991     -0.00181691     -0.00000127
AIVX     1  Mu1.0001  In1.026 Se1.058               0.29301980      0.00036642     -0.00077450     -0.00000028
AIVX     1  Mu1.0001  In1.029 Se1.058               0.25325325     -0.00035160      0.00102762     -0.00000036
AIVX     1  Mu1.0001  In1.026 Se1.059               0.27907684     -0.00076901      0.00153444     -0.00000118
AIVX     1  Mu1.0001  In1.029 Se1.059               0.23931030      0.00074427     -0.00157569     -0.00000117
AIVX     1  Mu1.0001  In1.026 Se1.060               0.27400097      0.00006999      0.00013309      0.00000001
AIVX     1  Mu1.0001  In1.029 Se1.060               0.23423442      0.00014348     -0.00024724     -0.00000004
AIVX     1  Mu1.0001  In1.029 Se1.061               0.26168154     -0.00028063      0.00090214     -0.00000025
AIVX     1  Mu1.0001  In1.029 Se1.064               0.27901088     -0.00072564      0.00163572     -0.00000119
--
 
   (Skipping property calculation,
    use PROP keyword to activate)
--
 
  Total CASPT2 energies:
::    CASPT2 Root  1     Total energy:   -455.38295750
::    CASPT2 Root  2     Total energy:   -455.17461909
::    CASPT2 Root  3     Total energy:   -455.17290871
::    CASPT2 Root  4     Total energy:   -455.13192798
::    CASPT2 Root  5     Total energy:   -455.11500568
::    CASPT2 Root  6     Total energy:   -455.12013656
::    CASPT2 Root  7     Total energy:   -455.08361209
 
++ Multi-State CASPT2 section:
********************************************************************************
  MULTI-STATE CASPT2 SECTION
--------------------------------------------------------------------------------
 
  Output diagonal energies have been shifted. Add   -455.000000000000     
 
  Effective Hamiltonian matrix (Symmetric):
 
                1               2               3               4               5
   1        -0.38295750
   2         0.00078019     -0.17461909
   3         0.00057624      0.00010616     -0.17290871
   4         0.01005255     -0.00012702     -0.00127761     -0.13192798
   5        -0.01470551      0.00564680     -0.00327396      0.00139446     -0.11500568
   6        -0.01512007      0.00288160      0.00272727     -0.00044058     -0.01804318
   7        -0.01378002      0.00009390     -0.00022304     -0.00103066     -0.01151476
 
                6               7
   6        -0.12013656
   7        -0.01765615     -0.08361209
 
       Total MS-CASPT2 energies:
::    MS-CASPT2 Root  1     Total energy:   -455.38594517
::    MS-CASPT2 Root  2     Total energy:   -455.17560267
::    MS-CASPT2 Root  3     Total energy:   -455.17315811
::    MS-CASPT2 Root  4     Total energy:   -455.13993478
::    MS-CASPT2 Root  5     Total energy:   -455.13151050
::    MS-CASPT2 Root  6     Total energy:   -455.09922901
::    MS-CASPT2 Root  7     Total energy:   -455.07578738
 
       Eigenvectors:
            0.99397610      0.02082146      0.00552267     -0.09350253      0.04840817
           -0.00621041      0.98143974      0.10825299      0.15220730     -0.01796048
           -0.00275572     -0.10719684      0.99219143     -0.00466312     -0.02552940
           -0.03936706     -0.00273257      0.02814469      0.10003710      0.99249780
            0.06069310     -0.12507234      0.03200440      0.57615668     -0.09631021
            0.06409343     -0.09069236     -0.04460080      0.72237424     -0.04818808
            0.05122469     -0.03123599     -0.00114701      0.32292413     -0.00571664
 
            0.00255401     -0.02132809
           -0.03585346     -0.01560940
            0.05777923     -0.00674328
           -0.04615458     -0.02147292
           -0.78928934     -0.12425429
            0.60065066     -0.31741118
            0.09736757      0.93947108
 
--
 
  THE ORIGINAL CI ARRAYS ARE NOW MIXED AS LINEAR
  COMBINATIONS, GIVEN BY THE EIGENVECTORS.
  A NEW JOBIPH FILE NAMED 'JOBMIX' IS PREPARED.
********************************************************************************
 
++ Mixed CI coefficients:
  The CI coefficients for the MIXED state nr.   1
--------------------------------------------------------------------------------
 CI COEFFICIENTS LARGER THAN  0.50D-01
  Occupation of active orbitals, and spin coupling
  of open shells. (u,d: Spin up or down).
  SGUGA info is (Midvert:IsyUp:UpperWalk/LowerWalk)
        Conf  SGUGA info        Occupation    Coefficient         Weight
           1  ( 1:1:   1/   1)   22222200       -0.971192       0.943214
           4  ( 1:1:   4/   1)   22222020        0.095354       0.009092
          61  ( 2:1:   1/   3)   2u2222d0       -0.082167       0.006751
          84  ( 2:1:   4/   4)   u222220d       -0.101373       0.010277
         145  ( 3:1:   5/   5)   22022202        0.087542       0.007664
         171  ( 3:1:   1/   8)   20222220        0.090723       0.008231
         195  ( 3:1:   5/  10)   02222202        0.077264       0.005970
 
  The CI coefficients for the MIXED state nr.   2
--------------------------------------------------------------------------------
 CI COEFFICIENTS LARGER THAN  0.50D-01
  Occupation of active orbitals, and spin coupling
  of open shells. (u,d: Spin up or down).
  SGUGA info is (Midvert:IsyUp:UpperWalk/LowerWalk)
        Conf  SGUGA info        Occupation    Coefficient         Weight
           2  ( 1:1:   2/   1)   22222ud0       -0.233911       0.054715
           7  ( 1:1:   7/   1)   22222u0d        0.076613       0.005870
           8  ( 1:1:   8/   1)   2222u20d        0.088338       0.007804
          21  ( 2:1:   1/   1)   222u22d0       -0.921814       0.849741
          22  ( 2:1:   2/   1)   222u2d20        0.097615       0.009529
          23  ( 2:1:   3/   1)   222ud220       -0.051185       0.002620
          62  ( 2:1:   2/   3)   2u222d20        0.058338       0.003403
         121  ( 3:1:   1/   3)   2u2d2220        0.182425       0.033279
         213  ( 4:1:   1/   3)   u22u22dd       -0.078827       0.006214
         250  ( 5:1:   2/   4)   220u22d2        0.079467       0.006315
         270  ( 5:1:   2/   9)   022u22d2        0.076017       0.005779
 
  The CI coefficients for the MIXED state nr.   3
--------------------------------------------------------------------------------
 CI COEFFICIENTS LARGER THAN  0.50D-01
  Occupation of active orbitals, and spin coupling
  of open shells. (u,d: Spin up or down).
  SGUGA info is (Midvert:IsyUp:UpperWalk/LowerWalk)
        Conf  SGUGA info        Occupation    Coefficient         Weight
           7  ( 1:1:   7/   1)   22222u0d       -0.254963       0.065006
           8  ( 1:1:   8/   1)   2222u20d       -0.909875       0.827872
          10  ( 1:1:  10/   1)   2222udud       -0.058517       0.003424
          12  ( 1:1:  12/   1)   2222uudd       -0.110217       0.012148
          13  ( 1:1:  13/   1)   2222u02d        0.076887       0.005912
          21  ( 2:1:   1/   1)   222u22d0       -0.102867       0.010582
          54  ( 2:1:  14/   2)   22u2d202       -0.163707       0.026800
          68  ( 2:1:   8/   3)   2u22u2dd        0.069533       0.004835
          71  ( 2:1:  11/   3)   2u22ud2d       -0.061543       0.003788
          94  ( 2:1:  14/   4)   u222d202        0.126517       0.016006
         174  ( 3:1:   4/   8)   2022u22d       -0.098073       0.009618
 
  The CI coefficients for the MIXED state nr.   4
--------------------------------------------------------------------------------
 CI COEFFICIENTS LARGER THAN  0.50D-01
  Occupation of active orbitals, and spin coupling
  of open shells. (u,d: Spin up or down).
  SGUGA info is (Midvert:IsyUp:UpperWalk/LowerWalk)
        Conf  SGUGA info        Occupation    Coefficient         Weight
           2  ( 1:1:   2/   1)   22222ud0        0.878124       0.771101
           4  ( 1:1:   4/   1)   22222020        0.176601       0.031188
           7  ( 1:1:   7/   1)   22222u0d       -0.098314       0.009666
          21  ( 2:1:   1/   1)   222u22d0       -0.239023       0.057132
          44  ( 2:1:   4/   2)   22u2220d        0.164575       0.027085
          62  ( 2:1:   2/   3)   2u222d20       -0.211483       0.044725
          85  ( 2:1:   5/   4)   u2222dud        0.053353       0.002847
          87  ( 2:1:   7/   4)   u2222udd        0.082271       0.006769
         121  ( 3:1:   1/   3)   2u2d2220        0.058233       0.003391
         146  ( 3:1:   6/   5)   22022ud2       -0.079861       0.006378
         171  ( 3:1:   1/   8)   20222220       -0.116524       0.013578
         196  ( 3:1:   6/  10)   02222ud2       -0.069625       0.004848
 
  The CI coefficients for the MIXED state nr.   5
--------------------------------------------------------------------------------
 CI COEFFICIENTS LARGER THAN  0.50D-01
  Occupation of active orbitals, and spin coupling
  of open shells. (u,d: Spin up or down).
  SGUGA info is (Midvert:IsyUp:UpperWalk/LowerWalk)
        Conf  SGUGA info        Occupation    Coefficient         Weight
           2  ( 1:1:   2/   1)   22222ud0       -0.164938       0.027205
           7  ( 1:1:   7/   1)   22222u0d       -0.077977       0.006080
          44  ( 2:1:   4/   2)   22u2220d        0.922771       0.851507
          47  ( 2:1:   7/   2)   22u22udd        0.091968       0.008458
          49  ( 2:1:   9/   2)   22u2202d       -0.076188       0.005805
          84  ( 2:1:   4/   4)   u222220d        0.073962       0.005470
         165  ( 3:1:   5/   7)   u2d22202       -0.229635       0.052732
         195  ( 3:1:   5/  10)   02222202        0.056545       0.003197
         219  ( 4:1:   1/   4)   2uu222dd       -0.067664       0.004578
         220  ( 4:1:   2/   4)   2uu22d2d        0.056530       0.003196
         293  ( 5:1:   1/  15)   20u2222d        0.096750       0.009360
 
  The CI coefficients for the MIXED state nr.   6
--------------------------------------------------------------------------------
 CI COEFFICIENTS LARGER THAN  0.50D-01
  Occupation of active orbitals, and spin coupling
  of open shells. (u,d: Spin up or down).
  SGUGA info is (Midvert:IsyUp:UpperWalk/LowerWalk)
        Conf  SGUGA info        Occupation    Coefficient         Weight
           2  ( 1:1:   2/   1)   22222ud0        0.090161       0.008129
           7  ( 1:1:   7/   1)   22222u0d        0.887640       0.787904
           8  ( 1:1:   8/   1)   2222u20d       -0.250969       0.062985
          24  ( 2:1:   4/   1)   222u220d        0.172137       0.029631
          27  ( 2:1:   7/   1)   222u2udd       -0.053771       0.002891
          44  ( 2:1:   4/   2)   22u2220d        0.102668       0.010541
          65  ( 2:1:   5/   3)   2u222dud       -0.141947       0.020149
          67  ( 2:1:   7/   3)   2u222udd       -0.193543       0.037459
         173  ( 3:1:   3/   8)   20222u2d        0.132156       0.017465
 
  The CI coefficients for the MIXED state nr.   7
--------------------------------------------------------------------------------
 CI COEFFICIENTS LARGER THAN  0.50D-01
  Occupation of active orbitals, and spin coupling
  of open shells. (u,d: Spin up or down).
  SGUGA info is (Midvert:IsyUp:UpperWalk/LowerWalk)
        Conf  SGUGA info        Occupation    Coefficient         Weight
           7  ( 1:1:   7/   1)   22222u0d       -0.180786       0.032684
          24  ( 2:1:   4/   1)   222u220d        0.890667       0.793287
          25  ( 2:1:   5/   1)   222u2dud       -0.220075       0.048433
          26  ( 2:1:   6/   1)   222ud2ud       -0.063551       0.004039
          27  ( 2:1:   7/   1)   222u2udd       -0.298485       0.089093
          28  ( 2:1:   8/   1)   222uu2dd       -0.056779       0.003224
         208  ( 4:1:   2/   2)   2u2u2d2d       -0.069208       0.004790
         261  ( 5:1:   1/   7)   202u222d        0.080535       0.006486
 
--
 
--- Stop Module: caspt2 at Tue Jun 10 19:56:58 2025 /rc=_RC_ALL_IS_WELL_ ---
*** files: xmldump
    saved to directory /home/pcaah4/diamide_project
--- Module caspt2 spent 7 minutes 7 seconds ---

.##################.
.# Happy landing! #.
.##################.

    Timing: Wall=687.01 User=597.23 System=79.88
******************************************************
*** WorkDir at /srv/COMMUNAL_SCRATCH/12438 cleaned ***
******************************************************
