   This run of MOLCAS is using the pymolcas driver

                             OPE
                             OPE          NMOL  CASOP  ENMOLC A   SO
                 OPE        NMOLC        AS  OP EN  MO LC     AS  OP
                OPENM       OL CA        SO  PE NM  OL CA     SOP EN
                OP EN      MO   LC       AS  OP ENMOL  CASO   PENMOL
                OP  EN     MO   LC       AS  OP EN     MO     LC ASO
               OP   E  NMOL  C  AS       OP  EN MO     LC     AS  OP
               OP  E   NMO   LC AS        OPEN  MO     LCASOP EN   M
               O  PEN   MO  LCA  SO
            OPE   NMO   L   CAS    OP
        OPENMOL  CASOP     ENMOL   CASOPE
     OPENMOLCA   SOPENMOLCASOPEN   MOLCASOPE
    OPENMOLCAS   OP           EN   MOL    CAS
    OPENMOLCAS       OP  ENM        O     LCA
    OPENMOLCAS    OPEN  MOLCASO     P  E  NMO
    OPENMOLCAS     OP               E  N  MOL
    OPENMOLCA   SO           PENM   O  L  CAS    OPEN    MO    LCAS
    OPENMOLCA   SOP           ENM   O  L  CAS   OP  EN  MOLC  AS   O
    OPENMOLCA   SOPE           NM      O  LCA   S      OP  EN MO
    OPENMOLC                AS         O  PEN   M      OL  CA  SOPE
    OPENMO        LCASOPE  NMOL        C  ASO   P      ENMOLC     AS
    OPE     NMO      LCA  SO     P     E   NM   OL  CA SO  PE N   MO
          OPENMOLCA            SOPE   NMO        LCAS  O    P  ENMO
     OPENMOLCASOPENMOLCASOPENMOLCASOPENMOLCA
        OPENMOLCASOPENMOLCASOPENMOLCASOPE
            OPENMOLCASOPENMOLCASOPENM
               OPENMOLCASOPENMOLCA        version: v23.06
                   OPENMOLCASO
                       OPE                tag:

 OpenMolcas is free software; you can redistribute it and/or modify it
 under the terms of the GNU Lesser General Public License version 2.1.
 OpenMolcas is distributed in the hope that it will be useful, but it
 is provided "as is" and without any express or implied warranties.
 For more details see the full text of the license in the file
 LICENSE or in <http://www.gnu.org/licenses/>.

                 Copyright (C) The OpenMolcas Authors
           For the author list and the recommended citation,
                   consult the file CONTRIBUTORS.md

           *************************************************
           * pymolcas version py2.24                       *
           *   build 4567b286dd94b1984b333a4ddf893180      *
           *   (after the EMIL interpreter by V. Veryazov) *
           *************************************************

configuration info
------------------
Host name: loginchem01.nottingham.ac.uk (Linux)
C Compiler ID: Intel
C flags: -std=gnu99 -gcc-sys -qopenmp
Fortran Compiler ID: Intel
Fortran flags: -fpp -i8 -heap-arrays -qopenmp
Definitions: _MOLCAS_;_I8_;_LINUX_
Parallel: OFF (GA=OFF)


   ----------------------------------------------------------------------------------------------------
  |
  |              Project: orca_geometry_optimisation_285_270_BP86_def2-SVP_def2J_scf_cas1_ras12i11_cas8
  |       Submitted from: /home/pcaah4/diamide_project
  |         Scratch area: /srv/COMMUNAL_SCRATCH/12441
  |      Save outputs to: /home/pcaah4/diamide_project
  |               Molcas: /software/chemistry/openmolcas/openmolcas-23.06-openmp
  |
  | Scratch area is empty
  |
  |       MOLCAS_DRIVER = /software/chemistry/openmolcas/openmolcas-23.06-openmp/sbin/pymolcas
  | MOLCAS_KEEP_WORKDIR = NO
  |       MOLCAS_NPROCS = 1
  |       MOLCAS_SOURCE = /software/chemistry/openmolcas/openmolcas-23.06-openmp
  |    MOLCAS_STRUCTURE = 0
  |
   ----------------------------------------------------------------------------------------------------

++ ---------   Input file   ---------

&SEWARD
TITLE
orca_geometry_optimisation_285_270_BP86_def2-SVP_def2J_scf_cas1_ras12i11
MULTIPOLES
2
SDIPOLE
ANGMOM
0 0 0
BASIS SET
C.ANO-S...4S3P1D.
C1            0.101970    0.021765    0.294003 /Angstrom
C3            2.324234    1.074226   -0.067050 /Angstrom
C4            2.153347    1.831668   -1.405788 /Angstrom
C6            2.970104    1.948296   -3.747205 /Angstrom
C19          -0.710247   -1.234617   -0.011597 /Angstrom
END OF BASIS
BASIS SET
N.ANO-S...4S3P1D.
N2            1.465739   -0.099714    0.046153 /Angstrom
N5            2.997416    1.392473   -2.407205 /Angstrom
END OF BASIS
BASIS SET
O.ANO-S...4S3P1D.
O7           -0.397152    1.041029    0.751806 /Angstrom
O8            1.308989    2.703795   -1.575401 /Angstrom
END OF BASIS
BASIS SET
H.ANO-S...2S1P.
H9           -1.182161   -1.125485   -1.010654 /Angstrom
H10          -1.524970   -1.318004    0.731448 /Angstrom
H11          -0.109375   -2.166244   -0.007942 /Angstrom
H12           1.756142   -0.925969   -0.482019 /Angstrom
H13           2.022170    1.780769    0.730210 /Angstrom
H14           3.379315    0.771831    0.102473 /Angstrom
H15           3.717224    0.706826   -2.175329 /Angstrom
H16           2.766039    1.169815   -4.513500 /Angstrom
H17           2.152783    2.694510   -3.768239 /Angstrom
H18           3.924288    2.455675   -4.006237 /Angstrom
END OF BASIS
END OF INPUT

&RASSCF
TITLE
orca_geometry_optimisation_285_270_BP86_def2-SVP_def2J_scf_cas1_ras12i11
LUMORB
SPIN
1
SYMMETRY
1
NACTEL
12  0  0
INACTIVE
29
DELETED  ! delete Rydberg orbitals from an initial CAS(12,11) if done
3
FROZEN
0
RAS2
8
ITERATIONS
64 25
CIROOT
7 7
1 2 3 4 5 6 7
1 1 1 1 1 1 1
LEVSHFT
0.3
CIMX
20
FILEorb = /home/pcaah4/diamide_project/cas/ras12i11/ras_orb/orca_geometry_optimisation_285_270_BP86_def2-SVP_def2J_scf_cas1_ras12i11.RasOrb
ALTEr
2
 1 36 38
 1 37 40
END OF INPUT

&RASSI
NROF JOBIPH
    1 7
    1 2 3 5 4 6 7
TOFILE
TRDI
TDMN
1.0D-6
END OF INPUT

&CASPT2
TITLE
orca_geometry_optimisation_285_270_BP86_def2-SVP_def2J_scf_cas1_ras12i11
MULTISTATE
7 1 2 3 4 5 6 7
SHIFT
0.35
MAXITER
50
END OF INPUT

-- ----------------------------------

--- Start Module: seward at Tue Jun 10 19:57:10 2025 ---
 
()()()()()()()()()()()()()()()()()()()()()()()()()()()()()()()()()()()()()()()()()()()()()()()()()()

                                              &SEWARD

                                   only a single process is used
                       available to each process: 2.0 GB of memory, 1 thread
                                            pid: 3125771
()()()()()()()()()()()()()()()()()()()()()()()()()()()()()()()()()()()()()()()()()()()()()()()()()()
 
               SEWARD will generate:
                  Multipole Moment integrals up to order  2
                  Kinetic Energy integrals
                  Nuclear Attraction integrals (point charge)
                  One-Electron Hamiltonian integrals
                  Velocity integrals
                  Orbital angular momentum around ( 0.0000  0.0000  0.0000 )
                  Velocity quadrupole around ( 2.5597  1.8272 -1.7434 )
                  Two-Electron Repulsion integrals
 
 Title:
            orca_geometry_optimisation_285_270_BP86_def2-SVP_def2J_scf_cas1_ras12i11    
 
 
                   Integrals are discarded if absolute value <: 0.10E-13
                   Integral cutoff threshold is set to       <: 0.10E-15
 
++    Symmetry information:
      ---------------------
 
                    Character Table for C1 
 
                             E  
                    a        1  x, y, xy, Rz, z, xz, Ry, yz, Rx, I
--
 
 
++    Basis set information:
      ----------------------
 
 
      Basis set label: C.ANO-S...4S3P1D......
 
      Electronic valence basis set:
      ------------------
      Associated Effective Charge   6.000000 au
      Associated Actual Charge      6.000000 au
      Nuclear Model: Point charge
 
      Shell  nPrim  nBasis  Cartesian Spherical Contaminant
         s      10       4        X                  
         p       6       3        X                  
         d       3       1                 X         
 
 
      Basis set label: N.ANO-S...4S3P1D......
 
      Electronic valence basis set:
      ------------------
      Associated Effective Charge   7.000000 au
      Associated Actual Charge      7.000000 au
      Nuclear Model: Point charge
 
      Shell  nPrim  nBasis  Cartesian Spherical Contaminant
         s      10       4        X                  
         p       6       3        X                  
         d       3       1                 X         
 
 
      Basis set label: O.ANO-S...4S3P1D......
 
      Electronic valence basis set:
      ------------------
      Associated Effective Charge   8.000000 au
      Associated Actual Charge      8.000000 au
      Nuclear Model: Point charge
 
      Shell  nPrim  nBasis  Cartesian Spherical Contaminant
         s      10       4        X                  
         p       6       3        X                  
         d       3       1                 X         
 
 
      Basis set label: H.ANO-S...2S1P......
 
      Electronic valence basis set:
      ------------------
      Associated Effective Charge   1.000000 au
      Associated Actual Charge      1.000000 au
      Nuclear Model: Point charge
 
      Shell  nPrim  nBasis  Cartesian Spherical Contaminant
         s       7       2        X                  
         p       3       1        X                  
--
 
 
++    Molecular structure info:
      -------------------------
 
                    ************************************************ 
                    **** Cartesian Coordinates / Bohr, Angstrom **** 
                    ************************************************ 
 
     Center  Label                x              y              z                     x              y              z
        1      C1               0.192695       0.041130       0.555585              0.101970       0.021765       0.294003
        2      C3               4.392166       2.029993      -0.126706              2.324234       1.074226      -0.067050
        3      C4               4.069236       3.461351      -2.656554              2.153347       1.831668      -1.405788
        4      C6               5.612683       3.681746      -7.081191              2.970104       1.948296      -3.747205
        5      C19             -1.342172      -2.333088      -0.021915             -0.710247      -1.234617      -0.011597
        6      N2               2.769845      -0.188432       0.087217              1.465739      -0.099714       0.046153
        7      N5               5.664295       2.631393      -4.548958              2.997416       1.392473      -2.407205
        8      O7              -0.750509       1.967260       1.420707             -0.397152       1.041029       0.751806
        9      O8               2.473631       5.109432      -2.977076              1.308989       2.703795      -1.575401
       10      H9              -2.233961      -2.126858      -1.909859             -1.182161      -1.125485      -1.010654
       11      H10             -2.881776      -2.490667       1.382236             -1.524970      -1.318004       0.731448
       12      H11             -0.206689      -4.093608      -0.015008             -0.109375      -2.166244      -0.007942
       13      H12              3.318627      -1.749828      -0.910884              1.756142      -0.925969      -0.482019
       14      H13              3.821347       3.365166       1.379897              2.022170       1.780769       0.730210
       15      H14              6.385980       1.458549       0.193646              3.379315       0.771831       0.102473
       16      H15              7.024535       1.335708      -4.110776              3.717224       0.706826      -2.175329
       17      H16              5.227056       2.210630      -8.529279              2.766039       1.169815      -4.513500
       18      H17              4.068170       5.091886      -7.120940              2.152783       2.694510      -3.768239
       19      H18              7.415830       4.640553      -7.570691              3.924288       2.455675      -4.006237
 
                    ************************************************* 
                    **** InterNuclear Distances / Bohr, Angstrom **** 
                    ************************************************* 
 
     Atom centers         Bohr        Angstrom
   16 H15       7 N5      1.929004        1.020785
   13 H12       6 N2      1.932698        1.022740
   11 H10       5 C19     2.089701        1.105822
   18 H17       4 C6      2.091792        1.106929
   14 H13       2 C3      2.092456        1.107280
   12 H11       5 C19     2.094946        1.108598
   10 H9        5 C19     2.098130        1.110283
   15 H14       2 C3      2.098682        1.110575
   17 H16       4 C6      2.099964        1.111253
   19 H18       4 C6      2.100062        1.111305
    8 O7        1 C1      2.312584        1.223767
    9 O8        3 C4      2.316217        1.225689
    7 N5        3 C4      2.610409        1.381369
    6 N2        1 C1      2.629405        1.391421
    7 N5        4 C6      2.741917        1.450960
    6 N2        2 C3      2.756646        1.458754
    5 C19       1 C1      2.885522        1.526952
    3 C4        2 C3      2.924586        1.547624
   11 H10      10 H9      3.374895        1.785917
   12 H11      10 H9      3.401234        1.799856
   19 H18      18 H17     3.407756        1.803307
   19 H18      17 H16     3.407954        1.803411
   15 H14      14 H13     3.408771        1.803844
   18 H17      17 H16     3.409996        1.804492
   12 H11      11 H10     3.417280        1.808347
   13 H12       1 C1      3.889667        2.058323
   18 H17       7 N5      3.900863        2.064248
   16 H15       3 C4      3.920066        2.074409
   14 H13       6 N2      3.924887        2.076961
   15 H14       6 N2      3.974960        2.103458
   13 H12       2 C3      4.006802        2.120308
   17 H16       7 N5      4.026310        2.130631
   19 H18       7 N5      4.029326        2.132227
   16 H15       4 C6      4.039875        2.137810
   14 H13       3 C4      4.045199        2.140627
   11 H10       1 C1      4.067643        2.152504
   10 H9        1 C1      4.082554        2.160395
   15 H14       3 C4      4.183558        2.213844
   12 H11       1 C1      4.192987        2.218833
   13 H12      12 H11     4.327095        2.289800
    9 O8        7 N5      4.334955        2.293959
    8 O7        6 N2      4.337983        2.295562
   16 H15      15 H14     4.353262        2.303647
   18 H17       9 O8      4.440098        2.349598
   15 H14      13 H12     4.574092        2.420505
    8 O7        5 C19     4.574300        2.420615
    9 O8        2 C3      4.613928        2.441586
    6 N2        5 C19     4.638981        2.454843
    7 N5        2 C3      4.640723        2.455765
    4 C6        3 C4      4.691291        2.482524
    2 C3        1 C1      4.696451        2.485255
    6 N2        3 C4      4.747379        2.512205
   18 H17       3 C4      4.752829        2.515089
   13 H12       5 C19     4.780535        2.529750
   14 H13       8 O7      4.780970        2.529980
   19 H18      16 H15     4.800638        2.540388
   16 H15       2 C3      4.825372        2.553477
   17 H16      16 H15     4.849700        2.566351
   14 H13       9 O8      4.882829        2.583882
   12 H11       6 N2      4.911273        2.598934
   15 H14       7 N5      4.938490        2.613336
   11 H10       8 O7      4.941345        2.614847
   14 H13       1 C1      4.989571        2.640367
    9 O8        4 C6      5.360569        2.836691
    8 O7        2 C3      5.370803        2.842106
   10 H9        8 O7      5.482254        2.901084
   13 H12       3 C4      5.546815        2.935248
   14 H13      13 H12     5.627039        2.977701
   18 H17      16 H15     5.648899        2.989268
   13 H12      10 H9      5.654320        2.992137
--
 
 
            Nuclear Potential Energy            455.69631363 au
 
 
      Basis set specifications :
      Symmetry species         a  
      Basis functions          212
 
 
      Input file to MOLDEN was generated!
 
--- Stop Module: seward at Tue Jun 10 19:59:00 2025 /rc=_RC_ALL_IS_WELL_ ---
*** files: orca_geometry_optimisation_285_270_BP86_def2-SVP_def2J_scf_cas1_ras12i11_cas8.GssOrb
           orca_geometry_optimisation_285_270_BP86_def2-SVP_def2J_scf_cas1_ras12i11_cas8.guessorb.molden xmldump
    saved to directory /home/pcaah4/diamide_project
--- Module seward spent 1 minute 50 seconds ---

*** symbolic link created: INPORB -> orca_geometry_optimisation_285_270_BP86_def2-SVP_def2J_scf_cas1_ras12i11_cas8.GssOrb
--- Start Module: rasscf at Tue Jun 10 19:59:01 2025 ---
 
()()()()()()()()()()()()()()()()()()()()()()()()()()()()()()()()()()()()()()()()()()()()()()()()()()

                                              &RASSCF

                                   only a single process is used
                       available to each process: 2.0 GB of memory, 1 thread
                                            pid: 3125817
()()()()()()()()()()()()()()()()()()()()()()()()()()()()()()()()()()()()()()()()()()()()()()()()()()
 
 
      Header of the ONEINT file:
      --------------------------
      orca_geometry_optimisation_285_270_BP86_def2-SVP_def2J_scf_cas1_ras12i11
      Integrals generated by Gateway/Seward, Tue Jun 10 19:57:10 2025
 
 
      OrdInt status: non-squared
 
 
      Cartesian coordinates in Angstrom:
      -----------------------------------------------------
      No.  Label        X            Y            Z        
      -----------------------------------------------------
       1   C1         0.10197000   0.02176500   0.29400300
       2   C3         2.32423400   1.07422600  -0.06705000
       3   C4         2.15334700   1.83166800  -1.40578800
       4   C6         2.97010400   1.94829600  -3.74720500
       5   C19       -0.71024700  -1.23461700  -0.01159700
       6   N2         1.46573900  -0.09971400   0.04615300
       7   N5         2.99741600   1.39247300  -2.40720500
       8   O7        -0.39715200   1.04102900   0.75180600
       9   O8         1.30898900   2.70379500  -1.57540100
      10   H9        -1.18216100  -1.12548500  -1.01065400
      11   H10       -1.52497000  -1.31800400   0.73144800
      12   H11       -0.10937500  -2.16624400  -0.00794200
      13   H12        1.75614200  -0.92596900  -0.48201900
      14   H13        2.02217000   1.78076900   0.73021000
      15   H14        3.37931500   0.77183100   0.10247300
      16   H15        3.71722400   0.70682600  -2.17532900
      17   H16        2.76603900   1.16981500  -4.51350000
      18   H17        2.15278300   2.69451000  -3.76823900
      19   H18        3.92428800   2.45567500  -4.00623700
      -----------------------------------------------------
      Nuclear repulsion energy =  455.69631363
 
++    Wave function specifications:
      -----------------------------
 
      Number of closed shell electrons          58
      Number of electrons in active shells      12
      Max number of holes in RAS1 space          0
      Max nr of electrons in RAS3 space          0
      Number of inactive orbitals               29
      Number of active orbitals                  8
      Number of secondary orbitals             172
      Spin quantum number                      0.0
      State symmetry                             1
--
 
++    Orbital specifications:
      -----------------------
 
      Symmetry species                           1
                                                 a
      Frozen orbitals                            0
      Inactive orbitals                         29
      Active orbitals                            8
      RAS1 orbitals                              0
      RAS2 orbitals                              8
      RAS3 orbitals                              0
      Secondary orbitals                       172
      Deleted orbitals                           3
      Number of basis functions                212
--
 
++    CI expansion specifications:
      ----------------------------
 
      Number of CSFs                           336
      Number of determinants                   406
      Number of root(s) required                 7
      Root chosen for geometry opt.              7
      CI roots used                              1     2     3     4     5     6     7
      weights                                0.143 0.143 0.143 0.143 0.143 0.143 0.143
      highest root included in the CI            7
      max. size of the explicit Hamiltonian    200
--
 
++    Optimization specifications:
      ----------------------------
 
      RASSCF algorithm: Conventional
      Maximum number of macro iterations        64
      Maximum number of SX iterations           25
      Threshold for RASSCF energy            0.100E-07
      Threshold for max MO rotation          0.100E+00
      Threshold for max BLB element          0.100E-03
      Level shift parameter                  0.300E+00
      Make Quasi-Newton update
--
 
      The MO-coefficients are taken from the file:
      /home/pcaah4/diamide_project/cas/ras12i11/ras_orb/orca_geometry_optimisation_285_270_BP86_def2-SVP_def2J_scf_cas1_ras12i11.RasOrb                                                                                                                               
      Title: RASSCF average (pseudo-natural) orbitals                                      
 
      Total molecular charge    0.00
 
      Molecular orbitals exchanged:
        In symmetry  1 :  36  38
        In symmetry  1 :  37  40
 
 
      ************************************************************************************************************************
      *                                                                                                                      *
      *                                            Wave function control section                                             *
      *                                                                                                                      *
      ************************************************************************************************************************
 
 
                                         RASSCF iterations: Energy and convergence statistics
                                         ----------------------------------------------------
 
      Iter CI   SX   CI       RASSCF       Energy    max ROT     max BLB   max BLB  Level Ln srch  Step   QN   Walltime
          iter iter root      energy       change     param      element    value   shift minimum  type update hh:mm:ss
 Nr of preliminary CI iterations:   4
        1   1   25    0  -453.69215075    0.00E+00   0.48E-01   33  39 1  0.20E-01*  0.14   0.00    SX    NO    0:00:13
        2   4   13    0  -453.70062673   -0.85E-02* -0.19E-01   36  38 1  0.57E-02*  0.15   0.00    SX    NO    0:00:07
        3   3   12    0  -453.70156730   -0.94E-03*  0.98E-02   31  38 1  0.41E-02*  0.15   0.00    SX    NO    0:00:06
        4   5   12    0  -453.70222104   -0.65E-03*  0.71E-02   36  38 1  0.21E-02*  0.15   0.00    SX    NO    0:00:06
        5   5   12    0  -453.70238096   -0.16E-03*  0.14E-01   36  38 1  0.13E-02*  0.15   1.50    QN   YES    0:00:06
        6   6   11    0  -453.70249775   -0.12E-03* -0.24E-02   35  40 1  0.11E-02*  0.15   0.82    QN   YES    0:00:06
        7   6   10    0  -453.70250163   -0.39E-05*  0.64E-03   10  85 1  0.12E-02*  0.15   0.51    SX   YES    0:00:06
        8   6   10    0  -453.70251366   -0.12E-04* -0.83E-03   35  40 1  0.36E-03*  0.15   0.77    QN   YES    0:00:06
        9   5    9    0  -453.70251494   -0.13E-05*  0.42E-03   10  85 1  0.19E-03*  0.15   0.79    QN   YES    0:00:06
       10   4    8    0  -453.70251541   -0.46E-06*  0.62E-03   10  85 1  0.62E-04   0.15   2.50    LS   YES    0:00:06
       11   5    9    0  -453.70251516    0.25E-06*  0.30E-03   35  40 1 -0.19E-03*  0.15   0.30    LS   YES    0:00:06
       12   4    8    0  -453.70251542   -0.26E-06* -0.23E-03   35  40 1 -0.12E-03*  0.15   1.45    QN   YES    0:00:06
       13   4    7    0  -453.70251557   -0.15E-06* -0.59E-04   35  40 1 -0.19E-04   0.15   1.13    QN   YES    0:00:06
       14   1    7    0  -453.70251557   -0.83E-08   0.84E-04   35  40 1  0.11E-04   0.15   1.10    QN   YES    0:00:06
      Convergence after 14 iterations
       15   1    7    0  -453.70251558   -0.43E-08   0.84E-04   35  40 1  0.10E-04   0.15   1.10    QN   YES    0:00:06
 
      ************************************************************************************************************************
                                                      Wave function printout:
                       occupation of active orbitals, and spin coupling of open shells (u,d: Spin up or down)
      ************************************************************************************************************************
 
      Note: transformation to natural orbitals
      has been made, which may change the order of the CSFs.
 
      printout of CI-coefficients larger than  0.05 for root  1
      energy=    -453.953047
      conf/sym  11111111     Coeff  Weight
             1  22222200   0.95562 0.91322
             6  22220220  -0.08077 0.00652
             7  22222u0d   0.15995 0.02559
            15  22222002  -0.06892 0.00475
            64  2u22220d   0.07659 0.00587
            73  2u222d02  -0.07051 0.00497
            81  u22222d0  -0.08848 0.00783
            83  u222d220   0.05491 0.00302
           175  20222202  -0.09605 0.00923
           191  02222220  -0.07692 0.00592
 
      printout of CI-coefficients larger than  0.05 for root  2
      energy=    -453.750228
      conf/sym  11111111     Coeff  Weight
             2  22222ud0   0.07784 0.00606
             7  22222u0d  -0.12276 0.01507
            21  222u22d0  -0.18037 0.03253
            24  222u220d   0.92664 0.85866
            32  222u022d  -0.07801 0.00609
            33  222u2d02  -0.07851 0.00616
            41  22u222d0  -0.08138 0.00662
           115  22ud2202  -0.09364 0.00877
           125  2u2d2202  -0.17683 0.03127
           213  u22u22dd   0.07162 0.00513
           269  022u222d   0.07516 0.00565
 
      printout of CI-coefficients larger than  0.05 for root  3
      energy=    -453.743293
      conf/sym  11111111     Coeff  Weight
             2  22222ud0   0.45631 0.20822
             3  2222u2d0  -0.28693 0.08233
             6  22220220   0.07116 0.00506
            24  222u220d  -0.11392 0.01298
            41  22u222d0  -0.76861 0.59076
            43  22u2d220   0.12550 0.01575
            44  22u2220d  -0.06281 0.00394
            45  22u22dud  -0.06010 0.00361
            47  22u22udd   0.08813 0.00777
            55  22u220d2  -0.07237 0.00524
           141  22022220  -0.08076 0.00652
           161  u2d22220  -0.11669 0.01362
           294  20u222d2   0.07431 0.00552
 
      printout of CI-coefficients larger than  0.05 for root  4
      energy=    -453.634698
      conf/sym  11111111     Coeff  Weight
             2  22222ud0  -0.09713 0.00943
             3  2222u2d0   0.84700 0.71742
             7  22222u0d  -0.09882 0.00977
            10  2222udud   0.05723 0.00327
            12  2222uudd  -0.11046 0.01220
            18  2222u0d2   0.06676 0.00446
            41  22u222d0  -0.36652 0.13434
            44  22u2220d  -0.05676 0.00322
            68  2u22u2dd   0.06301 0.00397
            77  2u22udd2  -0.05125 0.00263
            81  u22222d0   0.08118 0.00659
            83  u222d220   0.20905 0.04370
           161  u2d22220  -0.07459 0.00556
           177  2022u2d2  -0.08269 0.00684
           191  02222220  -0.06352 0.00403
 
      printout of CI-coefficients larger than  0.05 for root  5
      energy=    -453.627778
      conf/sym  11111111     Coeff  Weight
             1  22222200   0.08272 0.00684
             2  22222ud0   0.65984 0.43539
             3  2222u2d0   0.17023 0.02898
             5  2222ud20   0.05511 0.00304
             6  22220220  -0.06451 0.00416
             7  22222u0d  -0.45674 0.20861
            15  22222002  -0.11830 0.01400
            21  222u22d0  -0.23873 0.05699
            24  222u220d  -0.13047 0.01702
            25  222u2dud   0.08289 0.00687
            27  222u2udd  -0.10669 0.01138
            41  22u222d0   0.32468 0.10542
            44  22u2220d  -0.05101 0.00260
            61  2u2222d0  -0.07593 0.00577
            65  2u222dud  -0.11910 0.01419
            67  2u222udd   0.13116 0.01720
            73  2u222d02   0.10891 0.01186
            81  u22222d0  -0.05619 0.00316
            87  u2222udd  -0.06292 0.00396
           175  20222202   0.05740 0.00329
           176  20222ud2  -0.08292 0.00688
 
      printout of CI-coefficients larger than  0.05 for root  6
      energy=    -453.606480
      conf/sym  11111111     Coeff  Weight
             2  22222ud0   0.24581 0.06042
             3  2222u2d0   0.05132 0.00263
             7  22222u0d  -0.07406 0.00548
            21  222u22d0   0.81949 0.67156
            22  222u2d20   0.06703 0.00449
            24  222u220d   0.14108 0.01990
            25  222u2dud  -0.23539 0.05541
            26  222ud2ud   0.05693 0.00324
            27  222u2udd   0.30702 0.09426
            41  22u222d0   0.10710 0.01147
            65  2u222dud  -0.05966 0.00356
            67  2u222udd   0.06629 0.00439
           112  22ud22ud   0.10455 0.01093
           201  22uu22dd   0.09845 0.00969
           210  2u2u2dd2   0.06962 0.00485
           262  202u22d2  -0.07110 0.00506
 
      printout of CI-coefficients larger than  0.05 for root  7
      energy=    -453.602086
      conf/sym  11111111     Coeff  Weight
             1  22222200  -0.11712 0.01372
             2  22222ud0   0.41760 0.17439
             3  2222u2d0   0.20674 0.04274
             7  22222u0d   0.74850 0.56025
             9  222220ud  -0.08954 0.00802
            10  2222udud   0.06547 0.00429
            14  22220u2d   0.06144 0.00377
            15  22222002   0.15770 0.02487
            21  222u22d0  -0.08496 0.00722
            24  222u220d   0.07219 0.00521
            41  22u222d0   0.16813 0.02827
            44  22u2220d   0.05004 0.00250
            45  22u22dud   0.06571 0.00432
            47  22u22udd   0.06104 0.00373
            64  2u22220d  -0.05981 0.00358
            65  2u222dud  -0.10016 0.01003
            67  2u222udd   0.12559 0.01577
            73  2u222d02  -0.17537 0.03075
            81  u22222d0   0.08254 0.00681
           175  20222202  -0.07666 0.00588
           176  20222ud2  -0.07306 0.00534
           193  02222u2d   0.05802 0.00337
 
      Natural orbitals and occupation numbers for root  1
      sym 1:   1.963916   1.997059   1.999762   1.999730   1.995814   1.946258   0.040658   0.056803
 
      Natural orbitals and occupation numbers for root  2
      sym 1:   1.965938   1.997168   1.999014   1.016311   1.995794   1.987754   0.050667   0.987354
 
      Natural orbitals and occupation numbers for root  3
      sym 1:   1.999796   1.993697   1.020435   1.985504   1.995400   1.947802   0.988030   0.069336
 
      Natural orbitals and occupation numbers for root  4
      sym 1:   1.975571   1.991007   1.998977   1.999573   1.097346   1.940621   0.928153   0.068753
 
      Natural orbitals and occupation numbers for root  5
      sym 1:   1.997505   1.983207   1.894341   1.932973   1.970547   1.158571   0.871913   0.190943
 
      Natural orbitals and occupation numbers for root  6
      sym 1:   1.998859   1.981434   1.970984   1.104421   1.988740   1.900863   0.930920   0.123778
 
      Natural orbitals and occupation numbers for root  7
      sym 1:   1.987552   1.908984   1.973085   1.997362   1.953015   1.077788   0.174981   0.927234
 
      ************************************************************************************************************************
      *                                                                                                                      *
      *                                                    Final results                                                     *
      *                                                                                                                      *
      ************************************************************************************************************************
 
 
++    Wave function specifications:
      -----------------------------
 
      Number of closed shell electrons          58
      Number of electrons in active shells      12
      Max number of holes in RAS1 space          0
      Max nr of electrons in RAS3 space          0
      Number of inactive orbitals               29
      Number of active orbitals                  8
      Number of secondary orbitals             172
      Spin quantum number                      0.0
      State symmetry                             1
--
 
++    Orbital specifications:
      -----------------------
 
      Symmetry species                           1
                                                 a
      Frozen orbitals                            0
      Inactive orbitals                         29
      Active orbitals                            8
      RAS1 orbitals                              0
      RAS2 orbitals                              8
      RAS3 orbitals                              0
      Secondary orbitals                       172
      Deleted orbitals                           3
      Number of basis functions                212
--
 
++    CI expansion specifications:
      ----------------------------
 
      Number of CSFs                           336
      Number of determinants                   406
      Number of root(s) required                 7
      CI roots used                              1     2     3     4     5     6     7
      weights                                0.143 0.143 0.143 0.143 0.143 0.143 0.143
      highest root included in the CI            7
      Root passed to geometry opt.               7
--
 
++    Final optimization conditions:
      ------------------------------
 
      Average CI energy                            -453.70251558
      RASSCF energy for state  7                   -453.60208584
      Super-CI energy                                -0.00000000
      RASSCF energy change                            0.00000000
      Max change in MO coefficients               0.646E-04
      Max non-diagonal density matrix element     0.839E-04
      Maximum BLB matrix element                  0.103E-04
      (orbital pair  35,  40 in symmetry   1)
      Norm of electronic gradient            0.219E+00
--
 
 
      Final state energy(ies):
      ------------------------
 
::    RASSCF root number  1 Total energy:   -453.95304703
::    RASSCF root number  2 Total energy:   -453.75022818
::    RASSCF root number  3 Total energy:   -453.74329270
::    RASSCF root number  4 Total energy:   -453.63469756
::    RASSCF root number  5 Total energy:   -453.62777815
::    RASSCF root number  6 Total energy:   -453.60647959
::    RASSCF root number  7 Total energy:   -453.60208584
 
++    Molecular orbitals:
      -------------------
 
      Pseudonatural active orbitals and approximate occupation numbers
 
 
 
 
      Molecular orbitals for symmetry species 1: a  
 
 
      Orbital                 1         2         3         4         5         6         7         8         9        10
      Energy           -20.5894  -20.5194  -15.6332  -15.5828  -11.3340  -11.2880  -11.2868  -11.2619  -11.2549   -1.4170
      Occ. No.           2.0000    2.0000    2.0000    2.0000    2.0000    2.0000    2.0000    2.0000    2.0000    2.0000
 
     1 C1     1s         0.0003   -0.0002    0.0003    0.0000    0.9999    0.0001    0.0001   -0.0001    0.0038    0.0392
     2 C1     2s         0.0007   -0.0013    0.0010    0.0002    0.0018   -0.0011    0.0006   -0.0006    0.0002   -0.3561
     3 C1     3s        -0.0006   -0.0010    0.0003    0.0001   -0.0004   -0.0009    0.0005   -0.0005    0.0005    0.0052
     4 C1     4s        -0.0004   -0.0003    0.0000   -0.0000    0.0012   -0.0003    0.0001   -0.0001    0.0002   -0.0032
     5 C1     2px       -0.0006   -0.0004    0.0017   -0.0003    0.0013   -0.0001   -0.0000   -0.0002    0.0005    0.0360
     6 C1     3px       -0.0003   -0.0005    0.0013   -0.0006    0.0014   -0.0004   -0.0001   -0.0003   -0.0001   -0.0102
     7 C1     4px        0.0001   -0.0001   -0.0001   -0.0002    0.0006   -0.0003   -0.0001   -0.0001   -0.0003    0.0113
     8 C1     2py        0.0028   -0.0000   -0.0001   -0.0002    0.0009    0.0002   -0.0002    0.0000    0.0006   -0.0946
     9 C1     3py        0.0021   -0.0001   -0.0001   -0.0002    0.0009   -0.0001   -0.0003    0.0001   -0.0001    0.0704
    10 C1     4py       -0.0002   -0.0000    0.0000   -0.0000    0.0007   -0.0003   -0.0001    0.0000   -0.0003   -0.0215
    11 C1     2pz        0.0010    0.0002   -0.0003   -0.0002    0.0002    0.0002   -0.0003    0.0001    0.0001   -0.0433
    12 C1     3pz        0.0006    0.0003   -0.0001   -0.0001   -0.0000    0.0001   -0.0004    0.0001    0.0000    0.0271
    13 C1     4pz       -0.0001    0.0000    0.0001    0.0000    0.0001   -0.0000   -0.0001    0.0000   -0.0000   -0.0111
    14 C1     3d2-       0.0001    0.0000    0.0001   -0.0000   -0.0003    0.0000    0.0000    0.0000   -0.0000    0.0254
    15 C1     3d1-      -0.0001   -0.0000   -0.0000   -0.0000    0.0003   -0.0000    0.0000   -0.0000    0.0001   -0.0260
    16 C1     3d0       -0.0000    0.0000    0.0001    0.0000   -0.0003   -0.0001   -0.0000    0.0000   -0.0001    0.0176
    17 C1     3d1+       0.0000    0.0000    0.0000   -0.0000   -0.0002   -0.0000   -0.0000    0.0000   -0.0001    0.0141
    18 C1     3d2+       0.0002    0.0000   -0.0001    0.0000   -0.0001    0.0000    0.0000    0.0000    0.0000    0.0156
    19 C3     1s         0.0001    0.0001    0.0004    0.0000   -0.0001    0.9689    0.2456    0.0001   -0.0001    0.0095
    20 C3     2s         0.0009    0.0009    0.0023    0.0002    0.0008   -0.0011   -0.0002    0.0008   -0.0006   -0.0138
    21 C3     3s         0.0006    0.0006    0.0014    0.0002    0.0006   -0.0024   -0.0004    0.0005   -0.0004    0.0207
    22 C3     4s         0.0001    0.0001    0.0003   -0.0000    0.0001    0.0007    0.0002    0.0000   -0.0000    0.0028
    23 C3     2px       -0.0006    0.0008   -0.0010   -0.0007    0.0001    0.0000    0.0003    0.0004   -0.0002    0.0161
    24 C3     3px       -0.0005    0.0008   -0.0005   -0.0006    0.0004   -0.0001    0.0002    0.0004   -0.0002   -0.0009
    25 C3     4px        0.0001    0.0000    0.0002    0.0000    0.0002   -0.0006   -0.0001    0.0000   -0.0000    0.0028
    26 C3     2py        0.0003   -0.0005   -0.0007    0.0002    0.0000   -0.0006   -0.0006   -0.0003    0.0002    0.0128
    27 C3     3py        0.0004   -0.0004   -0.0002    0.0002    0.0000   -0.0004   -0.0001   -0.0005    0.0003   -0.0018
    28 C3     4py        0.0001    0.0000    0.0001   -0.0000   -0.0000   -0.0007   -0.0000   -0.0001    0.0000    0.0018
    29 C3     2pz        0.0005   -0.0002   -0.0005    0.0000   -0.0005    0.0004    0.0001   -0.0005    0.0001   -0.0023
    30 C3     3pz        0.0005   -0.0000   -0.0006    0.0001   -0.0008    0.0003   -0.0003   -0.0004    0.0000   -0.0033
    31 C3     4pz       -0.0000    0.0001   -0.0000    0.0001   -0.0002   -0.0001   -0.0001    0.0000   -0.0000   -0.0018
    32 C3     3d2-       0.0000    0.0000   -0.0000   -0.0000    0.0001   -0.0001   -0.0000   -0.0000    0.0000   -0.0040
    33 C3     3d1-       0.0000    0.0000   -0.0000   -0.0000    0.0000    0.0001    0.0000   -0.0001    0.0000    0.0007
    34 C3     3d0        0.0000    0.0001    0.0001    0.0000   -0.0000   -0.0000    0.0000    0.0000    0.0000    0.0020
    35 C3     3d1+      -0.0000   -0.0001    0.0000   -0.0000   -0.0000   -0.0000   -0.0001    0.0000    0.0000   -0.0001
    36 C3     3d2+      -0.0000    0.0000    0.0000   -0.0000    0.0000    0.0001    0.0001   -0.0000   -0.0000    0.0004
    37 C4     1s         0.0000    0.0004   -0.0000    0.0003   -0.0002    0.2458   -0.9693    0.0003    0.0001    0.0006
    38 C4     2s        -0.0000    0.0013   -0.0001    0.0011   -0.0013    0.0013   -0.0020   -0.0006    0.0006   -0.0384
    39 C4     3s        -0.0001   -0.0002    0.0001    0.0005   -0.0011    0.0002    0.0001   -0.0005    0.0005   -0.0128
    40 C4     4s        -0.0000   -0.0003    0.0000    0.0001   -0.0003    0.0003   -0.0013   -0.0002    0.0002   -0.0046
    41 C4     2px        0.0003   -0.0023    0.0007    0.0009   -0.0000    0.0002   -0.0002   -0.0003   -0.0001    0.0096
    42 C4     3px        0.0004   -0.0017    0.0005    0.0006   -0.0001    0.0003   -0.0001   -0.0004   -0.0002    0.0044
    43 C4     4px        0.0000    0.0002   -0.0001   -0.0001   -0.0000    0.0001    0.0001   -0.0001   -0.0001    0.0013
    44 C4     2py       -0.0003    0.0021   -0.0003   -0.0005    0.0002   -0.0004    0.0003    0.0002   -0.0003    0.0038
    45 C4     3py       -0.0003    0.0014   -0.0003   -0.0004    0.0001    0.0001    0.0002    0.0000   -0.0004    0.0065
    46 C4     4py       -0.0000   -0.0003    0.0001   -0.0000   -0.0000    0.0002    0.0000   -0.0002   -0.0001    0.0008
    47 C4     2pz       -0.0003   -0.0006    0.0001   -0.0011    0.0003    0.0012    0.0010    0.0002   -0.0000   -0.0026
    48 C4     3pz       -0.0004   -0.0005    0.0006   -0.0007    0.0005    0.0009    0.0006    0.0009   -0.0000   -0.0010
    49 C4     4pz       -0.0001    0.0001    0.0003    0.0002    0.0001   -0.0001    0.0004    0.0005   -0.0000   -0.0003
    50 C4     3d2-      -0.0000    0.0001    0.0001    0.0001   -0.0000   -0.0000    0.0005   -0.0000   -0.0000    0.0025
    51 C4     3d1-       0.0000   -0.0000    0.0001   -0.0001    0.0000   -0.0001   -0.0000    0.0000   -0.0000    0.0013
    52 C4     3d0        0.0000    0.0002    0.0000    0.0000   -0.0000   -0.0000    0.0002    0.0000    0.0000    0.0006
    53 C4     3d1+       0.0000   -0.0001   -0.0000    0.0001    0.0000   -0.0000    0.0001   -0.0001   -0.0000    0.0008
    54 C4     3d2+      -0.0000    0.0000    0.0000   -0.0000    0.0000   -0.0000   -0.0001    0.0000   -0.0000    0.0001
    55 C6     1s        -0.0000    0.0001   -0.0002    0.0003   -0.0001    0.0000    0.0005    0.9997    0.0000   -0.0004
    56 C6     2s        -0.0001    0.0006   -0.0011    0.0013   -0.0007    0.0003    0.0006    0.0001    0.0001   -0.0069
    57 C6     3s        -0.0001    0.0004   -0.0008    0.0003   -0.0005    0.0002    0.0006   -0.0016    0.0001   -0.0048
    58 C6     4s        -0.0000    0.0001   -0.0002   -0.0001   -0.0001    0.0000    0.0003    0.0009    0.0000   -0.0019
    59 C6     2px        0.0001   -0.0001   -0.0003    0.0002   -0.0002   -0.0000   -0.0003    0.0001    0.0002   -0.0051
    60 C6     3px        0.0000   -0.0001   -0.0003    0.0002   -0.0002   -0.0000   -0.0004   -0.0000    0.0002   -0.0050
    61 C6     4px       -0.0000    0.0001   -0.0000    0.0000    0.0000    0.0000   -0.0001   -0.0000    0.0000    0.0001
    62 C6     2py       -0.0001    0.0000    0.0001   -0.0002    0.0001   -0.0002   -0.0001   -0.0001    0.0001   -0.0003
    63 C6     3py       -0.0001    0.0000    0.0001    0.0000    0.0001   -0.0002   -0.0000    0.0001    0.0001   -0.0011
    64 C6     4py       -0.0000   -0.0000   -0.0000    0.0001    0.0000   -0.0000    0.0000   -0.0002    0.0000   -0.0004
    65 C6     2pz       -0.0001    0.0003   -0.0002    0.0004   -0.0001    0.0001    0.0005   -0.0001    0.0000   -0.0052
    66 C6     3pz       -0.0001    0.0003   -0.0002   -0.0002   -0.0002   -0.0000    0.0006   -0.0002    0.0001   -0.0049
    67 C6     4pz        0.0000    0.0000   -0.0000   -0.0002   -0.0000   -0.0001    0.0001    0.0006    0.0000   -0.0012
    68 C6     3d2-       0.0000   -0.0000   -0.0000    0.0001   -0.0000   -0.0000    0.0000    0.0000    0.0000   -0.0004
    69 C6     3d1-      -0.0000   -0.0000    0.0000    0.0001    0.0000   -0.0000   -0.0000    0.0001    0.0000    0.0003
    70 C6     3d0       -0.0000    0.0000   -0.0000   -0.0000    0.0000    0.0000   -0.0000   -0.0001   -0.0000   -0.0002
    71 C6     3d1+       0.0000   -0.0000   -0.0000   -0.0000   -0.0000   -0.0000    0.0001   -0.0000   -0.0000    0.0000
    72 C6     3d2+      -0.0000   -0.0000   -0.0000    0.0000   -0.0000   -0.0000   -0.0000    0.0000    0.0000   -0.0001
    73 C19    1s         0.0001    0.0001   -0.0000   -0.0000    0.0038    0.0001   -0.0000    0.0000   -0.9999    0.0140
    74 C19    2s         0.0009    0.0005   -0.0002   -0.0001    0.0004    0.0006   -0.0004    0.0001   -0.0018    0.0090
    75 C19    3s         0.0006    0.0003   -0.0001   -0.0001    0.0001    0.0003   -0.0003    0.0001    0.0006    0.0375
    76 C19    4s         0.0001    0.0000   -0.0001   -0.0001    0.0001   -0.0000   -0.0001    0.0000   -0.0012    0.0037
    77 C19    2px        0.0008    0.0001   -0.0004    0.0001   -0.0002    0.0001    0.0001    0.0000    0.0002    0.0071
    78 C19    3px        0.0005    0.0001   -0.0004    0.0001   -0.0004    0.0001    0.0001    0.0000    0.0001    0.0087
    79 C19    4px       -0.0002   -0.0000   -0.0000    0.0000   -0.0001   -0.0000    0.0000   -0.0000   -0.0003   -0.0082
    80 C19    2py       -0.0002    0.0001    0.0004   -0.0002    0.0003    0.0002   -0.0001   -0.0000    0.0003   -0.0197
    81 C19    3py       -0.0003    0.0000    0.0003   -0.0002   -0.0001    0.0000   -0.0001   -0.0001    0.0000    0.0061
    82 C19    4py       -0.0001   -0.0001   -0.0001   -0.0000   -0.0001   -0.0001    0.0000   -0.0000   -0.0003   -0.0043
    83 C19    2pz        0.0000   -0.0002    0.0002   -0.0001    0.0004    0.0002   -0.0000   -0.0000    0.0000   -0.0077
    84 C19    3pz        0.0000   -0.0002    0.0002   -0.0001    0.0003    0.0001   -0.0000   -0.0000   -0.0001    0.0017
    85 C19    4pz        0.0000   -0.0000   -0.0000    0.0000   -0.0000   -0.0000    0.0000   -0.0000   -0.0001   -0.0001
    86 C19    3d2-       0.0000    0.0000   -0.0000   -0.0000    0.0000    0.0001   -0.0000    0.0000    0.0001   -0.0018
    87 C19    3d1-      -0.0000   -0.0000    0.0000    0.0000   -0.0000    0.0000    0.0000    0.0000    0.0000   -0.0020
    88 C19    3d0       -0.0001    0.0000   -0.0001   -0.0000    0.0001   -0.0000   -0.0000    0.0000   -0.0001   -0.0017
    89 C19    3d1+      -0.0000    0.0000   -0.0001    0.0000    0.0000   -0.0000    0.0000    0.0000    0.0000   -0.0015
    90 C19    3d2+       0.0001   -0.0000   -0.0000   -0.0000   -0.0001   -0.0000   -0.0000    0.0000   -0.0001    0.0062
    91 N2     1s         0.0000    0.0001    0.9998   -0.0001   -0.0003    0.0002   -0.0001    0.0000   -0.0001    0.0166
    92 N2     2s         0.0003    0.0004   -0.0007   -0.0004   -0.0006    0.0018   -0.0002    0.0001   -0.0006   -0.1175
    93 N2     3s         0.0002    0.0003   -0.0019   -0.0003   -0.0006    0.0010   -0.0003    0.0000   -0.0004    0.0436
    94 N2     4s         0.0001    0.0001    0.0003   -0.0001   -0.0001    0.0003   -0.0001    0.0000   -0.0001    0.0104
    95 N2     2px        0.0001   -0.0005    0.0001    0.0001   -0.0004    0.0004    0.0001   -0.0003    0.0004    0.0239
    96 N2     3px        0.0001   -0.0007    0.0001    0.0001   -0.0002    0.0000   -0.0000   -0.0004    0.0003   -0.0199
    97 N2     4px        0.0000   -0.0000   -0.0003    0.0000   -0.0002   -0.0001   -0.0000   -0.0000   -0.0001    0.0055
    98 N2     2py       -0.0014    0.0001   -0.0009   -0.0001    0.0001    0.0006    0.0002   -0.0000    0.0001   -0.0372
    99 N2     3py       -0.0017    0.0000   -0.0004   -0.0001    0.0001    0.0005    0.0002   -0.0000    0.0000   -0.0108
   100 N2     4py        0.0000   -0.0001    0.0006    0.0000    0.0000    0.0002    0.0001   -0.0000   -0.0001    0.0056
   101 N2     2pz       -0.0006    0.0002   -0.0005    0.0002    0.0000   -0.0003    0.0001    0.0001    0.0002   -0.0187
   102 N2     3pz       -0.0006    0.0002   -0.0001    0.0003   -0.0002   -0.0003    0.0002    0.0001    0.0003   -0.0124
   103 N2     4pz        0.0000   -0.0000   -0.0003    0.0000   -0.0001    0.0000   -0.0000   -0.0000    0.0001   -0.0002
   104 N2     3d2-       0.0001    0.0000   -0.0001    0.0000   -0.0001   -0.0000   -0.0000    0.0000    0.0000    0.0037
   105 N2     3d1-       0.0000   -0.0000    0.0002    0.0000   -0.0001   -0.0000    0.0000    0.0000   -0.0000    0.0006
   106 N2     3d0       -0.0000    0.0000    0.0000    0.0000    0.0001    0.0001    0.0000   -0.0000    0.0001    0.0022
   107 N2     3d1+       0.0000    0.0000   -0.0000    0.0000    0.0000    0.0000    0.0000    0.0000    0.0000    0.0030
   108 N2     3d2+      -0.0000    0.0000   -0.0001    0.0000    0.0000   -0.0000    0.0000   -0.0000   -0.0000   -0.0033
   109 N5     1s        -0.0000    0.0001   -0.0001    0.9999    0.0001   -0.0000    0.0002    0.0001   -0.0000    0.0018
   110 N5     2s        -0.0003    0.0008   -0.0004    0.0006    0.0006    0.0001    0.0001    0.0018   -0.0002   -0.0016
   111 N5     3s        -0.0001    0.0005   -0.0003   -0.0010    0.0004    0.0001    0.0003    0.0010   -0.0002    0.0059
   112 N5     4s        -0.0000    0.0001   -0.0001    0.0006    0.0001    0.0000   -0.0000    0.0004   -0.0000    0.0013
   113 N5     2px       -0.0001    0.0009    0.0001    0.0006    0.0000   -0.0002    0.0003    0.0001    0.0001    0.0032
   114 N5     3px       -0.0002    0.0010    0.0002    0.0002    0.0001   -0.0001    0.0001   -0.0001    0.0000    0.0019
   115 N5     4px       -0.0000    0.0000    0.0000   -0.0002    0.0000    0.0000    0.0001   -0.0001   -0.0000    0.0008
   116 N5     2py        0.0001   -0.0011    0.0004   -0.0007    0.0002    0.0001   -0.0003    0.0003   -0.0000    0.0012
   117 N5     3py        0.0001   -0.0013    0.0006   -0.0003    0.0003    0.0002   -0.0003    0.0004   -0.0000    0.0025
   118 N5     4py       -0.0000   -0.0000    0.0001    0.0003    0.0001    0.0000   -0.0000    0.0002    0.0000    0.0005
   119 N5     2pz       -0.0000    0.0010   -0.0011    0.0003   -0.0004    0.0002    0.0004   -0.0009    0.0000   -0.0065
   120 N5     3pz        0.0000    0.0012   -0.0014    0.0001   -0.0008    0.0001    0.0004   -0.0007    0.0001   -0.0102
   121 N5     4pz        0.0000    0.0000   -0.0001   -0.0001   -0.0002   -0.0001   -0.0002   -0.0001    0.0001   -0.0030
   122 N5     3d2-      -0.0000   -0.0000    0.0000   -0.0001    0.0000   -0.0000   -0.0001    0.0001   -0.0000    0.0001
   123 N5     3d1-       0.0000   -0.0001    0.0000    0.0000    0.0000    0.0000   -0.0001    0.0000   -0.0000   -0.0000
   124 N5     3d0        0.0000    0.0001   -0.0000   -0.0002   -0.0000   -0.0000    0.0001   -0.0000   -0.0000   -0.0001
   125 N5     3d1+      -0.0000    0.0000    0.0000    0.0001    0.0000   -0.0000   -0.0000    0.0000    0.0000    0.0003
   126 N5     3d2+      -0.0000   -0.0000   -0.0000    0.0000    0.0000    0.0000   -0.0000   -0.0000   -0.0000   -0.0000
   127 O7     1s         0.9997    0.0000    0.0000    0.0000   -0.0003   -0.0000   -0.0000    0.0000   -0.0001    0.0247
   128 O7     2s        -0.0012    0.0002    0.0001    0.0000    0.0003   -0.0002    0.0000    0.0000   -0.0003   -0.6868
   129 O7     3s        -0.0012    0.0001    0.0001    0.0000   -0.0001   -0.0001    0.0000    0.0000   -0.0002    0.0366
   130 O7     4s         0.0001    0.0000   -0.0000    0.0000   -0.0000    0.0000    0.0000    0.0000   -0.0001    0.0143
   131 O7     2px        0.0001    0.0001   -0.0004    0.0001    0.0002   -0.0001    0.0000    0.0000   -0.0001   -0.0668
   132 O7     3px       -0.0002    0.0001   -0.0005    0.0001   -0.0002   -0.0000    0.0001    0.0001   -0.0001    0.0188
   133 O7     4px        0.0006    0.0000   -0.0001    0.0000    0.0000    0.0000    0.0000    0.0000    0.0000    0.0008
   134 O7     2py       -0.0004    0.0000   -0.0002   -0.0000   -0.0007    0.0000    0.0000   -0.0000    0.0001    0.1244
   135 O7     3py        0.0004    0.0001   -0.0002   -0.0000   -0.0004   -0.0000    0.0000   -0.0000    0.0001   -0.0388
   136 O7     4py       -0.0011    0.0001    0.0001   -0.0000   -0.0003   -0.0000   -0.0000   -0.0000   -0.0001    0.0001
   137 O7     2pz       -0.0001   -0.0000   -0.0001    0.0000   -0.0002   -0.0000    0.0000   -0.0000    0.0001    0.0500
   138 O7     3pz        0.0001   -0.0000    0.0000    0.0000   -0.0001   -0.0000    0.0001   -0.0000    0.0001   -0.0187
   139 O7     4pz       -0.0005    0.0000    0.0000   -0.0000   -0.0001   -0.0000    0.0000   -0.0000   -0.0000   -0.0003
   140 O7     3d2-       0.0001   -0.0000    0.0000   -0.0000   -0.0002    0.0000    0.0000   -0.0000   -0.0000    0.0139
   141 O7     3d1-       0.0000    0.0000    0.0000   -0.0000    0.0001   -0.0000   -0.0000    0.0000   -0.0000   -0.0116
   142 O7     3d0       -0.0000   -0.0000   -0.0000    0.0000   -0.0000   -0.0000   -0.0000   -0.0000    0.0000    0.0065
   143 O7     3d1+      -0.0000    0.0000    0.0000   -0.0000   -0.0001    0.0000   -0.0000   -0.0000    0.0000    0.0059
   144 O7     3d2+       0.0000    0.0000   -0.0000   -0.0000   -0.0001   -0.0000    0.0000    0.0000   -0.0000    0.0095
   145 O8     1s         0.0000    0.9997    0.0001    0.0000    0.0000   -0.0000    0.0002   -0.0000   -0.0000    0.0020
   146 O8     2s         0.0001   -0.0015    0.0004    0.0002    0.0000    0.0004   -0.0006   -0.0003   -0.0001   -0.0257
   147 O8     3s         0.0000   -0.0014    0.0001    0.0001    0.0000    0.0002   -0.0001   -0.0002   -0.0001    0.0041
   148 O8     4s        -0.0000    0.0001   -0.0000    0.0000   -0.0000    0.0000   -0.0000   -0.0000   -0.0000    0.0010
   149 O8     2px        0.0000    0.0002    0.0001   -0.0001    0.0001    0.0002   -0.0005   -0.0001    0.0000   -0.0022
   150 O8     3px        0.0001   -0.0003   -0.0000   -0.0002    0.0002    0.0000   -0.0002   -0.0000    0.0000    0.0025
   151 O8     4px        0.0000    0.0010   -0.0001   -0.0001    0.0001   -0.0000   -0.0002    0.0000    0.0000    0.0001
   152 O8     2py        0.0001   -0.0002    0.0000    0.0000    0.0001   -0.0002    0.0007    0.0001    0.0000    0.0067
   153 O8     3py        0.0001    0.0004    0.0001    0.0001    0.0001   -0.0001    0.0001    0.0000    0.0001   -0.0003
   154 O8     4py        0.0001   -0.0010    0.0001    0.0001    0.0000   -0.0000    0.0001   -0.0000    0.0000    0.0009
   155 O8     2pz        0.0000    0.0000   -0.0001    0.0003   -0.0001   -0.0001   -0.0000    0.0000   -0.0000   -0.0025
   156 O8     3pz        0.0000   -0.0001   -0.0002    0.0003   -0.0002   -0.0002   -0.0001   -0.0000    0.0000   -0.0022
   157 O8     4pz        0.0000    0.0002   -0.0001   -0.0000   -0.0001   -0.0000   -0.0001   -0.0000    0.0000   -0.0008
   158 O8     3d2-       0.0000    0.0000   -0.0000   -0.0000    0.0000   -0.0001    0.0002    0.0000   -0.0000    0.0007
   159 O8     3d1-       0.0000   -0.0000    0.0000   -0.0001    0.0000   -0.0000    0.0000   -0.0000   -0.0000    0.0005
   160 O8     3d0        0.0000    0.0001   -0.0000    0.0000    0.0000   -0.0000    0.0002    0.0000   -0.0000    0.0006
   161 O8     3d1+       0.0000   -0.0000    0.0000    0.0000    0.0000    0.0000   -0.0001    0.0000   -0.0000   -0.0000
   162 O8     3d2+       0.0000    0.0000    0.0000   -0.0000    0.0000   -0.0000    0.0000   -0.0000    0.0000    0.0002
   163 H9     1s         0.0004   -0.0003    0.0001   -0.0001    0.0003    0.0001   -0.0001   -0.0000   -0.0004   -0.0131
   164 H9     2s         0.0002   -0.0002    0.0001   -0.0001    0.0002    0.0000   -0.0000   -0.0000    0.0002   -0.0033
   165 H9     2px       -0.0000   -0.0000    0.0000   -0.0000    0.0001    0.0000   -0.0000   -0.0000    0.0000   -0.0014
   166 H9     2py       -0.0000    0.0000   -0.0000    0.0000    0.0000   -0.0000   -0.0000    0.0000   -0.0000   -0.0008
   167 H9     2pz        0.0000   -0.0000    0.0000   -0.0000    0.0000    0.0000    0.0000   -0.0000    0.0001   -0.0006
   168 H10    1s         0.0003   -0.0000   -0.0001   -0.0000   -0.0001   -0.0003    0.0001   -0.0001   -0.0003   -0.0106
   169 H10    2s         0.0002   -0.0000   -0.0001   -0.0000   -0.0001   -0.0002    0.0001   -0.0000    0.0003    0.0004
   170 H10    2px       -0.0000   -0.0000    0.0000   -0.0000    0.0000   -0.0001    0.0000   -0.0000    0.0000   -0.0007
   171 H10    2py       -0.0000   -0.0000   -0.0000   -0.0000    0.0001   -0.0000    0.0000   -0.0000   -0.0000   -0.0007
   172 H10    2pz       -0.0001    0.0000    0.0001    0.0000   -0.0000    0.0000   -0.0000    0.0000   -0.0001    0.0004
   173 H11    1s        -0.0003   -0.0002    0.0005   -0.0003    0.0003    0.0001   -0.0002   -0.0001   -0.0003   -0.0175
   174 H11    2s        -0.0002   -0.0001    0.0004   -0.0002    0.0002    0.0000   -0.0001   -0.0001    0.0002   -0.0042
   175 H11    2px       -0.0000   -0.0000   -0.0001    0.0000    0.0000    0.0000    0.0000    0.0000   -0.0001   -0.0003
   176 H11    2py       -0.0000   -0.0000    0.0000   -0.0000    0.0001    0.0000   -0.0000   -0.0000    0.0000   -0.0018
   177 H11    2pz        0.0000    0.0000   -0.0000    0.0000   -0.0000   -0.0000    0.0000    0.0000   -0.0000    0.0007
   178 H12    1s        -0.0011    0.0006   -0.0009    0.0003    0.0000   -0.0005    0.0003    0.0001    0.0005   -0.0445
   179 H12    2s        -0.0006    0.0004   -0.0006    0.0002   -0.0001   -0.0003    0.0002    0.0000    0.0003   -0.0014
   180 H12    2px        0.0000   -0.0000    0.0001   -0.0000   -0.0001    0.0001    0.0000    0.0000    0.0000    0.0026
   181 H12    2py       -0.0000    0.0001   -0.0004    0.0000    0.0000   -0.0000    0.0001   -0.0000    0.0000   -0.0053
   182 H12    2pz       -0.0001    0.0000   -0.0003    0.0000    0.0001   -0.0000   -0.0000   -0.0000    0.0000   -0.0030
   183 H13    1s        -0.0007    0.0002   -0.0005   -0.0000   -0.0005    0.0009    0.0006    0.0001   -0.0001   -0.0166
   184 H13    2s        -0.0004    0.0001   -0.0002    0.0000   -0.0003    0.0001    0.0003    0.0001   -0.0000   -0.0013
   185 H13    2px        0.0000   -0.0000    0.0001    0.0001    0.0000   -0.0000    0.0000   -0.0000    0.0000    0.0008
   186 H13    2py        0.0001   -0.0000   -0.0000    0.0000    0.0000   -0.0001   -0.0000   -0.0000   -0.0000    0.0015
   187 H13    2pz        0.0000    0.0000   -0.0000   -0.0000    0.0001   -0.0001    0.0000    0.0000   -0.0000    0.0009
   188 H14    1s         0.0005   -0.0004   -0.0001    0.0005   -0.0000    0.0006   -0.0000   -0.0004    0.0003   -0.0082
   189 H14    2s         0.0003   -0.0002   -0.0000    0.0003   -0.0001   -0.0000   -0.0001   -0.0003    0.0002   -0.0002
   190 H14    2px       -0.0000    0.0000   -0.0000   -0.0001   -0.0000    0.0000    0.0001    0.0000   -0.0000    0.0009
   191 H14    2py        0.0000    0.0000    0.0001    0.0000   -0.0000   -0.0000   -0.0000   -0.0000    0.0000    0.0001
   192 H14    2pz       -0.0000    0.0000    0.0000    0.0000    0.0000   -0.0000    0.0001   -0.0000    0.0000   -0.0001
   193 H15    1s         0.0003   -0.0015    0.0005   -0.0009    0.0000    0.0001   -0.0005   -0.0002   -0.0001   -0.0018
   194 H15    2s         0.0002   -0.0009    0.0003   -0.0006    0.0000    0.0001   -0.0002   -0.0001   -0.0000    0.0004
   195 H15    2px       -0.0000    0.0001   -0.0000    0.0004    0.0000   -0.0000    0.0001    0.0000    0.0000    0.0004
   196 H15    2py        0.0000   -0.0001    0.0000   -0.0003   -0.0000    0.0000   -0.0001   -0.0000   -0.0000   -0.0003
   197 H15    2pz        0.0000    0.0000    0.0000    0.0001    0.0000    0.0000   -0.0001   -0.0000   -0.0000    0.0004
   198 H16    1s        -0.0001    0.0004   -0.0000   -0.0004   -0.0001   -0.0002    0.0003    0.0005    0.0001   -0.0057
   199 H16    2s        -0.0001    0.0003   -0.0000   -0.0002   -0.0001   -0.0001    0.0002   -0.0001    0.0001   -0.0041
   200 H16    2px       -0.0000   -0.0000    0.0000    0.0000    0.0000    0.0000    0.0000   -0.0000   -0.0000    0.0002
   201 H16    2py       -0.0000    0.0000   -0.0000    0.0000    0.0000   -0.0000    0.0000   -0.0000    0.0000   -0.0002
   202 H16    2pz       -0.0000    0.0000   -0.0000   -0.0001   -0.0000   -0.0000    0.0000    0.0000    0.0000   -0.0003
   203 H17    1s         0.0001   -0.0001   -0.0001   -0.0001   -0.0002    0.0001    0.0000    0.0010    0.0001   -0.0056
   204 H17    2s         0.0000    0.0000   -0.0001    0.0000   -0.0001    0.0001   -0.0000    0.0001    0.0001   -0.0032
   205 H17    2px        0.0000    0.0000    0.0000    0.0000   -0.0000    0.0000    0.0000    0.0001    0.0000   -0.0003
   206 H17    2py       -0.0000    0.0000    0.0000   -0.0000    0.0000   -0.0000   -0.0000   -0.0001   -0.0000    0.0005
   207 H17    2pz        0.0000   -0.0000    0.0000    0.0000   -0.0000    0.0000   -0.0000    0.0000   -0.0000   -0.0000
   208 H18    1s         0.0000    0.0003    0.0002   -0.0006    0.0002    0.0001    0.0004    0.0005   -0.0001    0.0023
   209 H18    2s         0.0000    0.0002    0.0001   -0.0003    0.0001    0.0000    0.0003   -0.0001   -0.0001    0.0016
   210 H18    2px        0.0000   -0.0000   -0.0000    0.0000   -0.0000   -0.0000   -0.0001    0.0000    0.0000   -0.0001
   211 H18    2py        0.0000   -0.0000   -0.0000    0.0000   -0.0000    0.0000   -0.0000    0.0000    0.0000   -0.0000
   212 H18    2pz        0.0000    0.0000   -0.0000   -0.0000   -0.0000   -0.0000    0.0000    0.0000   -0.0000    0.0001
 
 
      Orbital                11        12        13        14        15        16        17        18        19        20
      Energy            -1.3606   -1.2505   -1.2099   -1.0240   -0.9678   -0.9134   -0.8098   -0.7750   -0.7080   -0.6929
      Occ. No.           2.0000    2.0000    2.0000    2.0000    2.0000    2.0000    2.0000    2.0000    2.0000    2.0000
 
     1 C1     1s         0.0063    0.0052    0.0040   -0.0158   -0.0008    0.0094   -0.0156   -0.0028   -0.0047    0.0061
     2 C1     2s         0.0170   -0.1411   -0.0113    0.2646   -0.0422   -0.0422    0.3925    0.0211    0.1782   -0.1915
     3 C1     3s         0.0271   -0.0127    0.0148   -0.0189   -0.0081    0.0280   -0.0076   -0.0107   -0.0022    0.0173
     4 C1     4s         0.0076   -0.0030    0.0046   -0.0054   -0.0034    0.0079   -0.0033   -0.0028   -0.0025    0.0043
     5 C1     2px        0.0326   -0.1261   -0.0052   -0.0285    0.1098   -0.0758    0.1437    0.0058   -0.1069    0.2555
     6 C1     3px        0.0261    0.0460    0.0336   -0.0360   -0.0292    0.0395   -0.0241   -0.0120    0.0438   -0.0731
     7 C1     4px        0.0079   -0.0206    0.0024   -0.0112    0.0133   -0.0060    0.0120   -0.0008   -0.0018    0.0136
     8 C1     2py        0.0027    0.0507    0.0183   -0.1504    0.0414    0.0107    0.0194    0.0301   -0.0887   -0.0909
     9 C1     3py        0.0204   -0.0419    0.0053    0.0165   -0.0481    0.0282   -0.0124   -0.0010    0.0221    0.0396
    10 C1     4py        0.0004    0.0096    0.0043   -0.0235    0.0041    0.0015    0.0034    0.0038    0.0004   -0.0092
    11 C1     2pz       -0.0067    0.0502    0.0046   -0.0419    0.0015    0.0085   -0.0098    0.0165   -0.0199   -0.0864
    12 C1     3pz        0.0004   -0.0156   -0.0092    0.0193   -0.0094   -0.0044    0.0018    0.0065    0.0008    0.0242
    13 C1     4pz       -0.0021    0.0071   -0.0006   -0.0027   -0.0006    0.0004   -0.0002    0.0036   -0.0012   -0.0068
    14 C1     3d2-       0.0020   -0.0067   -0.0010    0.0079   -0.0124    0.0089    0.0077    0.0060   -0.0102    0.0037
    15 C1     3d1-      -0.0020    0.0068    0.0012    0.0037   -0.0022   -0.0006    0.0024   -0.0011    0.0082   -0.0112
    16 C1     3d0       -0.0000    0.0073    0.0012   -0.0100   -0.0003    0.0035   -0.0133   -0.0015    0.0000    0.0012
    17 C1     3d1+       0.0003    0.0054    0.0009   -0.0000   -0.0053    0.0048   -0.0016    0.0026   -0.0052   -0.0015
    18 C1     3d2+       0.0026   -0.0279   -0.0050    0.0037    0.0117   -0.0091    0.0136    0.0023   -0.0140    0.0212
    19 C3     1s        -0.0150    0.0316   -0.0020    0.0321    0.0250   -0.0226   -0.0034   -0.0059   -0.0008    0.0030
    20 C3     2s         0.0103   -0.1639   -0.0121   -0.2953   -0.2562    0.3260    0.0732    0.0777    0.0440   -0.0164
    21 C3     3s        -0.0432    0.0624   -0.0107    0.0543    0.0399   -0.0204   -0.0097   -0.0108   -0.0029    0.0017
    22 C3     4s        -0.0066    0.0142   -0.0006    0.0158    0.0100   -0.0064   -0.0034   -0.0036   -0.0023   -0.0007
    23 C3     2px       -0.0163    0.0408    0.0292   -0.0198   -0.0660    0.0012   -0.0314   -0.0125    0.1729   -0.1084
    24 C3     3px        0.0040   -0.0314    0.0078   -0.0430   -0.0300    0.0031    0.0112    0.0130   -0.0202    0.0002
    25 C3     4px        0.0048   -0.0003    0.0027   -0.0113   -0.0089    0.0070   -0.0028    0.0057    0.0083   -0.0027
    26 C3     2py        0.0216    0.0884    0.0183    0.0163   -0.0248    0.0200    0.1601   -0.0460    0.1492    0.2041
    27 C3     3py        0.0099   -0.0084    0.0113    0.0011    0.0419    0.0224   -0.0037   -0.0000   -0.0332   -0.0158
    28 C3     4py        0.0033    0.0036    0.0059   -0.0014   -0.0036    0.0080    0.0113   -0.0022    0.0009    0.0062
    29 C3     2pz       -0.0027   -0.0150   -0.0296    0.0129    0.0493    0.0537    0.0169    0.1340   -0.1944   -0.0709
    30 C3     3pz        0.0182   -0.0255   -0.0058   -0.0177   -0.0206    0.0214    0.0124   -0.0225    0.0134    0.0175
    31 C3     4pz       -0.0074   -0.0096   -0.0025   -0.0110   -0.0062    0.0171    0.0044    0.0070   -0.0018   -0.0001
    32 C3     3d2-       0.0009   -0.0197    0.0001   -0.0026    0.0074   -0.0026   -0.0048    0.0013   -0.0251   -0.0028
    33 C3     3d1-      -0.0031    0.0025    0.0002    0.0042    0.0062    0.0012   -0.0027    0.0071   -0.0066   -0.0033
    34 C3     3d0       -0.0010    0.0086    0.0055   -0.0003   -0.0101   -0.0036    0.0125   -0.0111    0.0163    0.0166
    35 C3     3d1+       0.0047    0.0008   -0.0022    0.0009   -0.0012   -0.0006   -0.0048   -0.0052    0.0113   -0.0004
    36 C3     3d2+      -0.0033    0.0055    0.0015    0.0025   -0.0018   -0.0013    0.0117    0.0022    0.0024    0.0010
    37 C4     1s        -0.0402   -0.0057   -0.0055    0.0086    0.0126    0.0088   -0.0052    0.0156   -0.0025   -0.0032
    38 C4     2s         0.3609   -0.0549    0.1098   -0.0975   -0.2319   -0.0494    0.1149   -0.3888    0.0867    0.1134
    39 C4     3s        -0.0084   -0.0271    0.0058    0.0237    0.0062    0.0202   -0.0067    0.0078   -0.0001   -0.0032
    40 C4     4s         0.0018   -0.0068    0.0015    0.0083    0.0029    0.0058   -0.0029    0.0045   -0.0022   -0.0024
    41 C4     2px       -0.0616   -0.0099    0.1198   -0.0204   -0.0528   -0.0581    0.0109   -0.0810   -0.0026   -0.0283
    42 C4     3px        0.0518    0.0217   -0.0281    0.0071    0.0354    0.0154   -0.0024    0.0057    0.0162    0.0225
    43 C4     4px       -0.0156   -0.0055    0.0223   -0.0053   -0.0032   -0.0050    0.0001   -0.0049    0.0014   -0.0023
    44 C4     2py        0.0780    0.0432   -0.0681    0.0361    0.0884    0.0327   -0.0142    0.0471   -0.0419   -0.0124
    45 C4     3py       -0.0376   -0.0160    0.0501   -0.0409   -0.0159    0.0280    0.0114   -0.0139    0.0180   -0.0042
    46 C4     4py        0.0221    0.0066   -0.0093    0.0009    0.0088    0.0084    0.0021   -0.0004    0.0005    0.0009
    47 C4     2pz       -0.0444   -0.0136   -0.1081   -0.0580   -0.0786    0.0464    0.0227    0.0931    0.1867    0.1229
    48 C4     3pz        0.0008    0.0187   -0.0381    0.0189   -0.0279   -0.1267   -0.0375   -0.0143   -0.0694   -0.0513
    49 C4     4pz       -0.0115    0.0033   -0.0253   -0.0069   -0.0118   -0.0097   -0.0022    0.0072    0.0056    0.0029
    50 C4     3d2-      -0.0402   -0.0038    0.0052    0.0003    0.0051    0.0084    0.0018    0.0032   -0.0060   -0.0015
    51 C4     3d1-      -0.0068    0.0022    0.0125    0.0059    0.0026   -0.0139   -0.0019    0.0012   -0.0086   -0.0045
    52 C4     3d0       -0.0158   -0.0056    0.0150   -0.0061   -0.0086    0.0056    0.0089   -0.0159   -0.0064   -0.0003
    53 C4     3d1+       0.0013    0.0040   -0.0216   -0.0007    0.0053    0.0139   -0.0020    0.0113    0.0150    0.0038
    54 C4     3d2+       0.0001    0.0009    0.0062    0.0015   -0.0006   -0.0054    0.0005   -0.0012   -0.0029   -0.0010
    55 C6     1s        -0.0096   -0.0000   -0.0356   -0.0156   -0.0359   -0.0424   -0.0015    0.0084   -0.0086   -0.0022
    56 C6     2s         0.0256   -0.0264    0.1579    0.0742    0.2511    0.3756    0.0518   -0.1009    0.0488    0.0242
    57 C6     3s        -0.0157   -0.0098   -0.0634   -0.0313   -0.0660   -0.0682    0.0004    0.0187   -0.0255   -0.0057
    58 C6     4s        -0.0009   -0.0038   -0.0106   -0.0059   -0.0143   -0.0139   -0.0007    0.0052   -0.0063   -0.0017
    59 C6     2px       -0.0062   -0.0110   -0.0008    0.0066    0.0033    0.0096   -0.0092    0.0978    0.0836    0.0594
    60 C6     3px       -0.0026   -0.0088   -0.0002    0.0065    0.0037    0.0099    0.0011   -0.0011   -0.0057   -0.0049
    61 C6     4px       -0.0008    0.0008    0.0020   -0.0000    0.0014    0.0009    0.0009    0.0062    0.0040    0.0026
    62 C6     2py       -0.0049    0.0053   -0.0403   -0.0071   -0.0103    0.0062    0.0165   -0.1083   -0.0083   -0.0239
    63 C6     3py        0.0007    0.0019    0.0055    0.0040    0.0032   -0.0062   -0.0015    0.0068   -0.0020    0.0006
    64 C6     4py       -0.0017    0.0007   -0.0021    0.0020    0.0045    0.0064    0.0018   -0.0076   -0.0009   -0.0012
    65 C6     2pz        0.0236   -0.0168    0.0984    0.0183    0.0099   -0.0391   -0.0208    0.0638   -0.1532   -0.0674
    66 C6     3pz       -0.0038   -0.0103   -0.0212   -0.0063   -0.0220   -0.0062   -0.0009   -0.0024    0.0212    0.0095
    67 C6     4pz        0.0032   -0.0023   -0.0001   -0.0028   -0.0145   -0.0190   -0.0032    0.0072   -0.0074   -0.0031
    68 C6     3d2-      -0.0004   -0.0007   -0.0003   -0.0005   -0.0021   -0.0016    0.0001    0.0012    0.0043    0.0032
    69 C6     3d1-      -0.0030    0.0019   -0.0150   -0.0032   -0.0043    0.0013    0.0030   -0.0128    0.0084    0.0031
    70 C6     3d0        0.0043   -0.0012    0.0186    0.0036    0.0040   -0.0033   -0.0018    0.0052   -0.0152   -0.0060
    71 C6     3d1+      -0.0003   -0.0005    0.0018    0.0001    0.0005    0.0002   -0.0014    0.0111    0.0050    0.0033
    72 C6     3d2+      -0.0004    0.0001   -0.0032   -0.0006   -0.0009    0.0004    0.0009   -0.0051    0.0004   -0.0003
    73 C19    1s         0.0001    0.0093    0.0020   -0.0561    0.0416   -0.0199    0.0132   -0.0006    0.0084   -0.0028
    74 C19    2s        -0.0018   -0.0066   -0.0023    0.3104   -0.2828    0.1472   -0.0938    0.0241   -0.0850    0.0394
    75 C19    3s         0.0035    0.0237    0.0090   -0.1091    0.0734   -0.0333    0.0319    0.0009    0.0176    0.0002
    76 C19    4s         0.0024    0.0025    0.0029   -0.0235    0.0162   -0.0072    0.0092   -0.0005    0.0053   -0.0001
    77 C19    2px        0.0004   -0.0310   -0.0069    0.0563    0.0010   -0.0232    0.0562   -0.0190    0.1157    0.0398
    78 C19    3px       -0.0010   -0.0048   -0.0019   -0.0041    0.0088   -0.0003   -0.0108   -0.0015   -0.0134    0.0031
    79 C19    4px       -0.0007   -0.0008   -0.0003   -0.0099    0.0141   -0.0091    0.0050   -0.0024    0.0074   -0.0008
    80 C19    2py        0.0036   -0.0029    0.0044    0.0401   -0.0105   -0.0105    0.0686   -0.0103    0.1607   -0.1636
    81 C19    3py        0.0066    0.0049    0.0080   -0.0264    0.0154   -0.0011   -0.0087   -0.0036   -0.0164    0.0212
    82 C19    4py        0.0010   -0.0010    0.0010   -0.0116    0.0122   -0.0067    0.0126   -0.0002    0.0057   -0.0051
    83 C19    2pz        0.0050    0.0060    0.0050    0.0075   -0.0087    0.0031    0.0182   -0.0002    0.0337   -0.0674
    84 C19    3pz        0.0062    0.0047    0.0058   -0.0062   -0.0023    0.0035    0.0022   -0.0013   -0.0058    0.0072
    85 C19    4pz        0.0003    0.0001    0.0006   -0.0029    0.0022   -0.0013    0.0031    0.0003    0.0004   -0.0014
    86 C19    3d2-       0.0002   -0.0048   -0.0010    0.0120   -0.0034   -0.0015    0.0091   -0.0010    0.0146   -0.0114
    87 C19    3d1-      -0.0001    0.0014    0.0002    0.0035   -0.0024    0.0007    0.0011   -0.0006    0.0056   -0.0056
    88 C19    3d0       -0.0003    0.0015    0.0004   -0.0077    0.0030    0.0003   -0.0039    0.0014   -0.0087   -0.0010
    89 C19    3d1+      -0.0001   -0.0015   -0.0003    0.0027   -0.0004   -0.0008    0.0030   -0.0005    0.0037    0.0010
    90 C19    3d2+       0.0005   -0.0031   -0.0005   -0.0033    0.0033   -0.0014   -0.0014    0.0006   -0.0067    0.0070
    91 N2     1s        -0.0030    0.0394    0.0056   -0.0043   -0.0046    0.0028    0.0055    0.0012   -0.0044    0.0010
    92 N2     2s         0.0353   -0.5896   -0.0962   -0.0212    0.2123   -0.1076   -0.1217   -0.0102   -0.1473    0.0278
    93 N2     3s        -0.0041    0.0714    0.0118   -0.0128   -0.0007    0.0032    0.0133    0.0008   -0.0159    0.0062
    94 N2     4s        -0.0010    0.0235    0.0041   -0.0015   -0.0029    0.0022    0.0041   -0.0003   -0.0008    0.0005
    95 N2     2px        0.0153    0.0262    0.0157   -0.1471   -0.0416    0.1301   -0.3405   -0.0085   -0.0382   -0.2685
    96 N2     3px        0.0144    0.0020    0.0044    0.0337    0.0520   -0.0336    0.0859   -0.0152    0.0178    0.0484
    97 N2     4px        0.0020   -0.0017    0.0008   -0.0039    0.0078   -0.0026    0.0010   -0.0031    0.0043    0.0065
    98 N2     2py        0.0034   -0.0081    0.0122   -0.1056   -0.0524    0.1012    0.2059    0.1371   -0.3104   -0.0087
    99 N2     3py       -0.0056    0.0392    0.0136    0.0352    0.0404   -0.0509   -0.0301   -0.0335    0.0665   -0.0026
   100 N2     4py        0.0003    0.0144    0.0014    0.0004    0.0039   -0.0042    0.0081   -0.0009    0.0019    0.0015
   101 N2     2pz       -0.0147    0.0177    0.0010    0.0261    0.0050    0.0019    0.1473    0.0802   -0.1578    0.0178
   102 N2     3pz       -0.0147   -0.0136   -0.0011    0.0209    0.0002   -0.0066   -0.0453   -0.0126    0.0269   -0.0042
   103 N2     4pz       -0.0021    0.0033    0.0002    0.0042   -0.0005    0.0007    0.0026    0.0000    0.0010    0.0015
   104 N2     3d2-       0.0008   -0.0073   -0.0007   -0.0047   -0.0073    0.0096   -0.0042    0.0047   -0.0082   -0.0048
   105 N2     3d1-      -0.0005   -0.0026   -0.0016    0.0016    0.0053   -0.0040   -0.0106   -0.0029    0.0065   -0.0029
   106 N2     3d0       -0.0009    0.0129    0.0022    0.0012   -0.0018   -0.0003   -0.0068   -0.0034    0.0068   -0.0024
   107 N2     3d1+      -0.0009    0.0057    0.0007    0.0014   -0.0027    0.0024    0.0009    0.0017   -0.0015    0.0009
   108 N2     3d2+       0.0001   -0.0061   -0.0006    0.0099    0.0043   -0.0073    0.0201    0.0023    0.0001    0.0079
   109 N5     1s        -0.0192    0.0056   -0.0416   -0.0028    0.0008    0.0031    0.0006   -0.0038   -0.0039   -0.0029
   110 N5     2s         0.1345   -0.0459    0.5783    0.0316   -0.0311   -0.2232   -0.0484    0.1591   -0.1349   -0.0575
   111 N5     3s        -0.0476    0.0114   -0.0766   -0.0106   -0.0053   -0.0122   -0.0020    0.0001   -0.0191   -0.0125
   112 N5     4s        -0.0114    0.0030   -0.0255   -0.0037   -0.0023   -0.0008    0.0003   -0.0014   -0.0022   -0.0016
   113 N5     2px       -0.0342    0.0108   -0.0029    0.0143    0.0377    0.0239   -0.0295    0.3134    0.1619    0.1053
   114 N5     3px        0.0052    0.0116    0.0203   -0.0007    0.0046    0.0043    0.0209   -0.0745   -0.0350   -0.0165
   115 N5     4px       -0.0001    0.0012    0.0089    0.0009    0.0033   -0.0013   -0.0011    0.0051    0.0012   -0.0005
   116 N5     2py        0.0293    0.0128    0.0031    0.0219    0.0304    0.0295    0.0281   -0.2242   -0.1692   -0.0915
   117 N5     3py       -0.0008    0.0138   -0.0293    0.0037   -0.0190   -0.0439   -0.0167    0.0497    0.0329    0.0131
   118 N5     4py       -0.0024    0.0040   -0.0081    0.0008   -0.0012   -0.0030    0.0014   -0.0062   -0.0018   -0.0006
   119 N5     2pz       -0.0028   -0.0289    0.0084   -0.0651   -0.1673   -0.1572    0.0238   -0.1343    0.0452    0.0102
   120 N5     3pz       -0.0249   -0.0347    0.0106    0.0143    0.0450    0.0881    0.0054    0.0427   -0.0284   -0.0018
   121 N5     4pz        0.0066   -0.0059    0.0008   -0.0002   -0.0044    0.0048    0.0011    0.0042   -0.0018    0.0013
   122 N5     3d2-      -0.0036   -0.0000   -0.0087   -0.0011    0.0016    0.0073    0.0014   -0.0055   -0.0002   -0.0004
   123 N5     3d1-       0.0028    0.0006   -0.0038   -0.0024   -0.0069   -0.0075    0.0016   -0.0114   -0.0011   -0.0007
   124 N5     3d0       -0.0004   -0.0025    0.0127    0.0003    0.0021    0.0060    0.0019   -0.0068   -0.0028   -0.0017
   125 N5     3d1+      -0.0045    0.0016   -0.0096    0.0018    0.0053    0.0057   -0.0019    0.0147    0.0039    0.0021
   126 N5     3d2+       0.0015   -0.0004    0.0019   -0.0010   -0.0026   -0.0034    0.0001   -0.0028   -0.0001    0.0001
   127 O7     1s         0.0009   -0.0031   -0.0006   -0.0039    0.0022    0.0001   -0.0134   -0.0026   -0.0060    0.0236
   128 O7     2s        -0.0642    0.2897    0.0451   -0.2025    0.0562    0.0164   -0.3512   -0.0705   -0.0928    0.3924
   129 O7     3s        -0.0007    0.0056    0.0002   -0.0188    0.0095   -0.0000   -0.0421   -0.0086   -0.0161    0.0660
   130 O7     4s         0.0004   -0.0010   -0.0003   -0.0032    0.0023   -0.0003   -0.0079   -0.0019   -0.0029    0.0134
   131 O7     2px       -0.0059   -0.0070   -0.0044   -0.0093    0.0266   -0.0253    0.1406    0.0347   -0.0038   -0.1440
   132 O7     3px       -0.0018   -0.0042   -0.0039   -0.0069   -0.0026    0.0002   -0.0202   -0.0026    0.0064    0.0079
   133 O7     4px       -0.0003   -0.0007   -0.0009   -0.0015   -0.0014    0.0006   -0.0019    0.0003    0.0011   -0.0004
   134 O7     2py        0.0111   -0.0407   -0.0047   -0.0269    0.0180    0.0027   -0.1597   -0.0354   -0.1081    0.4250
   135 O7     3py       -0.0031   -0.0010    0.0009    0.0114   -0.0032   -0.0010    0.0270    0.0057    0.0174   -0.0503
   136 O7     4py       -0.0007    0.0011    0.0004   -0.0008   -0.0002    0.0004    0.0026    0.0016    0.0022   -0.0066
   137 O7     2pz        0.0034   -0.0119   -0.0005   -0.0088    0.0024    0.0066   -0.0842   -0.0195   -0.0377    0.1797
   138 O7     3pz       -0.0013   -0.0004    0.0014    0.0039   -0.0006    0.0004    0.0128    0.0002    0.0038   -0.0166
   139 O7     4pz       -0.0002   -0.0001    0.0005   -0.0005    0.0001    0.0003    0.0016   -0.0002    0.0002   -0.0020
   140 O7     3d2-       0.0010   -0.0017   -0.0001    0.0013   -0.0029    0.0025   -0.0104   -0.0022   -0.0004    0.0115
   141 O7     3d1-      -0.0010    0.0044    0.0007   -0.0006   -0.0009    0.0003    0.0046    0.0012    0.0035   -0.0143
   142 O7     3d0        0.0006   -0.0028   -0.0005    0.0012    0.0002   -0.0002   -0.0025   -0.0009   -0.0009    0.0072
   143 O7     3d1+       0.0002   -0.0008   -0.0001    0.0015   -0.0015    0.0011   -0.0046   -0.0010    0.0004    0.0042
   144 O7     3d2+       0.0008   -0.0049   -0.0008   -0.0020    0.0033   -0.0018   -0.0017   -0.0004   -0.0067    0.0172
   145 O8     1s        -0.0242   -0.0014    0.0042    0.0007    0.0029   -0.0002   -0.0030    0.0113   -0.0010   -0.0049
   146 O8     2s         0.6701    0.1429   -0.3064    0.0954    0.1575    0.0063   -0.1103    0.3278   -0.0027   -0.1056
   147 O8     3s        -0.0304    0.0039   -0.0070    0.0036    0.0147   -0.0023   -0.0115    0.0401   -0.0026   -0.0158
   148 O8     4s        -0.0126   -0.0005    0.0003   -0.0006    0.0024   -0.0012   -0.0023    0.0079   -0.0003   -0.0034
[...]
AIVX     1  Mu1.0001  In1.024 Se1.038               0.21426543      0.00013695     -0.00014095     -0.00000002
AIVX     1  Mu1.0001  In1.025 Se1.038               0.22032748     -0.00015041      0.00115406     -0.00000017
AIVX     1  Mu1.0001  In1.026 Se1.038               0.18834329     -0.00020073      0.00009244     -0.00000002
AIVX     1  Mu1.0001  In1.027 Se1.038               0.17735148     -0.00150008      0.00276873     -0.00000415
AIVX     1  Mu1.0001  In1.028 Se1.038               0.19986544      0.00012108      0.00046375      0.00000006
AIVX     1  Mu1.0001  In1.029 Se1.038               0.15944675      0.00049654     -0.00076985     -0.00000038
AIVX     1  Mu1.0001  In1.022 Se1.039               0.29807484      0.00050064     -0.00108690     -0.00000054
AIVX     1  Mu1.0001  In1.023 Se1.039               0.23085090     -0.00156297      0.00292849     -0.00000458
AIVX     1  Mu1.0001  In1.024 Se1.039               0.24727695      0.00042167     -0.00067441     -0.00000028
AIVX     1  Mu1.0001  In1.025 Se1.039               0.25333900      0.00027774     -0.00078216     -0.00000022
AIVX     1  Mu1.0001  In1.026 Se1.039               0.22135481      0.00009755      0.00003623      0.00000000
AIVX     1  Mu1.0001  In1.027 Se1.039               0.21036300      0.00168924     -0.00288087     -0.00000487
AIVX     1  Mu1.0001  In1.028 Se1.039               0.23287695      0.00092694     -0.00203858     -0.00000189
AIVX     1  Mu1.0001  In1.029 Se1.039               0.19245827      0.00014828     -0.00032123     -0.00000005
AIVX     1  Mu1.0001  In1.023 Se1.040               0.23885832      0.00083307     -0.00106664     -0.00000089
AIVX     1  Mu1.0001  In1.024 Se1.040               0.25528437     -0.00016833      0.00010407     -0.00000002
AIVX     1  Mu1.0001  In1.025 Se1.040               0.26134641      0.00054217     -0.00021950     -0.00000012
AIVX     1  Mu1.0001  In1.026 Se1.040               0.22936223     -0.00052601      0.00086496     -0.00000045
AIVX     1  Mu1.0001  In1.027 Se1.040               0.21837042     -0.00041415      0.00064684     -0.00000027
AIVX     1  Mu1.0001  In1.028 Se1.040               0.24088437      0.00072166     -0.00052360     -0.00000038
AIVX     1  Mu1.0001  In1.029 Se1.040               0.20046569      0.00050273     -0.00075549     -0.00000038
AIVX     1  Mu1.0001  In1.023 Se1.041               0.25602602     -0.00036457      0.00030155     -0.00000011
AIVX     1  Mu1.0001  In1.024 Se1.041               0.27245208      0.00007722     -0.00029880     -0.00000002
AIVX     1  Mu1.0001  In1.025 Se1.041               0.27851412      0.00109061     -0.00162082     -0.00000177
AIVX     1  Mu1.0001  In1.026 Se1.041               0.24652994     -0.00122872      0.00176785     -0.00000217
AIVX     1  Mu1.0001  In1.027 Se1.041               0.23553813     -0.00076099      0.00122527     -0.00000093
AIVX     1  Mu1.0001  In1.028 Se1.041               0.25805208      0.00310194     -0.00475045     -0.00001474
AIVX     1  Mu1.0001  In1.029 Se1.041               0.21763340     -0.00019223      0.00036099     -0.00000007
AIVX     1  Mu1.0001  In1.023 Se1.042               0.26762410      0.00319479     -0.00451562     -0.00001443
AIVX     1  Mu1.0001  In1.024 Se1.042               0.28405015     -0.00050079      0.00064574     -0.00000032
AIVX     1  Mu1.0001  In1.025 Se1.042               0.29011220      0.00080269     -0.00048726     -0.00000039
AIVX     1  Mu1.0001  In1.026 Se1.042               0.25812801      0.00007863      0.00003466      0.00000000
AIVX     1  Mu1.0001  In1.027 Se1.042               0.24713620      0.00086291     -0.00150086     -0.00000130
AIVX     1  Mu1.0001  In1.028 Se1.042               0.26965015      0.00120908     -0.00131778     -0.00000159
AIVX     1  Mu1.0001  In1.029 Se1.042               0.22923147      0.00002911      0.00014535      0.00000000
AIVX     1  Mu1.0001  In1.023 Se1.043               0.27543770     -0.00038703      0.00055422     -0.00000021
AIVX     1  Mu1.0001  In1.024 Se1.043               0.29186376     -0.00025051      0.00048238     -0.00000012
AIVX     1  Mu1.0001  In1.025 Se1.043               0.29792580     -0.00110697      0.00147250     -0.00000163
AIVX     1  Mu1.0001  In1.026 Se1.043               0.26594162     -0.00027279      0.00044108     -0.00000012
AIVX     1  Mu1.0001  In1.027 Se1.043               0.25494981     -0.00063526      0.00112332     -0.00000071
AIVX     1  Mu1.0001  In1.028 Se1.043               0.27746376      0.00173941     -0.00307622     -0.00000535
AIVX     1  Mu1.0001  In1.029 Se1.043               0.23704508     -0.00059746      0.00096146     -0.00000057
AIVX     1  Mu1.0001  In1.023 Se1.044               0.28930161     -0.00155810      0.00257231     -0.00000401
AIVX     1  Mu1.0001  In1.026 Se1.044               0.27980552     -0.00071123      0.00073979     -0.00000053
AIVX     1  Mu1.0001  In1.027 Se1.044               0.26881371     -0.00002602      0.00006696     -0.00000000
AIVX     1  Mu1.0001  In1.028 Se1.044               0.29132766      0.00361439     -0.00531888     -0.00001922
AIVX     1  Mu1.0001  In1.029 Se1.044               0.25090898      0.00071645     -0.00110738     -0.00000079
AIVX     1  Mu1.0001  In1.026 Se1.045               0.29111201      0.00101973     -0.00173319     -0.00000177
AIVX     1  Mu1.0001  In1.027 Se1.045               0.28012020      0.00104659     -0.00160173     -0.00000168
AIVX     1  Mu1.0001  In1.029 Se1.045               0.26221547      0.00040722     -0.00070209     -0.00000029
AIVX     1  Mu1.0001  In1.026 Se1.046               0.29464356     -0.00043570      0.00042422     -0.00000018
AIVX     1  Mu1.0001  In1.027 Se1.046               0.28365175     -0.00077341      0.00149469     -0.00000116
AIVX     1  Mu1.0001  In1.029 Se1.046               0.26574702     -0.00007594      0.00007578     -0.00000001
AIVX     1  Mu1.0001  In1.027 Se1.047               0.29798179      0.00013879     -0.00020699     -0.00000003
AIVX     1  Mu1.0001  In1.029 Se1.047               0.28007706     -0.00113094      0.00172466     -0.00000195
--
 
   (Skipping property calculation,
    use PROP keyword to activate)
--
 
  Total CASPT2 energies:
::    CASPT2 Root  1     Total energy:   -455.37083991
::    CASPT2 Root  2     Total energy:   -455.16699935
::    CASPT2 Root  3     Total energy:   -455.17499204
::    CASPT2 Root  4     Total energy:   -455.12272256
::    CASPT2 Root  5     Total energy:   -455.11267524
::    CASPT2 Root  6     Total energy:   -455.06880089
::    CASPT2 Root  7     Total energy:   -455.10936270
 
++ Multi-State CASPT2 section:
********************************************************************************
  MULTI-STATE CASPT2 SECTION
--------------------------------------------------------------------------------
 
  Output diagonal energies have been shifted. Add   -455.000000000000     
 
  Effective Hamiltonian matrix (Symmetric):
 
                1               2               3               4               5
   1        -0.37083991
   2        -0.00116599     -0.16699935
   3        -0.00119979     -0.00203761     -0.17499204
   4         0.00887232     -0.00015014      0.00143766     -0.12272256
   5        -0.01642357     -0.00693341     -0.00631885      0.00023723     -0.11267524
   6        -0.00435747      0.00182058     -0.00202904      0.00072346     -0.00585468
   7         0.01957893      0.00412911     -0.00403979     -0.00296537      0.02144737
 
                6               7
   6        -0.06880089
   7         0.00425000     -0.10936270
 
       Total MS-CASPT2 energies:
::    MS-CASPT2 Root  1     Total energy:   -455.37398443
::    MS-CASPT2 Root  2     Total energy:   -455.17647221
::    MS-CASPT2 Root  3     Total energy:   -455.16779790
::    MS-CASPT2 Root  4     Total energy:   -455.12929921
::    MS-CASPT2 Root  5     Total energy:   -455.12224799
::    MS-CASPT2 Root  6     Total energy:   -455.08873629
::    MS-CASPT2 Root  7     Total energy:   -455.06785465
 
       Eigenvectors:
            0.99348695     -0.01873591     -0.02475027      0.10773235      0.01692571
            0.00942582      0.28442122      0.93883747      0.18720928     -0.03821466
            0.00711401      0.95045386     -0.29601847      0.03693710      0.01240593
           -0.03617291     -0.02207308      0.00893445      0.18375927      0.98017090
            0.06982734      0.12053040      0.12308212     -0.68959696      0.17505968
            0.01671397      0.01886862     -0.01195513     -0.11164499      0.01546209
           -0.07987821      0.00449044     -0.12236311      0.65590093     -0.08049408
 
            0.01001820     -0.00519270
           -0.01747592      0.02805074
           -0.08501933     -0.01460696
           -0.05954113      0.00876775
            0.66912885     -0.10735026
            0.03718671      0.99253975
            0.73464585      0.04729391
 
--
 
  THE ORIGINAL CI ARRAYS ARE NOW MIXED AS LINEAR
  COMBINATIONS, GIVEN BY THE EIGENVECTORS.
  A NEW JOBIPH FILE NAMED 'JOBMIX' IS PREPARED.
********************************************************************************
 
++ Mixed CI coefficients:
  The CI coefficients for the MIXED state nr.   1
--------------------------------------------------------------------------------
 CI COEFFICIENTS LARGER THAN  0.50D-01
  Occupation of active orbitals, and spin coupling
  of open shells. (u,d: Spin up or down).
  SGUGA info is (Midvert:IsyUp:UpperWalk/LowerWalk)
        Conf  SGUGA info        Occupation    Coefficient         Weight
           1  ( 1:1:   1/   1)   22222200        0.965303       0.931810
           6  ( 1:1:   6/   1)   22220220       -0.087904       0.007727
           7  ( 1:1:   7/   1)   22222u0d        0.068604       0.004707
          15  ( 1:1:  15/   1)   22222002       -0.089297       0.007974
          64  ( 2:1:   4/   3)   2u22220d        0.081992       0.006723
          81  ( 2:1:   1/   4)   u22222d0       -0.102186       0.010442
         175  ( 3:1:   5/   8)   20222202       -0.085462       0.007304
         191  ( 3:1:   1/  10)   02222220       -0.074552       0.005558
 
  The CI coefficients for the MIXED state nr.   2
--------------------------------------------------------------------------------
 CI COEFFICIENTS LARGER THAN  0.50D-01
  Occupation of active orbitals, and spin coupling
  of open shells. (u,d: Spin up or down).
  SGUGA info is (Midvert:IsyUp:UpperWalk/LowerWalk)
        Conf  SGUGA info        Occupation    Coefficient         Weight
           2  ( 1:1:   2/   1)   22222ud0        0.544497       0.296477
           3  ( 1:1:   3/   1)   2222u2d0       -0.277337       0.076916
           6  ( 1:1:   6/   1)   22220220        0.061916       0.003834
           7  ( 1:1:   7/   1)   22222u0d       -0.063048       0.003975
          21  ( 2:1:   1/   1)   222u22d0       -0.061982       0.003842
          24  ( 2:1:   4/   1)   222u220d        0.142481       0.020301
          41  ( 2:1:   1/   2)   22u222d0       -0.703861       0.495420
          43  ( 2:1:   3/   2)   22u2d220        0.122229       0.014940
          44  ( 2:1:   4/   2)   22u2220d       -0.069497       0.004830
          45  ( 2:1:   5/   2)   22u22dud       -0.056711       0.003216
          47  ( 2:1:   7/   2)   22u22udd        0.085606       0.007328
          55  ( 2:1:  15/   2)   22u220d2       -0.068470       0.004688
          67  ( 2:1:   7/   3)   2u222udd        0.062271       0.003878
         141  ( 3:1:   1/   5)   22022220       -0.077809       0.006054
         161  ( 3:1:   1/   7)   u2d22220       -0.110776       0.012271
         176  ( 3:1:   6/   8)   20222ud2       -0.057811       0.003342
         294  ( 5:1:   2/  15)   20u222d2        0.067218       0.004518
 
  The CI coefficients for the MIXED state nr.   3
--------------------------------------------------------------------------------
 CI COEFFICIENTS LARGER THAN  0.50D-01
  Occupation of active orbitals, and spin coupling
  of open shells. (u,d: Spin up or down).
  SGUGA info is (Midvert:IsyUp:UpperWalk/LowerWalk)
        Conf  SGUGA info        Occupation    Coefficient         Weight
           3  ( 1:1:   3/   1)   2222u2d0        0.060947       0.003715
           7  ( 1:1:   7/   1)   22222u0d       -0.275037       0.075646
          21  ( 2:1:   1/   1)   222u22d0       -0.199060       0.039625
          24  ( 2:1:   4/   1)   222u220d        0.876651       0.768518
          32  ( 2:1:  12/   1)   222u022d       -0.074689       0.005579
          33  ( 2:1:  13/   1)   222u2d02       -0.076004       0.005777
          41  ( 2:1:   1/   2)   22u222d0        0.165702       0.027457
          73  ( 2:1:  13/   3)   2u222d02        0.061815       0.003821
         115  ( 3:1:   5/   2)   22ud2202       -0.089498       0.008010
         125  ( 3:1:   5/   3)   2u2d2202       -0.166318       0.027662
         213  ( 4:1:   1/   3)   u22u22dd        0.067702       0.004584
         269  ( 5:1:   1/   9)   022u222d        0.071178       0.005066
 
  The CI coefficients for the MIXED state nr.   4
--------------------------------------------------------------------------------
 CI COEFFICIENTS LARGER THAN  0.50D-01
  Occupation of active orbitals, and spin coupling
  of open shells. (u,d: Spin up or down).
  SGUGA info is (Midvert:IsyUp:UpperWalk/LowerWalk)
        Conf  SGUGA info        Occupation    Coefficient         Weight
           2  ( 1:1:   2/   1)   22222ud0       -0.197662       0.039070
           3  ( 1:1:   3/   1)   2222u2d0        0.155031       0.024035
           6  ( 1:1:   6/   1)   22220220        0.064181       0.004119
           7  ( 1:1:   7/   1)   22222u0d        0.791269       0.626107
           9  ( 1:1:   9/   1)   222220ud       -0.062702       0.003932
          14  ( 1:1:  14/   1)   22220u2d        0.065296       0.004264
          15  ( 1:1:  15/   1)   22222002        0.177779       0.031605
          24  ( 2:1:   4/   1)   222u220d        0.290612       0.084455
          41  ( 2:1:   1/   2)   22u222d0       -0.235483       0.055452
          44  ( 2:1:   4/   2)   22u2220d        0.053752       0.002889
          47  ( 2:1:   7/   2)   22u22udd        0.054019       0.002918
          61  ( 2:1:   1/   3)   2u2222d0        0.092846       0.008620
          73  ( 2:1:  13/   3)   2u222d02       -0.189410       0.035876
          81  ( 2:1:   1/   4)   u22222d0        0.100773       0.010155
          87  ( 2:1:   7/   4)   u2222udd        0.071218       0.005072
          90  ( 2:1:  10/   4)   u222du2d       -0.053962       0.002912
         125  ( 3:1:   5/   3)   2u2d2202       -0.062278       0.003879
         155  ( 3:1:   5/   6)   2ud22202       -0.057134       0.003264
         175  ( 3:1:   5/   8)   20222202       -0.098436       0.009690
         193  ( 3:1:   3/  10)   02222u2d        0.065199       0.004251
 
  The CI coefficients for the MIXED state nr.   5
--------------------------------------------------------------------------------
 CI COEFFICIENTS LARGER THAN  0.50D-01
  Occupation of active orbitals, and spin coupling
  of open shells. (u,d: Spin up or down).
  SGUGA info is (Midvert:IsyUp:UpperWalk/LowerWalk)
        Conf  SGUGA info        Occupation    Coefficient         Weight
           3  ( 1:1:   3/   1)   2222u2d0        0.842083       0.709103
           7  ( 1:1:   7/   1)   22222u0d       -0.230479       0.053120
          10  ( 1:1:  10/   1)   2222udud        0.055002       0.003025
          12  ( 1:1:  12/   1)   2222uudd       -0.106699       0.011385
          18  ( 1:1:  18/   1)   2222u0d2        0.066190       0.004381
          24  ( 2:1:   4/   1)   222u220d       -0.072819       0.005303
          41  ( 2:1:   1/   2)   22u222d0       -0.320545       0.102749
          44  ( 2:1:   4/   2)   22u2220d       -0.069807       0.004873
          68  ( 2:1:   8/   3)   2u22u2dd        0.063841       0.004076
          73  ( 2:1:  13/   3)   2u222d02        0.057620       0.003320
          81  ( 2:1:   1/   4)   u22222d0        0.061020       0.003723
          83  ( 2:1:   3/   4)   u222d220        0.210282       0.044218
         161  ( 3:1:   1/   7)   u2d22220       -0.072272       0.005223
         177  ( 3:1:   7/   8)   2022u2d2       -0.082368       0.006785
         191  ( 3:1:   1/  10)   02222220       -0.065294       0.004263
 
  The CI coefficients for the MIXED state nr.   6
--------------------------------------------------------------------------------
 CI COEFFICIENTS LARGER THAN  0.50D-01
  Occupation of active orbitals, and spin coupling
  of open shells. (u,d: Spin up or down).
  SGUGA info is (Midvert:IsyUp:UpperWalk/LowerWalk)
        Conf  SGUGA info        Occupation    Coefficient         Weight
           2  ( 1:1:   2/   1)   22222ud0        0.722821       0.522471
           3  ( 1:1:   3/   1)   2222u2d0        0.242396       0.058756
           4  ( 1:1:   4/   1)   22222020        0.055784       0.003112
           5  ( 1:1:   5/   1)   2222ud20        0.066409       0.004410
           7  ( 1:1:   7/   1)   22222u0d        0.248836       0.061919
           9  ( 1:1:   9/   1)   222220ud       -0.063935       0.004088
          10  ( 1:1:  10/   1)   2222udud        0.063439       0.004024
          21  ( 2:1:   1/   1)   222u22d0       -0.189800       0.036024
          25  ( 2:1:   5/   1)   222u2dud        0.061214       0.003747
          27  ( 2:1:   7/   1)   222u2udd       -0.080309       0.006450
          41  ( 2:1:   1/   2)   22u222d0        0.433442       0.187872
          45  ( 2:1:   5/   2)   22u22dud        0.069538       0.004836
          65  ( 2:1:   5/   3)   2u222dud       -0.155553       0.024197
          67  ( 2:1:   7/   3)   2u222udd        0.180206       0.032474
          73  ( 2:1:  13/   3)   2u222d02       -0.058204       0.003388
         176  ( 3:1:   6/   8)   20222ud2       -0.107347       0.011523
         294  ( 5:1:   2/  15)   20u222d2       -0.050267       0.002527
 
  The CI coefficients for the MIXED state nr.   7
--------------------------------------------------------------------------------
 CI COEFFICIENTS LARGER THAN  0.50D-01
  Occupation of active orbitals, and spin coupling
  of open shells. (u,d: Spin up or down).
  SGUGA info is (Midvert:IsyUp:UpperWalk/LowerWalk)
        Conf  SGUGA info        Occupation    Coefficient         Weight
           2  ( 1:1:   2/   1)   22222ud0        0.187684       0.035225
           3  ( 1:1:   3/   1)   2222u2d0        0.053157       0.002826
          21  ( 2:1:   1/   1)   222u22d0        0.830009       0.688914
          22  ( 2:1:   2/   1)   222u2d20        0.067665       0.004579
          24  ( 2:1:   4/   1)   222u220d        0.184944       0.034204
          25  ( 2:1:   5/   1)   222u2dud       -0.241212       0.058183
          26  ( 2:1:   6/   1)   222ud2ud        0.058673       0.003442
          27  ( 2:1:   7/   1)   222u2udd        0.314433       0.098868
          41  ( 2:1:   1/   2)   22u222d0        0.085080       0.007239
          65  ( 2:1:   5/   3)   2u222dud       -0.051122       0.002614
          67  ( 2:1:   7/   3)   2u222udd        0.056979       0.003247
         112  ( 3:1:   2/   2)   22ud22ud        0.107869       0.011636
         201  ( 4:1:   1/   1)   22uu22dd        0.100953       0.010191
         210  ( 4:1:   4/   2)   2u2u2dd2        0.071392       0.005097
         262  ( 5:1:   2/   7)   202u22d2       -0.072540       0.005262
 
--
 
--- Stop Module: caspt2 at Tue Jun 10 20:08:38 2025 /rc=_RC_ALL_IS_WELL_ ---
*** files: xmldump
    saved to directory /home/pcaah4/diamide_project
--- Module caspt2 spent 6 minutes 57 seconds ---

.##################.
.# Happy landing! #.
.##################.

    Timing: Wall=683.31 User=594.50 System=79.45
******************************************************
*** WorkDir at /srv/COMMUNAL_SCRATCH/12441 cleaned ***
******************************************************
