   This run of MOLCAS is using the pymolcas driver

                             OPE
                             OPE          NMOL  CASOP  ENMOLC A   SO
                 OPE        NMOLC        AS  OP EN  MO LC     AS  OP
                OPENM       OL CA        SO  PE NM  OL CA     SOP EN
                OP EN      MO   LC       AS  OP ENMOL  CASO   PENMOL
                OP  EN     MO   LC       AS  OP EN     MO     LC ASO
               OP   E  NMOL  C  AS       OP  EN MO     LC     AS  OP
               OP  E   NMO   LC AS        OPEN  MO     LCASOP EN   M
               O  PEN   MO  LCA  SO
            OPE   NMO   L   CAS    OP
        OPENMOL  CASOP     ENMOL   CASOPE
     OPENMOLCA   SOPENMOLCASOPEN   MOLCASOPE
    OPENMOLCAS   OP           EN   MOL    CAS
    OPENMOLCAS       OP  ENM        O     LCA
    OPENMOLCAS    OPEN  MOLCASO     P  E  NMO
    OPENMOLCAS     OP               E  N  MOL
    OPENMOLCA   SO           PENM   O  L  CAS    OPEN    MO    LCAS
    OPENMOLCA   SOP           ENM   O  L  CAS   OP  EN  MOLC  AS   O
    OPENMOLCA   SOPE           NM      O  LCA   S      OP  EN MO
    OPENMOLC                AS         O  PEN   M      OL  CA  SOPE
    OPENMO        LCASOPE  NMOL        C  ASO   P      ENMOLC     AS
    OPE     NMO      LCA  SO     P     E   NM   OL  CA SO  PE N   MO
          OPENMOLCA            SOPE   NMO        LCAS  O    P  ENMO
     OPENMOLCASOPENMOLCASOPENMOLCASOPENMOLCA
        OPENMOLCASOPENMOLCASOPENMOLCASOPE
            OPENMOLCASOPENMOLCASOPENM
               OPENMOLCASOPENMOLCA        version: v23.06
                   OPENMOLCASO
                       OPE                tag:

 OpenMolcas is free software; you can redistribute it and/or modify it
 under the terms of the GNU Lesser General Public License version 2.1.
 OpenMolcas is distributed in the hope that it will be useful, but it
 is provided "as is" and without any express or implied warranties.
 For more details see the full text of the license in the file
 LICENSE or in <http://www.gnu.org/licenses/>.

                 Copyright (C) The OpenMolcas Authors
           For the author list and the recommended citation,
                   consult the file CONTRIBUTORS.md

           *************************************************
           * pymolcas version py2.24                       *
           *   build 4567b286dd94b1984b333a4ddf893180      *
           *   (after the EMIL interpreter by V. Veryazov) *
           *************************************************

configuration info
------------------
Host name: loginchem01.nottingham.ac.uk (Linux)
C Compiler ID: Intel
C flags: -std=gnu99 -gcc-sys -qopenmp
Fortran Compiler ID: Intel
Fortran flags: -fpp -i8 -heap-arrays -qopenmp
Definitions: _MOLCAS_;_I8_;_LINUX_
Parallel: OFF (GA=OFF)


   -------------------------------------------------------------------------------------------------
  |
  |              Project: orca_geometry_optimisation_15_0_BP86_def2-SVP_def2J_scf_cas1_ras12i11_cas8
  |       Submitted from: /home/pcaah4/diamide_project
  |         Scratch area: /srv/COMMUNAL_SCRATCH/12376
  |      Save outputs to: /home/pcaah4/diamide_project
  |               Molcas: /software/chemistry/openmolcas/openmolcas-23.06-openmp
  |
  | Scratch area is empty
  |
  |       MOLCAS_DRIVER = /software/chemistry/openmolcas/openmolcas-23.06-openmp/sbin/pymolcas
  | MOLCAS_KEEP_WORKDIR = NO
  |       MOLCAS_NPROCS = 1
  |       MOLCAS_SOURCE = /software/chemistry/openmolcas/openmolcas-23.06-openmp
  |    MOLCAS_STRUCTURE = 0
  |
   -------------------------------------------------------------------------------------------------

++ ---------   Input file   ---------

&SEWARD
TITLE
orca_geometry_optimisation_15_0_BP86_def2-SVP_def2J_scf_cas1_ras12i11
MULTIPOLES
2
SDIPOLE
ANGMOM
0 0 0
BASIS SET
C.ANO-S...4S3P1D.
C1           -0.200632   -0.508029   -0.210939 /Angstrom
C3            1.790828    1.159239    0.324245 /Angstrom
C4            1.077074    2.475038    0.758100 /Angstrom
C6           -1.064558    3.594695    1.208952 /Angstrom
C19          -0.434289   -2.012113   -0.255072 /Angstrom
END OF BASIS
BASIS SET
N.ANO-S...4S3P1D.
N2            1.097512   -0.137926    0.030024 /Angstrom
N5           -0.271699    2.426792    0.873575 /Angstrom
END OF BASIS
BASIS SET
O.ANO-S...4S3P1D.
O7           -1.126354    0.276587   -0.478253 /Angstrom
O8            1.803988    3.432666    1.017006 /Angstrom
END OF BASIS
BASIS SET
H.ANO-S...2S1P.
H9           -0.834710   -2.276168   -1.254140 /Angstrom
H10          -1.220679   -2.269401    0.482152 /Angstrom
H11           0.466627   -2.624590   -0.058071 /Angstrom
H12           1.703416   -0.932105    0.246081 /Angstrom
H13           2.504249    0.949277    1.145251 /Angstrom
H14           2.409702    1.442927   -0.554468 /Angstrom
H15          -0.677419    1.646536    0.317631 /Angstrom
H16          -0.391191    4.382690    1.599646 /Angstrom
H17          -1.595925    3.993268    0.316650 /Angstrom
H18          -1.829857    3.347170    1.976457 /Angstrom
END OF BASIS
END OF INPUT

&RASSCF
TITLE
orca_geometry_optimisation_15_0_BP86_def2-SVP_def2J_scf_cas1_ras12i11
LUMORB
SPIN
1
SYMMETRY
1
NACTEL
12  0  0
INACTIVE
29
DELETED  ! delete Rydberg orbitals from an initial CAS(12,11) if done
3
FROZEN
0
RAS2
8
ITERATIONS
64 25
CIROOT
7 7
1 2 3 4 5 6 7
1 1 1 1 1 1 1
LEVSHFT
0.3
CIMX
20
FILEorb = /home/pcaah4/diamide_project/cas/ras12i11/ras_orb/orca_geometry_optimisation_15_0_BP86_def2-SVP_def2J_scf_cas1_ras12i11.RasOrb
ALTEr
0
END OF INPUT

&RASSI
NROF JOBIPH
    1 7
    1 2 3 5 4 6 7
TOFILE
TRDI
TDMN
1.0D-6
END OF INPUT

&CASPT2
TITLE
orca_geometry_optimisation_15_0_BP86_def2-SVP_def2J_scf_cas1_ras12i11
MULTISTATE
7 1 2 3 4 5 6 7
SHIFT
0.35
MAXITER
50
END OF INPUT

-- ----------------------------------

--- Start Module: seward at Tue Jun 10 17:00:43 2025 ---
 
()()()()()()()()()()()()()()()()()()()()()()()()()()()()()()()()()()()()()()()()()()()()()()()()()()

                                              &SEWARD

                                   only a single process is used
                       available to each process: 2.0 GB of memory, 1 thread
                                            pid: 3120241
()()()()()()()()()()()()()()()()()()()()()()()()()()()()()()()()()()()()()()()()()()()()()()()()()()
 
               SEWARD will generate:
                  Multipole Moment integrals up to order  2
                  Kinetic Energy integrals
                  Nuclear Attraction integrals (point charge)
                  One-Electron Hamiltonian integrals
                  Velocity integrals
                  Orbital angular momentum around ( 0.0000  0.0000  0.0000 )
                  Velocity quadrupole around ( 0.5370  2.2607  0.6890 )
                  Two-Electron Repulsion integrals
 
 Title:
             orca_geometry_optimisation_15_0_BP86_def2-SVP_def2J_scf_cas1_ras12i11      
 
 
                   Integrals are discarded if absolute value <: 0.10E-13
                   Integral cutoff threshold is set to       <: 0.10E-15
 
++    Symmetry information:
      ---------------------
 
                    Character Table for C1 
 
                             E  
                    a        1  x, y, xy, Rz, z, xz, Ry, yz, Rx, I
--
 
 
++    Basis set information:
      ----------------------
 
 
      Basis set label: C.ANO-S...4S3P1D......
 
      Electronic valence basis set:
      ------------------
      Associated Effective Charge   6.000000 au
      Associated Actual Charge      6.000000 au
      Nuclear Model: Point charge
 
      Shell  nPrim  nBasis  Cartesian Spherical Contaminant
         s      10       4        X                  
         p       6       3        X                  
         d       3       1                 X         
 
 
      Basis set label: N.ANO-S...4S3P1D......
 
      Electronic valence basis set:
      ------------------
      Associated Effective Charge   7.000000 au
      Associated Actual Charge      7.000000 au
      Nuclear Model: Point charge
 
      Shell  nPrim  nBasis  Cartesian Spherical Contaminant
         s      10       4        X                  
         p       6       3        X                  
         d       3       1                 X         
 
 
      Basis set label: O.ANO-S...4S3P1D......
 
      Electronic valence basis set:
      ------------------
      Associated Effective Charge   8.000000 au
      Associated Actual Charge      8.000000 au
      Nuclear Model: Point charge
 
      Shell  nPrim  nBasis  Cartesian Spherical Contaminant
         s      10       4        X                  
         p       6       3        X                  
         d       3       1                 X         
 
 
      Basis set label: H.ANO-S...2S1P......
 
      Electronic valence basis set:
      ------------------
      Associated Effective Charge   1.000000 au
      Associated Actual Charge      1.000000 au
      Nuclear Model: Point charge
 
      Shell  nPrim  nBasis  Cartesian Spherical Contaminant
         s       7       2        X                  
         p       3       1        X                  
--
 
 
++    Molecular structure info:
      -------------------------
 
                    ************************************************ 
                    **** Cartesian Coordinates / Bohr, Angstrom **** 
                    ************************************************ 
 
     Center  Label                x              y              z                     x              y              z
        1      C1              -0.379140      -0.960036      -0.398617             -0.200632      -0.508029      -0.210939
        2      C3               3.384174       2.190644       0.612734              1.790828       1.159239       0.324245
        3      C4               2.035375       4.677144       1.432601              1.077074       2.475038       0.758100
        4      C6              -2.011723       6.792989       2.284588             -1.064558       3.594695       1.208952
        5      C19             -0.820687      -3.802343      -0.482016             -0.434289      -2.012113      -0.255072
        6      N2               2.073997      -0.260642       0.056737              1.097512      -0.137926       0.030024
        7      N5              -0.513437       4.585972       1.650817             -0.271699       2.426792       0.873575
        8      O7              -2.128501       0.522674      -0.903767             -1.126354       0.276587      -0.478253
        9      O8               3.409043       6.486799       1.921863              1.803988       3.432666       1.017006
       10      H9              -1.577373      -4.301334      -2.369981             -0.834710      -2.276168      -1.254140
       11      H10             -2.306749      -4.288546       0.911135             -1.220679      -2.269401       0.482152
       12      H11              0.881797      -4.959756      -0.109738              0.466627      -2.624590      -0.058071
       13      H12              3.218990      -1.761423       0.465026              1.703416      -0.932105       0.246081
       14      H13              4.732345       1.793874       2.164211              2.504249       0.949277       1.145251
       15      H14              4.553677       2.726737      -1.047793              2.409702       1.442927      -0.554468
       16      H15             -1.280136       3.111502       0.600236             -0.677419       1.646536       0.317631
       17      H16             -0.739244       8.282084       3.022893             -0.391191       4.382690       1.599646
       18      H17             -3.015861       7.546183       0.598382             -1.595925       3.993268       0.316650
       19      H18             -3.457929       6.325235       3.734962             -1.829857       3.347170       1.976457
 
                    ************************************************* 
                    **** InterNuclear Distances / Bohr, Angstrom **** 
                    ************************************************* 
 
     Atom centers         Bohr        Angstrom
   13 H12       6 N2      1.931334        1.022018
   16 H15       7 N5      1.966116        1.040424
   12 H11       5 C19     2.092045        1.107062
   17 H16       4 C6      2.093251        1.107701
   14 H13       2 C3      2.093339        1.107747
   11 H10       5 C19     2.094193        1.108199
   10 H9        5 C19     2.094273        1.108241
   15 H14       2 C3      2.100591        1.111585
   19 H18       4 C6      2.100926        1.111762
   18 H17       4 C6      2.102115        1.112391
    9 O8        3 C4      2.324046        1.229832
    8 O7        1 C1      2.348163        1.242594
    7 N5        3 C4      2.559760        1.354567
    6 N2        1 C1      2.591212        1.371210
    7 N5        4 C6      2.741797        1.450896
    6 N2        2 C3      2.834520        1.499963
    5 C19       1 C1      2.877608        1.522765
    3 C4        2 C3      2.945186        1.558526
   16 H15       8 O7      3.111877        1.646734
   15 H14      14 H13     3.349496        1.772477
   11 H10      10 H9      3.361231        1.778687
   19 H18      18 H17     3.394742        1.796420
   12 H11      10 H9      3.404370        1.801515
   18 H17      17 H16     3.406287        1.802529
   12 H11      11 H10     3.414606        1.806932
   19 H18      17 H16     3.424551        1.812194
   16 H15       3 C4      3.759878        1.989642
   13 H12       1 C1      3.786111        2.003524
   17 H16       7 N5      3.949028        2.089735
   13 H12       2 C3      3.958275        2.094629
   14 H13       6 N2      3.966017        2.098726
   13 H12      12 H11     4.002769        2.118174
   19 H18       7 N5      4.004838        2.119269
   14 H13       3 C4      4.015239        2.124773
   18 H17       7 N5      4.016540        2.125462
   15 H14       6 N2      4.036488        2.136017
   15 H14       3 C4      4.037114        2.136349
   10 H9        1 C1      4.060335        2.148636
   11 H10       1 C1      4.063264        2.150187
   16 H15       4 C6      4.114074        2.177074
   12 H11       1 C1      4.203710        2.224508
   14 H13      13 H12     4.221091        2.233705
   16 H15       1 C1      4.287997        2.269110
    9 O8        7 N5      4.367202        2.311024
    8 O7        6 N2      4.381454        2.318566
    9 O8        2 C3      4.491256        2.376670
    8 O7        5 C19     4.538063        2.401439
    6 N2        5 C19     4.605767        2.437267
   13 H12       5 C19     4.623984        2.446907
    4 C6        3 C4      4.645609        2.458350
   17 H16       9 O8      4.652268        2.461874
    7 N5        2 C3      4.691118        2.482433
   16 H15       2 C3      4.754359        2.515899
   18 H17      16 H15     4.762262        2.520080
   16 H15       6 N2      4.787166        2.533259
   17 H16       3 C4      4.819038        2.550125
   12 H11       6 N2      4.850848        2.566958
   14 H13       9 O8      4.881947        2.583415
   15 H14      13 H12     4.920731        2.603938
   15 H14       9 O8      4.926165        2.606814
   19 H18      16 H15     4.989726        2.640449
    2 C3        1 C1      5.011202        2.651814
    8 O7        7 N5      5.064063        2.679786
   10 H9        8 O7      5.071940        2.683955
    6 N2        3 C4      5.126034        2.712581
   11 H10       8 O7      5.145239        2.722743
    9 O8        4 C6      5.441510        2.879523
--
 
 
            Nuclear Potential Energy            459.19393253 au
 
 
      Basis set specifications :
      Symmetry species         a  
      Basis functions          212
 
 
      Input file to MOLDEN was generated!
 
--- Stop Module: seward at Tue Jun 10 17:02:33 2025 /rc=_RC_ALL_IS_WELL_ ---
*** files: orca_geometry_optimisation_15_0_BP86_def2-SVP_def2J_scf_cas1_ras12i11_cas8.GssOrb
           orca_geometry_optimisation_15_0_BP86_def2-SVP_def2J_scf_cas1_ras12i11_cas8.guessorb.molden xmldump
    saved to directory /home/pcaah4/diamide_project
--- Module seward spent 1 minute 50 seconds ---

*** symbolic link created: INPORB -> orca_geometry_optimisation_15_0_BP86_def2-SVP_def2J_scf_cas1_ras12i11_cas8.GssOrb
--- Start Module: rasscf at Tue Jun 10 17:02:34 2025 ---
 
()()()()()()()()()()()()()()()()()()()()()()()()()()()()()()()()()()()()()()()()()()()()()()()()()()

                                              &RASSCF

                                   only a single process is used
                       available to each process: 2.0 GB of memory, 1 thread
                                            pid: 3120282
()()()()()()()()()()()()()()()()()()()()()()()()()()()()()()()()()()()()()()()()()()()()()()()()()()
 
 
      Header of the ONEINT file:
      --------------------------
      orca_geometry_optimisation_15_0_BP86_def2-SVP_def2J_scf_cas1_ras12i11
      Integrals generated by Gateway/Seward, Tue Jun 10 17:00:43 2025
 
 
      OrdInt status: non-squared
 
 
      Cartesian coordinates in Angstrom:
      -----------------------------------------------------
      No.  Label        X            Y            Z        
      -----------------------------------------------------
       1   C1        -0.20063200  -0.50802900  -0.21093900
       2   C3         1.79082800   1.15923900   0.32424500
       3   C4         1.07707400   2.47503800   0.75810000
       4   C6        -1.06455800   3.59469500   1.20895200
       5   C19       -0.43428900  -2.01211300  -0.25507200
       6   N2         1.09751200  -0.13792600   0.03002400
       7   N5        -0.27169900   2.42679200   0.87357500
       8   O7        -1.12635400   0.27658700  -0.47825300
       9   O8         1.80398800   3.43266600   1.01700600
      10   H9        -0.83471000  -2.27616800  -1.25414000
      11   H10       -1.22067900  -2.26940100   0.48215200
      12   H11        0.46662700  -2.62459000  -0.05807100
      13   H12        1.70341600  -0.93210500   0.24608100
      14   H13        2.50424900   0.94927700   1.14525100
      15   H14        2.40970200   1.44292700  -0.55446800
      16   H15       -0.67741900   1.64653600   0.31763100
      17   H16       -0.39119100   4.38269000   1.59964600
      18   H17       -1.59592500   3.99326800   0.31665000
      19   H18       -1.82985700   3.34717000   1.97645700
      -----------------------------------------------------
      Nuclear repulsion energy =  459.19393253
 
++    Wave function specifications:
      -----------------------------
 
      Number of closed shell electrons          58
      Number of electrons in active shells      12
      Max number of holes in RAS1 space          0
      Max nr of electrons in RAS3 space          0
      Number of inactive orbitals               29
      Number of active orbitals                  8
      Number of secondary orbitals             172
      Spin quantum number                      0.0
      State symmetry                             1
--
 
++    Orbital specifications:
      -----------------------
 
      Symmetry species                           1
                                                 a
      Frozen orbitals                            0
      Inactive orbitals                         29
      Active orbitals                            8
      RAS1 orbitals                              0
      RAS2 orbitals                              8
      RAS3 orbitals                              0
      Secondary orbitals                       172
      Deleted orbitals                           3
      Number of basis functions                212
--
 
++    CI expansion specifications:
      ----------------------------
 
      Number of CSFs                           336
      Number of determinants                   406
      Number of root(s) required                 7
      Root chosen for geometry opt.              7
      CI roots used                              1     2     3     4     5     6     7
      weights                                0.143 0.143 0.143 0.143 0.143 0.143 0.143
      highest root included in the CI            7
      max. size of the explicit Hamiltonian    200
--
 
++    Optimization specifications:
      ----------------------------
 
      RASSCF algorithm: Conventional
      Maximum number of macro iterations        64
      Maximum number of SX iterations           25
      Threshold for RASSCF energy            0.100E-07
      Threshold for max MO rotation          0.100E+00
      Threshold for max BLB element          0.100E-03
      Level shift parameter                  0.300E+00
      Make Quasi-Newton update
--
 
      The MO-coefficients are taken from the file:
      /home/pcaah4/diamide_project/cas/ras12i11/ras_orb/orca_geometry_optimisation_15_0_BP86_def2-SVP_def2J_scf_cas1_ras12i11.RasOrb                                                                                                                                  
      Title: RASSCF average (pseudo-natural) orbitals                                      
 
      Total molecular charge    0.00
 
      ************************************************************************************************************************
      *                                                                                                                      *
      *                                            Wave function control section                                             *
      *                                                                                                                      *
      ************************************************************************************************************************
 
 
                                         RASSCF iterations: Energy and convergence statistics
                                         ----------------------------------------------------
 
      Iter CI   SX   CI       RASSCF       Energy    max ROT     max BLB   max BLB  Level Ln srch  Step   QN   Walltime
          iter iter root      energy       change     param      element    value   shift minimum  type update hh:mm:ss
 Nr of preliminary CI iterations:   4
        1   1   20    0  -453.67771539    0.00E+00   0.30E+00*  36  39 1  0.11E-01*  0.21   0.00    SX    NO    0:00:13
 ###############################################################################
 ###############################################################################
 ###                                                                         ###
 ###                                                                         ###
 ###    WARNING: Large orbital rotation.                                     ###
 ###                                                                         ###
 ###                                                                         ###
 ###############################################################################
 ###############################################################################
      Molecular orbital  30 of symmetry 1 MO space 2  weight is    0.461268
        2   3   24    0  -453.68261172   -0.49E-02*  0.58E+00*  36  39 1  0.45E-02*  0.20   0.00    SX    NO    0:00:06
        3   5   17    0  -453.68987206   -0.73E-02* -0.18E+00*  22  37 1 -0.67E-02*  0.20   0.00    SX    NO    0:00:06
        4   4   13    0  -453.69225566   -0.24E-02* -0.79E-01   29  30 1  0.23E-02*  0.20   0.00    SX    NO    0:00:06
        5   4   13    0  -453.69292917   -0.67E-03* -0.45E-01   29  30 1  0.12E-02*  0.20   1.65    LS   YES    0:00:06
        6   4   12    0  -453.69311357   -0.18E-03* -0.28E-01   29  37 1 -0.13E-02*  0.20   1.43    QN   YES    0:00:06
        7   4   11    0  -453.69318861   -0.75E-04*  0.34E-02   22  37 1  0.54E-03*  0.20   1.13    QN   YES    0:00:06
        8   3   10    0  -453.69319928   -0.11E-04*  0.33E-02   10  79 1  0.23E-03*  0.20   1.37    QN   YES    0:00:06
        9   4   10    0  -453.69320315   -0.39E-05* -0.16E-02   29  37 1  0.21E-03*  0.20   0.88    QN   YES    0:00:06
       10   3    9    0  -453.69320383   -0.68E-06* -0.76E-03   22  37 1 -0.80E-04   0.20   1.26    QN   YES    0:00:06
       11   3    8    0  -453.69320407   -0.24E-06*  0.36E-03   37  41 1  0.33E-04   0.20   1.25    QN   YES    0:00:06
       12   1    8    0  -453.69320412   -0.50E-07*  0.27E-03   29  37 1 -0.24E-04   0.20   1.47    QN   YES    0:00:06
       13   3    7    0  -453.69320414   -0.18E-07* -0.12E-03   22  37 1  0.84E-05   0.20   1.28    QN   YES    0:00:06
       14   1    6    0  -453.69320414   -0.38E-08  -0.49E-04   30  44 1  0.33E-05   0.20   1.41    QN   YES    0:00:06
      Convergence after 14 iterations
       15   3    6    0  -453.69320414   -0.17E-08  -0.49E-04   29  37 1  0.28E-05   0.20   1.41    QN   YES    0:00:06
 
      ************************************************************************************************************************
                                                      Wave function printout:
                       occupation of active orbitals, and spin coupling of open shells (u,d: Spin up or down)
      ************************************************************************************************************************
 
      Note: transformation to natural orbitals
      has been made, which may change the order of the CSFs.
 
      printout of CI-coefficients larger than  0.05 for root  1
      energy=    -453.937542
      conf/sym  11111111     Coeff  Weight
             1  22222200   0.96239 0.92619
             2  22222ud0   0.10453 0.01093
             4  22222020  -0.09447 0.00892
            61  2u2222d0   0.08735 0.00763
            62  2u222d20  -0.05554 0.00309
            84  u222220d  -0.12392 0.01536
           105  22202202  -0.07932 0.00629
           171  20222220  -0.09204 0.00847
           195  02222202  -0.07793 0.00607
 
      printout of CI-coefficients larger than  0.05 for root  2
      energy=    -453.718737
      conf/sym  11111111     Coeff  Weight
             2  22222ud0   0.05305 0.00281
             3  2222u2d0  -0.95823 0.91821
             5  2222ud20   0.12838 0.01648
            63  2u22d220   0.16026 0.02568
            86  u222d2ud   0.06465 0.00418
            88  u222u2dd   0.10821 0.01171
           107  2220u2d2   0.07917 0.00627
           197  0222u2d2   0.07846 0.00616
 
      printout of CI-coefficients larger than  0.05 for root  3
      energy=    -453.709711
      conf/sym  11111111     Coeff  Weight
             7  22222u0d   0.13031 0.01698
             8  2222u20d   0.08172 0.00668
            24  222u220d  -0.05768 0.00333
            44  22u2220d   0.94194 0.88726
            45  22u22dud   0.06893 0.00475
            47  22u22udd   0.11366 0.01292
            49  22u2202d  -0.08550 0.00731
           115  22ud2202   0.14980 0.02244
           165  u2d22202   0.11355 0.01289
           219  2uu222dd  -0.06729 0.00453
           220  2uu22d2d   0.05306 0.00282
           293  20u2222d   0.09325 0.00870
 
      printout of CI-coefficients larger than  0.05 for root  4
      energy=    -453.638363
      conf/sym  11111111     Coeff  Weight
             2  22222ud0  -0.25863 0.06689
             7  22222u0d  -0.64711 0.41875
             8  2222u20d   0.30033 0.09020
            10  2222udud  -0.05233 0.00274
            12  2222uudd  -0.08035 0.00646
            24  222u220d   0.55766 0.31098
            29  222u202d  -0.05771 0.00333
            44  22u2220d   0.10115 0.01023
            62  2u222d20   0.06754 0.00456
            65  2u222dud   0.11176 0.01249
            67  2u222udd   0.12868 0.01656
            93  u2222d02  -0.05240 0.00275
           135  u22d2202   0.13419 0.01801
           173  20222u2d  -0.09015 0.00813
           207  2u2u22dd  -0.05899 0.00348
           261  202u222d   0.05297 0.00281
 
      printout of CI-coefficients larger than  0.05 for root  5
      energy=    -453.632043
      conf/sym  11111111     Coeff  Weight
             2  22222ud0   0.22079 0.04875
             4  22222020   0.06225 0.00387
             7  22222u0d  -0.67716 0.45855
             8  2222u20d  -0.11953 0.01429
             9  222220ud  -0.05576 0.00311
            24  222u220d  -0.60686 0.36828
            25  222u2dud  -0.07624 0.00581
            27  222u2udd  -0.05880 0.00346
            29  222u202d   0.06384 0.00408
            44  22u2220d   0.06281 0.00394
            62  2u222d20  -0.05439 0.00296
            65  2u222dud   0.10428 0.01088
            67  2u222udd   0.11873 0.01410
            93  u2222d02  -0.05287 0.00280
           135  u22d2202  -0.14206 0.02018
           173  20222u2d  -0.09034 0.00816
           207  2u2u22dd   0.05414 0.00293
           261  202u222d  -0.05806 0.00337
 
      printout of CI-coefficients larger than  0.05 for root  6
      energy=    -453.611923
      conf/sym  11111111     Coeff  Weight
             2  22222ud0   0.31282 0.09786
             7  22222u0d  -0.11940 0.01426
             8  2222u20d  -0.75186 0.56529
            10  2222udud   0.16254 0.02642
            12  2222uudd   0.24196 0.05854
            24  222u220d   0.41493 0.17217
            44  22u2220d   0.10135 0.01027
            62  2u222d20  -0.08895 0.00791
            71  2u22ud2d   0.06398 0.00409
            94  u222d202  -0.05737 0.00329
           135  u22d2202   0.10006 0.01001
           174  2022u22d  -0.06734 0.00454
 
      printout of CI-coefficients larger than  0.05 for root  7
      energy=    -453.604110
      conf/sym  11111111     Coeff  Weight
             1  22222200  -0.09451 0.00893
             2  22222ud0   0.79707 0.63532
             3  2222u2d0   0.06144 0.00378
             4  22222020   0.15301 0.02341
             8  2222u20d   0.42119 0.17740
            10  2222udud  -0.07504 0.00563
            12  2222uudd  -0.11048 0.01221
            24  222u220d   0.19545 0.03820
            62  2u222d20  -0.21263 0.04521
            85  u2222dud  -0.05640 0.00318
            87  u2222udd  -0.09426 0.00889
           106  22202ud2  -0.06985 0.00488
           135  u22d2202   0.05025 0.00253
           171  20222220  -0.08179 0.00669
           196  02222ud2  -0.06191 0.00383
 
      Natural orbitals and occupation numbers for root  1
      sym 1:   1.957571   1.974802   1.999900   1.992716   1.999758   1.993565   0.049089   0.032600
 
      Natural orbitals and occupation numbers for root  2
      sym 1:   1.973506   1.999841   1.999514   1.993142   1.008781   1.999397   0.992046   0.033772
 
      Natural orbitals and occupation numbers for root  3
      sym 1:   1.999909   1.994691   1.006370   1.999610   1.998912   1.954477   0.051027   0.995004
 
      Natural orbitals and occupation numbers for root  4
      sym 1:   1.984419   1.930037   1.999312   1.936311   1.994936   1.065735   0.123431   0.965819
 
      Natural orbitals and occupation numbers for root  5
      sym 1:   1.986729   1.952511   1.999460   1.926716   1.998684   1.045199   0.106086   0.984615
 
      Natural orbitals and occupation numbers for root  6
      sym 1:   1.992167   1.970111   1.998553   1.954944   1.219444   1.835524   0.198095   0.831162
 
      Natural orbitals and occupation numbers for root  7
      sym 1:   1.978445   1.961474   1.999335   1.985361   1.790649   1.212770   0.826759   0.245207
 
      ************************************************************************************************************************
      *                                                                                                                      *
      *                                                    Final results                                                     *
      *                                                                                                                      *
      ************************************************************************************************************************
 
 
++    Wave function specifications:
      -----------------------------
 
      Number of closed shell electrons          58
      Number of electrons in active shells      12
      Max number of holes in RAS1 space          0
      Max nr of electrons in RAS3 space          0
      Number of inactive orbitals               29
      Number of active orbitals                  8
      Number of secondary orbitals             172
      Spin quantum number                      0.0
      State symmetry                             1
--
 
++    Orbital specifications:
      -----------------------
 
      Symmetry species                           1
                                                 a
      Frozen orbitals                            0
      Inactive orbitals                         29
      Active orbitals                            8
      RAS1 orbitals                              0
      RAS2 orbitals                              8
      RAS3 orbitals                              0
      Secondary orbitals                       172
      Deleted orbitals                           3
      Number of basis functions                212
--
 
++    CI expansion specifications:
      ----------------------------
 
      Number of CSFs                           336
      Number of determinants                   406
      Number of root(s) required                 7
      CI roots used                              1     2     3     4     5     6     7
      weights                                0.143 0.143 0.143 0.143 0.143 0.143 0.143
      highest root included in the CI            7
      Root passed to geometry opt.               7
--
 
++    Final optimization conditions:
      ------------------------------
 
      Average CI energy                            -453.69320414
      RASSCF energy for state  7                   -453.60410965
      Super-CI energy                                -0.00000000
      RASSCF energy change                            0.00000000
      Max change in MO coefficients              -0.661E-04
      Max non-diagonal density matrix element    -0.487E-04
      Maximum BLB matrix element                  0.285E-05
      (orbital pair  29,  37 in symmetry   1)
      Norm of electronic gradient            0.198E+00
--
 
 
      Final state energy(ies):
      ------------------------
 
::    RASSCF root number  1 Total energy:   -453.93754163
::    RASSCF root number  2 Total energy:   -453.71873735
::    RASSCF root number  3 Total energy:   -453.70971094
::    RASSCF root number  4 Total energy:   -453.63836332
::    RASSCF root number  5 Total energy:   -453.63204266
::    RASSCF root number  6 Total energy:   -453.61192345
::    RASSCF root number  7 Total energy:   -453.60410965
 
++    Molecular orbitals:
      -------------------
 
      Pseudonatural active orbitals and approximate occupation numbers
 
 
 
 
      Molecular orbitals for symmetry species 1: a  
 
 
      Orbital                 1         2         3         4         5         6         7         8         9        10
      Energy           -20.5989  -20.5295  -15.6173  -15.5994  -11.3405  -11.3054  -11.2904  -11.2835  -11.2296   -1.4237
      Occ. No.           2.0000    2.0000    2.0000    2.0000    2.0000    2.0000    2.0000    2.0000    2.0000    2.0000
 
     1 C1     1s        -0.0001    0.0003    0.0001    0.0002   -0.0001   -0.0010    1.0000   -0.0000   -0.0051   -0.0005
     2 C1     2s        -0.0010    0.0011    0.0003    0.0006   -0.0003   -0.0017    0.0021   -0.0003   -0.0004    0.0281
     3 C1     3s        -0.0007   -0.0004    0.0001    0.0002   -0.0003   -0.0012   -0.0002   -0.0002   -0.0007    0.0093
     4 C1     4s        -0.0002   -0.0003   -0.0000    0.0001   -0.0001   -0.0003    0.0013   -0.0001   -0.0002    0.0031
     5 C1     2px        0.0000   -0.0020   -0.0000    0.0013   -0.0004   -0.0010    0.0011   -0.0002   -0.0001    0.0070
     6 C1     3px        0.0001   -0.0011   -0.0000    0.0011   -0.0004   -0.0010    0.0007   -0.0003    0.0001    0.0123
     7 C1     4px        0.0000    0.0003   -0.0000   -0.0000   -0.0001   -0.0001    0.0003   -0.0001    0.0001    0.0023
     8 C1     2py        0.0001    0.0025    0.0000    0.0006   -0.0006   -0.0005    0.0010   -0.0001   -0.0007    0.0176
     9 C1     3py        0.0002    0.0015   -0.0001    0.0003   -0.0008   -0.0008    0.0009   -0.0002    0.0001    0.0181
    10 C1     4py        0.0001   -0.0004   -0.0001   -0.0001   -0.0001   -0.0003    0.0007   -0.0001    0.0003    0.0059
    11 C1     2pz        0.0000   -0.0005   -0.0000    0.0004   -0.0002   -0.0003   -0.0002    0.0001   -0.0000    0.0027
    12 C1     3pz        0.0001   -0.0003   -0.0001    0.0003   -0.0003   -0.0003    0.0003    0.0001    0.0000    0.0055
    13 C1     4pz        0.0000    0.0001   -0.0000   -0.0001   -0.0000   -0.0000   -0.0000   -0.0000    0.0000    0.0010
    14 C1     3d2-       0.0000    0.0001   -0.0000   -0.0000   -0.0000   -0.0000   -0.0003    0.0000    0.0000   -0.0009
    15 C1     3d1-      -0.0000    0.0000   -0.0000    0.0000   -0.0000   -0.0000   -0.0001    0.0000    0.0000   -0.0002
    16 C1     3d0        0.0000   -0.0000   -0.0000    0.0001    0.0000   -0.0000   -0.0003   -0.0000    0.0001   -0.0012
    17 C1     3d1+      -0.0000    0.0000   -0.0000   -0.0001   -0.0000   -0.0000    0.0002   -0.0000   -0.0001    0.0008
    18 C1     3d2+      -0.0000   -0.0000    0.0000   -0.0002    0.0000    0.0000    0.0002    0.0000   -0.0001    0.0004
    19 C3     1s         0.0001    0.0000    0.0000    0.0005    0.0076    0.9995    0.0007    0.0000    0.0000   -0.0138
    20 C3     2s         0.0007    0.0002    0.0001    0.0026    0.0003   -0.0010   -0.0002    0.0007    0.0002    0.0023
    21 C3     3s         0.0004    0.0001    0.0001    0.0013   -0.0001   -0.0023   -0.0002    0.0004    0.0001   -0.0394
    22 C3     4s         0.0000    0.0000   -0.0000    0.0001   -0.0000    0.0007   -0.0001    0.0000   -0.0000   -0.0047
    23 C3     2px       -0.0003   -0.0002    0.0002   -0.0006    0.0001    0.0002    0.0006   -0.0002    0.0001    0.0007
    24 C3     3px       -0.0002   -0.0002    0.0003   -0.0001    0.0003    0.0001    0.0007   -0.0003    0.0002    0.0072
    25 C3     4px        0.0001    0.0000    0.0000    0.0003   -0.0000   -0.0007    0.0001   -0.0000    0.0001   -0.0049
    26 C3     2py       -0.0007   -0.0000    0.0006   -0.0006   -0.0000   -0.0004    0.0003   -0.0002   -0.0000    0.0273
    27 C3     3py       -0.0008    0.0001    0.0004    0.0001   -0.0007   -0.0005    0.0003   -0.0005    0.0001    0.0044
    28 C3     4py       -0.0002    0.0000   -0.0001    0.0003   -0.0003   -0.0006    0.0000   -0.0002    0.0001    0.0073
    29 C3     2pz       -0.0002   -0.0001    0.0001    0.0002   -0.0000   -0.0001    0.0003   -0.0000   -0.0002    0.0119
    30 C3     3pz       -0.0003   -0.0001    0.0000    0.0003   -0.0003   -0.0002    0.0003   -0.0001   -0.0001    0.0043
    31 C3     4pz       -0.0001   -0.0000   -0.0000    0.0000   -0.0001   -0.0001    0.0001   -0.0001    0.0000    0.0027
    32 C3     3d2-       0.0000    0.0000    0.0000    0.0000   -0.0001   -0.0001   -0.0000   -0.0001    0.0000   -0.0020
    33 C3     3d1-      -0.0000    0.0000    0.0000   -0.0000   -0.0000   -0.0001   -0.0000    0.0000    0.0000    0.0020
    34 C3     3d0       -0.0001    0.0000   -0.0001    0.0000    0.0001    0.0001    0.0000   -0.0000   -0.0000    0.0008
    35 C3     3d1+      -0.0000   -0.0000   -0.0000   -0.0000   -0.0000   -0.0000    0.0000   -0.0000   -0.0000   -0.0002
    36 C3     3d2+       0.0001   -0.0000   -0.0000    0.0001   -0.0000    0.0000    0.0001   -0.0000   -0.0000   -0.0062
    37 C4     1s         0.0002    0.0000    0.0003   -0.0002    1.0000   -0.0075   -0.0001    0.0002    0.0000   -0.0392
    38 C4     2s         0.0005    0.0001    0.0010   -0.0015    0.0026    0.0004   -0.0005    0.0002    0.0001    0.3570
    39 C4     3s        -0.0007    0.0001    0.0002   -0.0011    0.0001    0.0001   -0.0004    0.0001    0.0001   -0.0052
    40 C4     4s        -0.0004    0.0000   -0.0000   -0.0003    0.0013    0.0000   -0.0001   -0.0001    0.0000    0.0034
    41 C4     2px        0.0017   -0.0002   -0.0017    0.0002   -0.0004    0.0003    0.0000    0.0003   -0.0002    0.0411
    42 C4     3px        0.0014   -0.0001   -0.0012   -0.0000   -0.0003    0.0006   -0.0001    0.0008   -0.0002   -0.0460
    43 C4     4px       -0.0000    0.0000    0.0002   -0.0002   -0.0000    0.0003   -0.0001    0.0004   -0.0001    0.0115
    44 C4     2py        0.0021   -0.0005    0.0005    0.0010    0.0005   -0.0008    0.0001   -0.0000   -0.0001    0.0932
    45 C4     3py        0.0015   -0.0005    0.0002    0.0010    0.0003   -0.0001    0.0004   -0.0005   -0.0001   -0.0550
    46 C4     4py       -0.0002   -0.0000   -0.0002    0.0000    0.0003    0.0003    0.0002   -0.0004    0.0001    0.0227
    47 C4     2pz        0.0006    0.0000    0.0002    0.0002    0.0004   -0.0003    0.0001    0.0000    0.0001    0.0278
    48 C4     3pz        0.0005    0.0001    0.0003    0.0002    0.0001   -0.0001    0.0002   -0.0001    0.0001   -0.0194
    49 C4     4pz       -0.0001    0.0001   -0.0000    0.0000    0.0002    0.0000    0.0000   -0.0001    0.0000    0.0062
    50 C4     3d2-      -0.0002   -0.0000   -0.0001    0.0000    0.0005   -0.0000   -0.0000   -0.0000   -0.0000    0.0345
    51 C4     3d1-       0.0000   -0.0000   -0.0000   -0.0000    0.0002   -0.0000   -0.0000    0.0000   -0.0000    0.0138
    52 C4     3d0        0.0000    0.0000    0.0001    0.0000   -0.0004    0.0001    0.0000   -0.0001   -0.0000   -0.0250
    53 C4     3d1+      -0.0001    0.0000    0.0000   -0.0000    0.0001   -0.0000   -0.0000   -0.0000   -0.0000    0.0083
    54 C4     3d2+       0.0001    0.0000   -0.0002    0.0001    0.0002   -0.0000    0.0000    0.0001   -0.0000   -0.0024
    55 C6     1s         0.0001   -0.0001    0.0004   -0.0001   -0.0001    0.0002   -0.0000    0.9996   -0.0000   -0.0092
    56 C6     2s         0.0007   -0.0005    0.0021   -0.0006    0.0005    0.0010   -0.0001   -0.0005   -0.0003    0.0086
    57 C6     3s         0.0006   -0.0003    0.0007   -0.0005    0.0002    0.0008   -0.0001   -0.0020   -0.0002   -0.0180
    58 C6     4s         0.0001   -0.0001   -0.0001   -0.0001   -0.0000    0.0002   -0.0001    0.0008   -0.0001   -0.0013
    59 C6     2px        0.0004   -0.0003    0.0003   -0.0002   -0.0002    0.0003   -0.0002   -0.0001   -0.0001    0.0128
    60 C6     3px        0.0003   -0.0002   -0.0002   -0.0002   -0.0004    0.0002   -0.0003   -0.0001   -0.0001   -0.0022
    61 C6     4px       -0.0000    0.0000   -0.0002   -0.0000   -0.0002   -0.0001   -0.0000    0.0004   -0.0000    0.0031
    62 C6     2py       -0.0002   -0.0000   -0.0004    0.0001    0.0001   -0.0003   -0.0001   -0.0000    0.0000   -0.0095
    63 C6     3py       -0.0002    0.0000    0.0002    0.0001    0.0000   -0.0003   -0.0000    0.0003    0.0000    0.0037
    64 C6     4py       -0.0000    0.0000    0.0002   -0.0000   -0.0000    0.0000    0.0000   -0.0006   -0.0000   -0.0028
    65 C6     2pz        0.0003   -0.0001   -0.0002    0.0001   -0.0001   -0.0000    0.0001   -0.0000    0.0000   -0.0087
    66 C6     3pz        0.0002   -0.0001    0.0000    0.0001   -0.0000   -0.0000    0.0001    0.0001    0.0000   -0.0035
    67 C6     4pz       -0.0000   -0.0000    0.0001   -0.0000    0.0000    0.0000   -0.0000   -0.0002   -0.0000   -0.0003
    68 C6     3d2-      -0.0000   -0.0000    0.0000    0.0000   -0.0000   -0.0000   -0.0000    0.0001    0.0000   -0.0033
    69 C6     3d1-       0.0000   -0.0000   -0.0000    0.0000    0.0000    0.0000    0.0000   -0.0001   -0.0000    0.0015
    70 C6     3d0       -0.0000    0.0000    0.0001    0.0000   -0.0000   -0.0000   -0.0000    0.0000    0.0000   -0.0015
    71 C6     3d1+      -0.0000   -0.0000   -0.0000   -0.0000    0.0000   -0.0000   -0.0000    0.0000   -0.0000   -0.0009
    72 C6     3d2+      -0.0000   -0.0000    0.0001   -0.0000    0.0001   -0.0000   -0.0000    0.0001    0.0000   -0.0004
    73 C19    1s         0.0000    0.0002   -0.0000    0.0000   -0.0000    0.0001    0.0050   -0.0000    1.0000   -0.0004
    74 C19    2s         0.0003    0.0010   -0.0002    0.0003   -0.0004    0.0006    0.0006   -0.0001    0.0021    0.0026
    75 C19    3s         0.0003    0.0006   -0.0002    0.0002   -0.0003    0.0003    0.0002   -0.0002   -0.0004    0.0028
    76 C19    4s         0.0001    0.0000   -0.0001    0.0000   -0.0001    0.0000    0.0000   -0.0001    0.0012    0.0021
    77 C19    2px        0.0000    0.0007    0.0001   -0.0002    0.0001    0.0003   -0.0002    0.0000   -0.0000   -0.0026
    78 C19    3px        0.0000    0.0005    0.0001   -0.0002    0.0001    0.0003   -0.0003    0.0000   -0.0000   -0.0030
    79 C19    4px       -0.0000   -0.0001   -0.0000   -0.0000    0.0000    0.0000   -0.0000    0.0000    0.0001   -0.0002
    80 C19    2py        0.0001    0.0001   -0.0001    0.0003   -0.0002    0.0001    0.0003   -0.0001   -0.0004    0.0038
    81 C19    3py        0.0001   -0.0001   -0.0001    0.0003   -0.0002   -0.0000   -0.0003   -0.0001   -0.0001    0.0029
    82 C19    4py       -0.0000   -0.0002    0.0000   -0.0001    0.0000   -0.0001   -0.0001   -0.0000    0.0003    0.0006
    83 C19    2pz       -0.0001    0.0002    0.0001   -0.0002    0.0001   -0.0000   -0.0002   -0.0001   -0.0000   -0.0011
    84 C19    3pz       -0.0001    0.0001    0.0001   -0.0002    0.0001   -0.0000   -0.0002   -0.0001   -0.0000   -0.0015
    85 C19    4pz        0.0000   -0.0001    0.0000    0.0000    0.0000   -0.0000    0.0000    0.0000    0.0000   -0.0003
    86 C19    3d2-      -0.0000    0.0001   -0.0000   -0.0000   -0.0000    0.0000   -0.0000   -0.0000   -0.0001   -0.0001
    87 C19    3d1-       0.0000    0.0000   -0.0000   -0.0000    0.0000    0.0000   -0.0000   -0.0000   -0.0000   -0.0001
    88 C19    3d0       -0.0000   -0.0001   -0.0000   -0.0001    0.0000   -0.0000    0.0001    0.0000    0.0001    0.0002
    89 C19    3d1+       0.0000    0.0000   -0.0000    0.0000    0.0000    0.0000   -0.0000    0.0000    0.0000   -0.0002
    90 C19    3d2+      -0.0000    0.0000   -0.0000   -0.0000    0.0000   -0.0000   -0.0001    0.0000    0.0001   -0.0001
    91 N2     1s        -0.0000    0.0001   -0.0000    0.9998    0.0001    0.0003   -0.0002   -0.0000    0.0001   -0.0011
    92 N2     2s        -0.0003    0.0006    0.0003    0.0000    0.0005    0.0025   -0.0000   -0.0001    0.0005    0.0220
    93 N2     3s        -0.0001    0.0004    0.0002   -0.0014    0.0004    0.0016   -0.0002   -0.0001    0.0003   -0.0031
    94 N2     4s        -0.0000    0.0001    0.0001    0.0005    0.0001    0.0005    0.0001   -0.0000    0.0001   -0.0015
    95 N2     2px       -0.0003    0.0004    0.0001    0.0002   -0.0002   -0.0002   -0.0001   -0.0003   -0.0003    0.0039
    96 N2     3px       -0.0005    0.0004    0.0001    0.0001   -0.0004   -0.0005   -0.0001   -0.0004   -0.0002    0.0081
    97 N2     4px       -0.0000    0.0000   -0.0000   -0.0001   -0.0001    0.0000   -0.0002   -0.0001    0.0001    0.0014
    98 N2     2py       -0.0000   -0.0012    0.0000   -0.0005    0.0002    0.0011    0.0006    0.0000   -0.0003    0.0060
    99 N2     3py        0.0001   -0.0014    0.0000    0.0004    0.0001    0.0010    0.0004   -0.0000   -0.0002   -0.0020
   100 N2     4py        0.0001    0.0000   -0.0000    0.0006   -0.0000    0.0001   -0.0002   -0.0000    0.0001   -0.0017
   101 N2     2pz       -0.0000    0.0002    0.0000    0.0001   -0.0000    0.0001   -0.0004   -0.0000   -0.0000   -0.0005
   102 N2     3pz        0.0000    0.0002    0.0000   -0.0001    0.0000    0.0001    0.0001   -0.0000    0.0000   -0.0010
   103 N2     4pz        0.0000    0.0000   -0.0000    0.0003    0.0000    0.0000    0.0000   -0.0000    0.0000   -0.0002
   104 N2     3d2-       0.0000    0.0001    0.0000   -0.0002    0.0000   -0.0000   -0.0001    0.0000   -0.0000    0.0001
   105 N2     3d1-       0.0000   -0.0000   -0.0000   -0.0001    0.0000   -0.0000    0.0000    0.0000   -0.0000    0.0003
   106 N2     3d0       -0.0000   -0.0000    0.0000    0.0001   -0.0000    0.0000    0.0001   -0.0000   -0.0001   -0.0003
   107 N2     3d1+       0.0000   -0.0000    0.0000   -0.0000    0.0000   -0.0000   -0.0000    0.0000    0.0000    0.0003
   108 N2     3d2+       0.0000   -0.0001   -0.0000    0.0001   -0.0000   -0.0000    0.0001   -0.0000    0.0000   -0.0005
   109 N5     1s         0.0001   -0.0000    0.9998    0.0001   -0.0003   -0.0001    0.0000    0.0001    0.0000   -0.0180
   110 N5     2s         0.0005   -0.0004   -0.0004    0.0005   -0.0004   -0.0004    0.0002    0.0019    0.0000    0.1026
   111 N5     3s         0.0004   -0.0003   -0.0017    0.0004   -0.0004   -0.0002    0.0001    0.0012    0.0000   -0.0468
   112 N5     4s         0.0001   -0.0001    0.0004    0.0001    0.0000   -0.0000    0.0000    0.0004    0.0000   -0.0108
   113 N5     2px       -0.0000   -0.0000   -0.0000    0.0000    0.0003    0.0002    0.0001   -0.0009   -0.0001    0.0235
   114 N5     3px       -0.0000    0.0000   -0.0002   -0.0002    0.0002    0.0004    0.0002   -0.0007   -0.0001   -0.0220
   115 N5     4px       -0.0000    0.0000    0.0003   -0.0001    0.0003    0.0000    0.0000    0.0000   -0.0000    0.0069
   116 N5     2py       -0.0012    0.0007   -0.0007    0.0003   -0.0001   -0.0004    0.0002    0.0008    0.0001    0.0399
   117 N5     3py       -0.0015    0.0010   -0.0007    0.0005   -0.0003   -0.0005    0.0005    0.0011    0.0002    0.0202
   118 N5     4py       -0.0001    0.0001    0.0006    0.0001   -0.0002   -0.0000    0.0001    0.0003    0.0000   -0.0034
   119 N5     2pz       -0.0005    0.0002   -0.0005    0.0001    0.0001   -0.0002   -0.0001    0.0002   -0.0000    0.0130
   120 N5     3pz       -0.0007    0.0003   -0.0001    0.0001   -0.0002   -0.0002   -0.0000    0.0002   -0.0000    0.0163
   121 N5     4pz       -0.0000   -0.0000   -0.0001   -0.0000   -0.0001    0.0000    0.0000    0.0001   -0.0000   -0.0018
   122 N5     3d2-      -0.0001    0.0000    0.0001   -0.0000    0.0001    0.0000    0.0000    0.0000    0.0000    0.0038
   123 N5     3d1-       0.0000   -0.0000    0.0001   -0.0000   -0.0001    0.0000    0.0000   -0.0000    0.0000   -0.0005
   124 N5     3d0       -0.0000    0.0000    0.0001   -0.0000    0.0001   -0.0000   -0.0000    0.0001   -0.0000   -0.0028
   125 N5     3d1+      -0.0000    0.0000    0.0001   -0.0000    0.0001    0.0000    0.0000    0.0000   -0.0000    0.0005
   126 N5     3d2+      -0.0000    0.0000    0.0000    0.0000    0.0001   -0.0000    0.0000   -0.0000    0.0000    0.0036
   127 O7     1s         0.0000    0.9997   -0.0000    0.0000    0.0000   -0.0000   -0.0002    0.0000    0.0001   -0.0012
   128 O7     2s         0.0000   -0.0017   -0.0004    0.0001    0.0000   -0.0002    0.0005    0.0001    0.0004    0.0295
   129 O7     3s        -0.0000   -0.0016   -0.0003    0.0001   -0.0000   -0.0001    0.0000    0.0001    0.0003   -0.0014
   130 O7     4s        -0.0000   -0.0000   -0.0001    0.0000   -0.0000   -0.0000    0.0000    0.0000    0.0001   -0.0007
   131 O7     2px        0.0000   -0.0000   -0.0001   -0.0003   -0.0000   -0.0000    0.0007    0.0001    0.0001    0.0048
   132 O7     3px        0.0000   -0.0006   -0.0001   -0.0003   -0.0000    0.0001    0.0000    0.0001    0.0002   -0.0030
   133 O7     4px       -0.0000    0.0011    0.0000   -0.0001   -0.0000    0.0000    0.0001    0.0000   -0.0000   -0.0007
   134 O7     2py       -0.0001   -0.0001   -0.0002   -0.0003    0.0000    0.0001   -0.0005   -0.0000   -0.0002   -0.0009
   135 O7     3py       -0.0001    0.0002   -0.0003   -0.0003    0.0001    0.0002   -0.0004   -0.0000   -0.0001    0.0010
   136 O7     4py       -0.0000   -0.0007   -0.0000    0.0000    0.0000    0.0001   -0.0002   -0.0000    0.0000   -0.0002
   137 O7     2pz       -0.0001   -0.0000   -0.0001   -0.0000    0.0000    0.0000   -0.0003   -0.0000    0.0001    0.0026
   138 O7     3pz       -0.0001   -0.0002   -0.0001   -0.0001    0.0000    0.0001    0.0001   -0.0000    0.0001   -0.0003
   139 O7     4pz       -0.0001    0.0004    0.0000   -0.0000    0.0000    0.0000    0.0001   -0.0000   -0.0000   -0.0002
   140 O7     3d2-       0.0000    0.0001   -0.0000   -0.0000   -0.0000    0.0000   -0.0002    0.0000   -0.0000   -0.0006
   141 O7     3d1-      -0.0000   -0.0000   -0.0000   -0.0000    0.0000    0.0000   -0.0001    0.0000   -0.0000    0.0001
   142 O7     3d0       -0.0000    0.0000    0.0000   -0.0000    0.0000    0.0000   -0.0001   -0.0000   -0.0000   -0.0004
   143 O7     3d1+      -0.0000   -0.0001   -0.0000   -0.0000   -0.0000   -0.0000    0.0000    0.0000    0.0000    0.0004
   144 O7     3d2+       0.0000   -0.0000    0.0000   -0.0001    0.0000   -0.0000    0.0001    0.0000   -0.0000    0.0001
   145 O8     1s         0.9998    0.0000    0.0000   -0.0000   -0.0003    0.0001    0.0000   -0.0000    0.0000   -0.0242
   146 O8     2s        -0.0009    0.0002    0.0000   -0.0002    0.0003    0.0005    0.0000   -0.0003    0.0001    0.6913
   147 O8     3s        -0.0010    0.0001    0.0000   -0.0001   -0.0000    0.0004   -0.0000   -0.0002    0.0001   -0.0349
   148 O8     4s         0.0003    0.0000   -0.0000   -0.0000    0.0000    0.0001   -0.0000   -0.0000    0.0000   -0.0142
   149 O8     2px       -0.0003   -0.0000    0.0003    0.0000   -0.0005   -0.0001   -0.0000    0.0001   -0.0000   -0.0910
   150 O8     3px        0.0002    0.0000    0.0004    0.0000   -0.0001   -0.0001   -0.0001    0.0000   -0.0000    0.0290
   151 O8     4px       -0.0008    0.0000    0.0001   -0.0000   -0.0001    0.0001   -0.0000   -0.0000   -0.0000    0.0017
   152 O8     2py       -0.0004   -0.0000   -0.0001   -0.0001   -0.0005   -0.0003   -0.0001    0.0000   -0.0000   -0.1140
   153 O8     3py        0.0003    0.0000   -0.0000   -0.0002   -0.0002   -0.0002   -0.0001    0.0000   -0.0000    0.0342
   154 O8     4py       -0.0010    0.0000    0.0001   -0.0001   -0.0003    0.0000   -0.0000   -0.0000    0.0000   -0.0001
   155 O8     2pz       -0.0001   -0.0000   -0.0001   -0.0000    0.0001   -0.0001   -0.0000   -0.0000   -0.0000   -0.0255
   156 O8     3pz        0.0001   -0.0001   -0.0000   -0.0000   -0.0001   -0.0001   -0.0001   -0.0000   -0.0000    0.0097
   157 O8     4pz       -0.0003   -0.0000    0.0000   -0.0000   -0.0001    0.0000   -0.0000   -0.0000   -0.0000   -0.0002
   158 O8     3d2-      -0.0000    0.0000   -0.0000   -0.0000    0.0002    0.0000    0.0000   -0.0000    0.0000    0.0180
   159 O8     3d1-       0.0000   -0.0000    0.0001   -0.0000    0.0000    0.0000   -0.0000    0.0000    0.0000    0.0055
   160 O8     3d0       -0.0000   -0.0000   -0.0000    0.0000   -0.0001   -0.0000   -0.0000   -0.0000   -0.0000   -0.0095
   161 O8     3d1+      -0.0000    0.0000   -0.0000   -0.0000    0.0001    0.0000    0.0000   -0.0000    0.0000    0.0046
   162 O8     3d2+       0.0000   -0.0000   -0.0001    0.0000   -0.0000   -0.0000    0.0000   -0.0000    0.0000   -0.0041
   163 H9     1s        -0.0001    0.0002    0.0001   -0.0001   -0.0001   -0.0004   -0.0002   -0.0001    0.0002    0.0051
   164 H9     2s        -0.0000    0.0001    0.0001   -0.0001   -0.0001   -0.0003   -0.0001   -0.0001   -0.0003    0.0034
   165 H9     2px       -0.0000   -0.0000   -0.0000    0.0000   -0.0000   -0.0000   -0.0000   -0.0000   -0.0000    0.0003
   166 H9     2py       -0.0000   -0.0001   -0.0000   -0.0000   -0.0000   -0.0000    0.0001   -0.0000    0.0000    0.0004
   167 H9     2pz        0.0000    0.0000    0.0000   -0.0000   -0.0000   -0.0000    0.0000   -0.0000   -0.0001    0.0005
   168 H10    1s         0.0002    0.0000    0.0001    0.0002   -0.0001   -0.0001    0.0001   -0.0000    0.0003    0.0043
   169 H10    2s         0.0001    0.0000    0.0000    0.0001   -0.0001   -0.0001    0.0000   -0.0000   -0.0003    0.0029
   170 H10    2px        0.0000   -0.0000   -0.0000    0.0000   -0.0000   -0.0000    0.0000   -0.0000   -0.0001    0.0004
   171 H10    2py        0.0000   -0.0001    0.0000   -0.0000   -0.0000   -0.0000    0.0000   -0.0000    0.0000    0.0002
   172 H10    2pz       -0.0000   -0.0000   -0.0000    0.0000    0.0000    0.0000   -0.0000    0.0000    0.0001   -0.0002
   173 H11    1s         0.0000   -0.0004   -0.0001    0.0003   -0.0002   -0.0003    0.0001   -0.0001    0.0001    0.0063
   174 H11    2s         0.0000   -0.0002   -0.0001    0.0003   -0.0001   -0.0002    0.0000   -0.0000   -0.0003    0.0040
   175 H11    2px       -0.0000    0.0000    0.0000   -0.0000    0.0000    0.0000   -0.0000    0.0000    0.0001   -0.0005
   176 H11    2py       -0.0000   -0.0000   -0.0000   -0.0000   -0.0000    0.0000    0.0001   -0.0000   -0.0000    0.0003
   177 H11    2pz        0.0000   -0.0000   -0.0000    0.0000   -0.0000    0.0000    0.0000    0.0000    0.0000   -0.0001
   178 H12    1s         0.0001   -0.0009   -0.0001   -0.0002    0.0000    0.0002    0.0004    0.0001   -0.0003    0.0037
   179 H12    2s         0.0001   -0.0005   -0.0000   -0.0002    0.0000    0.0002    0.0001    0.0000   -0.0001   -0.0008
   180 H12    2px        0.0000    0.0000   -0.0000    0.0003    0.0000    0.0000   -0.0002    0.0000   -0.0000   -0.0004
   181 H12    2py       -0.0000   -0.0001   -0.0000   -0.0004   -0.0000    0.0001    0.0000   -0.0000   -0.0000    0.0010
   182 H12    2pz       -0.0000    0.0000    0.0000    0.0001    0.0000   -0.0000   -0.0001   -0.0000   -0.0000   -0.0001
   183 H13    1s        -0.0002    0.0001    0.0002   -0.0007   -0.0002    0.0007   -0.0005   -0.0003    0.0001    0.0212
   184 H13    2s        -0.0001    0.0001    0.0001   -0.0004   -0.0001   -0.0000   -0.0004   -0.0002    0.0001    0.0050
   185 H13    2px        0.0000    0.0000   -0.0000    0.0000   -0.0000   -0.0000    0.0000    0.0000   -0.0000   -0.0015
   186 H13    2py       -0.0001    0.0000   -0.0000    0.0000    0.0001   -0.0000   -0.0000   -0.0000    0.0000    0.0018
   187 H13    2pz       -0.0000   -0.0000    0.0000   -0.0000    0.0000   -0.0000    0.0001    0.0000   -0.0000   -0.0009
   188 H14    1s        -0.0002    0.0002    0.0001   -0.0003   -0.0002    0.0007   -0.0004   -0.0002   -0.0002    0.0246
   189 H14    2s        -0.0002    0.0002    0.0001   -0.0001   -0.0002   -0.0000   -0.0002   -0.0002   -0.0001    0.0077
   190 H14    2px        0.0000   -0.0000   -0.0000    0.0000   -0.0000   -0.0000    0.0000    0.0000    0.0000   -0.0014
   191 H14    2py       -0.0001   -0.0000   -0.0000    0.0000    0.0001   -0.0000    0.0000    0.0000    0.0000    0.0007
   192 H14    2pz       -0.0000    0.0000   -0.0000    0.0000    0.0000    0.0000   -0.0001   -0.0000   -0.0000    0.0018
   193 H15    1s        -0.0005    0.0011    0.0002    0.0005    0.0002   -0.0003    0.0002   -0.0005   -0.0000    0.0298
   194 H15    2s        -0.0002    0.0007    0.0001    0.0004   -0.0000   -0.0002    0.0002   -0.0002   -0.0000   -0.0058
   195 H15    2px        0.0000   -0.0000   -0.0002    0.0000    0.0002    0.0000    0.0000   -0.0001    0.0000    0.0019
   196 H15    2py        0.0000   -0.0002   -0.0003    0.0000    0.0000   -0.0000   -0.0001   -0.0000   -0.0000    0.0042
   197 H15    2pz       -0.0000   -0.0001   -0.0003    0.0000    0.0000   -0.0000   -0.0001   -0.0000   -0.0000    0.0030
   198 H16    1s        -0.0002    0.0002   -0.0005   -0.0001   -0.0001   -0.0000   -0.0001    0.0010    0.0000    0.0134
   199 H16    2s        -0.0001    0.0001   -0.0002   -0.0001   -0.0000    0.0000   -0.0001    0.0001    0.0000   -0.0005
   200 H16    2px       -0.0000   -0.0000   -0.0000    0.0000    0.0000    0.0000   -0.0000   -0.0000   -0.0000    0.0002
   201 H16    2py        0.0000   -0.0000    0.0000    0.0000    0.0000    0.0000    0.0000   -0.0001    0.0000   -0.0013
   202 H16    2pz       -0.0000   -0.0000    0.0000    0.0000    0.0000   -0.0000   -0.0000   -0.0000   -0.0000   -0.0003
   203 H17    1s         0.0006   -0.0002   -0.0007    0.0000   -0.0003    0.0001   -0.0000    0.0006   -0.0000    0.0050
   204 H17    2s         0.0004   -0.0002   -0.0003   -0.0000   -0.0003    0.0001   -0.0000   -0.0001   -0.0000   -0.0010
   205 H17    2px        0.0000    0.0000   -0.0001    0.0000   -0.0000    0.0000    0.0000    0.0000    0.0000    0.0004
   206 H17    2py       -0.0000    0.0000    0.0000    0.0000    0.0000   -0.0000    0.0000   -0.0000    0.0000   -0.0006
   207 H17    2pz        0.0000   -0.0000   -0.0000   -0.0000   -0.0000    0.0000   -0.0000    0.0000    0.0000    0.0004
   208 H18    1s         0.0001   -0.0001   -0.0005   -0.0001   -0.0002    0.0000   -0.0003    0.0006   -0.0000    0.0105
   209 H18    2s         0.0000   -0.0001   -0.0003   -0.0001   -0.0001    0.0000   -0.0002   -0.0001   -0.0000    0.0028
   210 H18    2px       -0.0000   -0.0000   -0.0001   -0.0000   -0.0000    0.0000   -0.0000    0.0000   -0.0000    0.0010
   211 H18    2py       -0.0000   -0.0000   -0.0000   -0.0000   -0.0000    0.0000   -0.0000   -0.0000   -0.0000    0.0001
   212 H18    2pz       -0.0000    0.0000    0.0000    0.0000    0.0000   -0.0000    0.0000   -0.0000    0.0000   -0.0007
 
 
      Orbital                11        12        13        14        15        16        17        18        19        20
      Energy            -1.3671   -1.2506   -1.2197   -1.0182   -0.9684   -0.9328   -0.8107   -0.7741   -0.7104   -0.6930
      Occ. No.           2.0000    2.0000    2.0000    2.0000    2.0000    2.0000    2.0000    2.0000    2.0000    2.0000
 
     1 C1     1s        -0.0390   -0.0057   -0.0093   -0.0125   -0.0088    0.0019    0.0113   -0.0105    0.0065   -0.0064
     2 C1     2s         0.3447    0.0099    0.1279    0.2242    0.1409   -0.0136   -0.2547    0.2772   -0.1789    0.1633
     3 C1     3s        -0.0069   -0.0159   -0.0022   -0.0059   -0.0118   -0.0019    0.0056    0.0010    0.0108   -0.0097
     4 C1     4s         0.0024   -0.0042   -0.0004   -0.0026   -0.0020    0.0008    0.0035   -0.0011    0.0040   -0.0044
     5 C1     2px       -0.0571   -0.0348    0.1489    0.0542   -0.0316   -0.0842   -0.0776    0.1247    0.0971   -0.0457
     6 C1     3px        0.0373    0.0050   -0.0414   -0.0519   -0.0276    0.0466   -0.0095   -0.0409   -0.0425    0.0254
     7 C1     4px       -0.0198   -0.0071    0.0290   -0.0007   -0.0076   -0.0063   -0.0087    0.0062    0.0068   -0.0017
     8 C1     2py        0.0758   -0.0156   -0.0018   -0.1010   -0.1177   -0.0657   -0.0303    0.0691   -0.0437   -0.0919
     9 C1     3py       -0.0478   -0.0413    0.0274   -0.0169    0.0360    0.0559    0.0350    0.0123    0.0255    0.0229
    10 C1     4py        0.0196   -0.0068   -0.0007   -0.0208   -0.0166   -0.0026    0.0009    0.0097    0.0005   -0.0012
    11 C1     2pz       -0.0284   -0.0105    0.0324    0.0014   -0.0038   -0.0170    0.0021    0.0178    0.0430   -0.0183
    12 C1     3pz        0.0162    0.0013   -0.0082   -0.0125    0.0026    0.0092    0.0015   -0.0020   -0.0084    0.0073
    13 C1     4pz       -0.0054   -0.0025    0.0064   -0.0009   -0.0002   -0.0008    0.0011    0.0024    0.0048   -0.0009
    14 C1     3d2-      -0.0284   -0.0080    0.0238    0.0080    0.0041   -0.0036   -0.0031    0.0169   -0.0014   -0.0139
    15 C1     3d1-      -0.0090   -0.0024    0.0056    0.0017    0.0013   -0.0013    0.0010    0.0037    0.0018   -0.0030
    16 C1     3d0       -0.0240   -0.0022   -0.0064   -0.0095   -0.0051    0.0024    0.0094   -0.0102    0.0049   -0.0038
    17 C1     3d1+       0.0144    0.0012    0.0042    0.0030   -0.0009   -0.0034   -0.0054    0.0011   -0.0012    0.0019
    18 C1     3d2+       0.0088   -0.0003    0.0149    0.0030   -0.0119   -0.0160   -0.0082    0.0001    0.0068    0.0001
    19 C3     1s        -0.0069    0.0097   -0.0310    0.0430    0.0015   -0.0296   -0.0020   -0.0024    0.0053   -0.0057
    20 C3     2s         0.0217   -0.0405    0.1617   -0.3286    0.0016    0.3371    0.0419    0.1049   -0.1125    0.0271
    21 C3     3s        -0.0106    0.0167   -0.0565    0.0828    0.0059   -0.0409   -0.0003    0.0025    0.0060   -0.0209
    22 C3     4s        -0.0007    0.0006   -0.0120    0.0197    0.0021   -0.0093   -0.0006   -0.0011    0.0029   -0.0054
    23 C3     2px       -0.0211    0.0405   -0.0506    0.0073   -0.0294    0.0489    0.0569   -0.0238   -0.0545    0.2330
    24 C3     3px       -0.0061    0.0008    0.0068   -0.0232   -0.0190    0.0009   -0.0069   -0.0038    0.0015   -0.0263
    25 C3     4px       -0.0013   -0.0058    0.0075   -0.0169   -0.0070    0.0176    0.0029    0.0036   -0.0040    0.0064
    26 C3     2py       -0.0236   -0.0037   -0.0989   -0.0342    0.0320    0.0301   -0.1691    0.1722    0.1702    0.0628
    27 C3     3py       -0.0107   -0.0177   -0.0169    0.0056   -0.0714   -0.0194   -0.0059   -0.0111   -0.0380   -0.0307
    28 C3     4py       -0.0063   -0.0092   -0.0126   -0.0081   -0.0041    0.0022   -0.0111    0.0060   -0.0022   -0.0028
    29 C3     2pz        0.0023   -0.0043   -0.0177   -0.0102    0.0179    0.0135   -0.0327    0.0005    0.0931    0.0414
    30 C3     3pz        0.0040   -0.0055   -0.0015    0.0074   -0.0115   -0.0014    0.0027   -0.0012   -0.0115   -0.0076
    31 C3     4pz       -0.0010   -0.0028   -0.0013   -0.0008   -0.0013   -0.0004   -0.0018   -0.0019    0.0026    0.0004
    32 C3     3d2-       0.0026    0.0020    0.0150    0.0080   -0.0132   -0.0061    0.0133   -0.0067   -0.0185   -0.0108
    33 C3     3d1-       0.0019   -0.0013    0.0069   -0.0044    0.0005    0.0001   -0.0030    0.0010    0.0041   -0.0100
    34 C3     3d0       -0.0024    0.0032   -0.0102    0.0054    0.0010    0.0011   -0.0005    0.0025   -0.0036    0.0154
    35 C3     3d1+       0.0010    0.0011    0.0025    0.0020   -0.0033   -0.0005    0.0047   -0.0028   -0.0044    0.0006
    36 C3     3d2+      -0.0011   -0.0012   -0.0112    0.0061    0.0034   -0.0037   -0.0047    0.0103   -0.0096    0.0016
    37 C4     1s         0.0024    0.0103    0.0048    0.0096   -0.0101    0.0045    0.0166    0.0041   -0.0060   -0.0000
    38 C4     2s         0.0039   -0.1574    0.0304   -0.2267    0.2132    0.0275   -0.3456   -0.1220    0.2289   -0.0329
    39 C4     3s         0.0065   -0.0019    0.0195    0.0033   -0.0018    0.0135    0.0262   -0.0040   -0.0061   -0.0099
    40 C4     4s         0.0020   -0.0019    0.0053    0.0031   -0.0018    0.0031    0.0086   -0.0021   -0.0028   -0.0009
    41 C4     2px       -0.0090    0.1801    0.0431   -0.0160   -0.0301    0.1049    0.0481    0.1491    0.1830    0.1790
    42 C4     3px        0.0116   -0.0129    0.0077   -0.0128    0.0841   -0.0596    0.0135   -0.0571   -0.0677   -0.0210
    43 C4     4px       -0.0010    0.0382    0.0090   -0.0036    0.0042    0.0046    0.0075    0.0056    0.0105    0.0172
    44 C4     2py       -0.0105    0.0322   -0.0365    0.1455   -0.0851   -0.0433   -0.0058   -0.1241   -0.0153    0.1052
    45 C4     3py        0.0088   -0.0552   -0.0075   -0.0087   -0.0339    0.0606   -0.0235    0.0466    0.0093   -0.0452
    46 C4     4py       -0.0047    0.0041   -0.0064    0.0132   -0.0140    0.0037   -0.0054   -0.0049    0.0061    0.0043
    47 C4     2pz       -0.0096    0.0023   -0.0159    0.0376   -0.0230   -0.0216   -0.0258   -0.0631   -0.0168    0.0184
    48 C4     3pz       -0.0067   -0.0119   -0.0066   -0.0048   -0.0208    0.0194   -0.0104    0.0194    0.0023   -0.0159
    49 C4     4pz       -0.0028   -0.0008   -0.0029    0.0036   -0.0043    0.0010   -0.0038   -0.0034   -0.0005    0.0000
    50 C4     3d2-      -0.0026    0.0139   -0.0012    0.0097    0.0011   -0.0153    0.0094   -0.0011    0.0159   -0.0036
    51 C4     3d1-      -0.0006    0.0035    0.0019   -0.0052    0.0012    0.0044   -0.0063    0.0022    0.0056   -0.0000
    52 C4     3d0        0.0006    0.0084    0.0011    0.0080   -0.0088    0.0022    0.0091    0.0045   -0.0054    0.0004
    53 C4     3d1+      -0.0008    0.0071    0.0004    0.0041   -0.0023   -0.0031    0.0075    0.0035    0.0092    0.0004
    54 C4     3d2+       0.0020   -0.0266   -0.0075   -0.0001    0.0124   -0.0138   -0.0034   -0.0117   -0.0123   -0.0019
    55 C6     1s         0.0006    0.0323    0.0097   -0.0269    0.0374   -0.0315    0.0086   -0.0032   -0.0072    0.0069
    56 C6     2s         0.0210   -0.1534   -0.0232    0.2091   -0.3073    0.2906   -0.1198   -0.0030    0.0444   -0.0759
    57 C6     3s         0.0098    0.0514    0.0263   -0.0415    0.0639   -0.0481    0.0195   -0.0103   -0.0194    0.0214
    58 C6     4s         0.0031    0.0073    0.0065   -0.0085    0.0142   -0.0095    0.0063   -0.0022   -0.0041    0.0070
    59 C6     2px        0.0090   -0.0593   -0.0109    0.0204    0.0108   -0.0214   -0.0171   -0.0954   -0.1715    0.1115
    60 C6     3px        0.0063    0.0134    0.0085   -0.0077    0.0172   -0.0031   -0.0011    0.0072    0.0190   -0.0163
    61 C6     4px        0.0003    0.0008    0.0026   -0.0073    0.0123   -0.0083    0.0011   -0.0067   -0.0077    0.0074
    62 C6     2py       -0.0069    0.0870    0.0130   -0.0248    0.0092    0.0159   -0.1239   -0.0489    0.0612   -0.2523
    63 C6     3py       -0.0015   -0.0088   -0.0091    0.0121   -0.0062   -0.0031    0.0015    0.0013   -0.0174    0.0357
    64 C6     4py       -0.0002    0.0014   -0.0006    0.0075   -0.0116    0.0109   -0.0098   -0.0032    0.0027   -0.0113
    65 C6     2pz       -0.0033    0.0246    0.0017   -0.0041   -0.0081    0.0113   -0.0521   -0.0291   -0.0061   -0.0572
    66 C6     3pz       -0.0011   -0.0047   -0.0045    0.0061   -0.0105    0.0040   -0.0045   -0.0023   -0.0024    0.0078
    67 C6     4pz        0.0004    0.0009    0.0004    0.0028   -0.0034    0.0044   -0.0037   -0.0019   -0.0002   -0.0026
    68 C6     3d2-      -0.0012    0.0187    0.0039   -0.0050    0.0007    0.0032   -0.0087    0.0018    0.0130   -0.0246
    69 C6     3d1-       0.0006   -0.0084   -0.0021    0.0032   -0.0017   -0.0009    0.0054   -0.0002   -0.0070    0.0094
    70 C6     3d0       -0.0005    0.0088    0.0024   -0.0043    0.0024    0.0006   -0.0019    0.0045    0.0121   -0.0127
    71 C6     3d1+      -0.0002    0.0061    0.0013   -0.0013    0.0004    0.0012   -0.0045   -0.0014    0.0021   -0.0088
    72 C6     3d2+      -0.0004    0.0068    0.0015   -0.0028    0.0028   -0.0004   -0.0124   -0.0088   -0.0002   -0.0126
    73 C19    1s        -0.0153   -0.0012   -0.0111   -0.0357   -0.0522   -0.0361   -0.0151    0.0070   -0.0025    0.0078
    74 C19    2s        -0.0089   -0.0009    0.0003    0.1783    0.3131    0.2406    0.0964   -0.0362    0.0062   -0.0738
    75 C19    3s        -0.0399   -0.0096   -0.0324   -0.0718   -0.0991   -0.0649   -0.0320    0.0222   -0.0027    0.0136
    76 C19    4s        -0.0035   -0.0040   -0.0046   -0.0149   -0.0216   -0.0141   -0.0078    0.0067    0.0003    0.0036
    77 C19    2px       -0.0113   -0.0048    0.0191    0.0377    0.0198   -0.0150   -0.0148    0.0310    0.0587    0.0281
    78 C19    3px       -0.0030   -0.0005   -0.0036    0.0143    0.0059   -0.0052    0.0062    0.0030   -0.0021   -0.0064
    79 C19    4px        0.0060    0.0008   -0.0000   -0.0003   -0.0070   -0.0080   -0.0008   -0.0013    0.0043    0.0035
    80 C19    2py        0.0199   -0.0050    0.0167    0.0418    0.0288    0.0006   -0.0728    0.0539   -0.0610    0.1618
    81 C19    3py       -0.0079   -0.0088   -0.0038   -0.0184   -0.0263   -0.0116    0.0070   -0.0064    0.0133   -0.0195
    82 C19    4py        0.0070   -0.0001    0.0008   -0.0076   -0.0170   -0.0144   -0.0110    0.0081   -0.0036    0.0071
    83 C19    2pz       -0.0036   -0.0032    0.0092    0.0085    0.0008    0.0021   -0.0002    0.0015    0.0193    0.0008
    84 C19    3pz        0.0005   -0.0023    0.0046    0.0050   -0.0019    0.0037    0.0005   -0.0009   -0.0021   -0.0023
    85 C19    4pz        0.0016   -0.0001    0.0002   -0.0003   -0.0022   -0.0018   -0.0003   -0.0000    0.0008    0.0005
    86 C19    3d2-      -0.0023   -0.0008    0.0064    0.0051    0.0026   -0.0019   -0.0042    0.0045   -0.0019    0.0047
    87 C19    3d1-      -0.0012   -0.0003    0.0012    0.0007    0.0001   -0.0005   -0.0004    0.0005    0.0001    0.0007
    88 C19    3d0        0.0007    0.0001   -0.0011   -0.0061   -0.0063   -0.0025    0.0028   -0.0027   -0.0016   -0.0074
    89 C19    3d1+      -0.0021   -0.0003   -0.0001    0.0005    0.0005   -0.0003    0.0003    0.0003    0.0020    0.0001
    90 C19    3d2+      -0.0059   -0.0010   -0.0012   -0.0079   -0.0080   -0.0033    0.0061   -0.0044    0.0070   -0.0130
    91 N2     1s        -0.0186    0.0054   -0.0403   -0.0051    0.0010    0.0018   -0.0020    0.0030   -0.0008   -0.0043
    92 N2     2s         0.1264   -0.0701    0.5791    0.0762   -0.1647   -0.1951    0.0396   -0.1000    0.0361   -0.1215
    93 N2     3s        -0.0477    0.0113   -0.0733   -0.0043   -0.0094   -0.0117   -0.0038    0.0043    0.0026   -0.0199
    94 N2     4s        -0.0115    0.0038   -0.0249   -0.0001    0.0006   -0.0009   -0.0018    0.0022    0.0007   -0.0023
    95 N2     2px       -0.0304   -0.0119   -0.0203   -0.0909   -0.0699    0.0763    0.2039   -0.3359    0.0142    0.0542
    96 N2     3px        0.0150   -0.0131   -0.0053    0.0389   -0.0291   -0.0457   -0.0771    0.0755   -0.0030   -0.0107
    97 N2     4px       -0.0051   -0.0036    0.0016   -0.0019   -0.0101   -0.0043   -0.0023   -0.0024    0.0040   -0.0006
    98 N2     2py        0.0178    0.0025   -0.0332   -0.1313   -0.0431    0.0774    0.0163    0.0647   -0.2512   -0.2284
    99 N2     3py        0.0107    0.0179   -0.0394    0.0454   -0.0146   -0.0540   -0.0357   -0.0174    0.0443    0.0474
   100 N2     4py       -0.0091    0.0015   -0.0142   -0.0015   -0.0021   -0.0046   -0.0080    0.0041    0.0020    0.0045
   101 N2     2pz       -0.0205   -0.0048    0.0069   -0.0361   -0.0233    0.0163    0.0483   -0.0966    0.0375   -0.0019
   102 N2     3pz       -0.0056    0.0019   -0.0108    0.0045   -0.0084   -0.0154   -0.0221    0.0205   -0.0079   -0.0005
   103 N2     4pz       -0.0015   -0.0002   -0.0001   -0.0013   -0.0019   -0.0017   -0.0011   -0.0002   -0.0006    0.0010
   104 N2     3d2-      -0.0001   -0.0016    0.0110   -0.0004    0.0023    0.0048   -0.0026    0.0109   -0.0118   -0.0053
   105 N2     3d1-       0.0010   -0.0005    0.0028   -0.0028    0.0004    0.0024   -0.0005    0.0037   -0.0050   -0.0049
   106 N2     3d0       -0.0022    0.0019   -0.0147   -0.0008    0.0029    0.0029   -0.0003   -0.0005    0.0001    0.0010
   107 N2     3d1+       0.0028   -0.0006    0.0072    0.0008   -0.0018   -0.0019   -0.0005   -0.0010   -0.0001    0.0016
   108 N2     3d2+       0.0058    0.0003    0.0028    0.0082   -0.0010   -0.0085   -0.0106    0.0134   -0.0008    0.0041
   109 N5     1s        -0.0032    0.0405    0.0062   -0.0011   -0.0008   -0.0008    0.0013    0.0027   -0.0013    0.0019
   110 N5     2s         0.0418   -0.5820   -0.1236    0.0312    0.1030   -0.1903    0.2177    0.0571   -0.1258    0.1523
   111 N5     3s        -0.0055    0.0754    0.0095   -0.0076    0.0141   -0.0213    0.0131    0.0090   -0.0115    0.0123
   112 N5     4s        -0.0017    0.0252    0.0043   -0.0036    0.0035   -0.0028    0.0002    0.0013   -0.0001    0.0010
   113 N5     2px        0.0018   -0.0432    0.0129   -0.0950    0.1545   -0.0838   -0.2584   -0.2636   -0.1032   -0.2428
   114 N5     3px        0.0087    0.0039    0.0169    0.0276   -0.0471    0.0459    0.0716    0.0459    0.0128    0.0534
   115 N5     4px        0.0016    0.0006    0.0045   -0.0058    0.0027    0.0026    0.0013    0.0008    0.0021    0.0058
   116 N5     2py       -0.0235   -0.0036   -0.0149    0.0827   -0.0865    0.0820   -0.1442   -0.1988   -0.1975    0.1950
   117 N5     3py       -0.0184    0.0407   -0.0062   -0.0528    0.0665   -0.0560    0.0399    0.0330    0.0480   -0.0243
   118 N5     4py       -0.0028    0.0061   -0.0032   -0.0052    0.0058   -0.0075    0.0015    0.0027    0.0038   -0.0028
   119 N5     2pz       -0.0092    0.0271    0.0049    0.0313   -0.0361    0.0527   -0.0846   -0.0897   -0.0948    0.0823
   120 N5     3pz        0.0014    0.0014   -0.0005   -0.0155    0.0296   -0.0179    0.0251    0.0215    0.0262   -0.0122
   121 N5     4pz        0.0007    0.0026   -0.0007   -0.0003    0.0021   -0.0022    0.0010    0.0024    0.0021   -0.0013
   122 N5     3d2-      -0.0002    0.0064   -0.0002   -0.0032    0.0069   -0.0098    0.0007   -0.0040    0.0041   -0.0077
   123 N5     3d1-       0.0018   -0.0085   -0.0021    0.0009   -0.0011   -0.0022    0.0096    0.0081    0.0029    0.0020
   124 N5     3d0       -0.0006    0.0135    0.0026   -0.0016   -0.0004    0.0013    0.0046    0.0064    0.0058   -0.0009
   125 N5     3d1+       0.0001    0.0038   -0.0001    0.0002   -0.0004   -0.0019    0.0058    0.0044    0.0047    0.0011
   126 N5     3d2+      -0.0003   -0.0084   -0.0009   -0.0067    0.0114   -0.0069   -0.0136   -0.0115   -0.0018   -0.0127
   127 O7     1s        -0.0222   -0.0024    0.0024   -0.0030   -0.0031   -0.0014    0.0069   -0.0082    0.0131   -0.0059
   128 O7     2s         0.6942    0.1139   -0.3049   -0.1675   -0.1436   -0.0061    0.1570   -0.2525    0.2463   -0.0945
   129 O7     3s        -0.0236    0.0000   -0.0135   -0.0183   -0.0157   -0.0089    0.0231   -0.0293    0.0419   -0.0175
   130 O7     4s        -0.0125   -0.0000   -0.0010   -0.0035   -0.0028   -0.0030    0.0038   -0.0059    0.0083   -0.0033
   131 O7     2px        0.1150    0.0136   -0.0142    0.0089   -0.0045   -0.0311   -0.1078    0.1383   -0.1877    0.0464
   132 O7     3px       -0.0314    0.0005   -0.0027   -0.0069   -0.0042   -0.0066    0.0124   -0.0156    0.0191   -0.0044
   133 O7     4px       -0.0038    0.0018    0.0002   -0.0004    0.0009   -0.0004   -0.0004   -0.0037    0.0008   -0.0001
   134 O7     2py       -0.0732   -0.0298    0.0301   -0.0166   -0.0287   -0.0607    0.1035    0.0161    0.2187   -0.1200
   135 O7     3py        0.0260    0.0002   -0.0044    0.0102    0.0078   -0.0077   -0.0094    0.0066   -0.0192    0.0152
   136 O7     4py       -0.0009   -0.0007   -0.0022    0.0010    0.0007   -0.0004   -0.0008    0.0008   -0.0047    0.0029
   137 O7     2pz        0.0227   -0.0018   -0.0134   -0.0108   -0.0068   -0.0123    0.0009    0.0352   -0.0228    0.0070
   138 O7     3pz       -0.0107    0.0001   -0.0033   -0.0024   -0.0024   -0.0042    0.0028   -0.0059    0.0037    0.0011
   139 O7     4pz       -0.0023    0.0012   -0.0000    0.0005    0.0002   -0.0004   -0.0013   -0.0012   -0.0013    0.0011
   140 O7     3d2-      -0.0159   -0.0033    0.0049   -0.0003   -0.0005   -0.0022    0.0073   -0.0018    0.0136   -0.0064
   141 O7     3d1-      -0.0028   -0.0017    0.0010    0.0000   -0.0001   -0.0018    0.0032    0.0010    0.0051   -0.0021
   142 O7     3d0       -0.0094   -0.0012    0.0039    0.0009    0.0004   -0.0005    0.0024   -0.0017    0.0059   -0.0021
   143 O7     3d1+       0.0064    0.0002   -0.0021   -0.0013   -0.0014   -0.0016   -0.0008    0.0033   -0.0025   -0.0000
   144 O7     3d2+       0.0035    0.0007    0.0025   -0.0000   -0.0032   -0.0042   -0.0052    0.0060   -0.0025   -0.0023
   145 O8     1s         0.0011   -0.0022   -0.0002    0.0026   -0.0033   -0.0017    0.0137    0.0058   -0.0168   -0.0111
   146 O8     2s        -0.0679    0.3033   -0.0053    0.1683   -0.1240   -0.0716    0.3385    0.1306   -0.2777   -0.1915
   147 O8     3s        -0.0009    0.0107   -0.0007    0.0132   -0.0121   -0.0084    0.0434    0.0169   -0.0473   -0.0318
   148 O8     4s         0.0003    0.0007    0.0000    0.0022   -0.0016   -0.0021    0.0082    0.0030   -0.0095   -0.0068
   149 O8     2px        0.0090   -0.0065    0.0092   -0.0031   -0.0243    0.0270    0.1456    0.1375   -0.1390   -0.1270
   150 O8     3px        0.0004   -0.0059    0.0012   -0.0000    0.0038    0.0020   -0.0201   -0.0166    0.0152    0.0082
[...]
ATVX     1  Mu1.0001  Se1.051                       0.10260673     -0.01336336      0.02984693     -0.00039886
ATVX     1  Mu1.0002  Se1.051                       0.17552347     -0.00081215      0.00158960     -0.00000129
ATVX     1  Mu1.0003  Se1.051                       0.23094440     -0.00021917      0.00036983     -0.00000008
ATVX     1  Mu1.0004  Se1.051                       0.28804827     -0.00141441      0.00221363     -0.00000313
ATVX     1  Mu1.0001  Se1.052                       0.12417066      0.00180160     -0.00373623     -0.00000673
ATVX     1  Mu1.0002  Se1.052                       0.19708739      0.00336053     -0.00599692     -0.00002015
ATVX     1  Mu1.0003  Se1.052                       0.25250832     -0.00379386      0.00624639     -0.00002370
ATVX     1  Mu1.0001  Se1.053                       0.13030053      0.00248880     -0.00481988     -0.00001200
ATVX     1  Mu1.0002  Se1.053                       0.20321727      0.01350197     -0.02451791     -0.00033104
ATVX     1  Mu1.0003  Se1.053                       0.25863820     -0.00376906      0.00610784     -0.00002302
ATVX     1  Mu1.0001  Se1.054                       0.14043982     -0.00130206      0.00259971     -0.00000338
ATVX     1  Mu1.0002  Se1.054                       0.21335655      0.00085427     -0.00130934     -0.00000112
ATVX     1  Mu1.0003  Se1.054                       0.26877749     -0.00063881      0.00103172     -0.00000066
ATVX     1  Mu1.0001  Se1.055                       0.14784301     -0.00797567      0.01691602     -0.00013492
ATVX     1  Mu1.0002  Se1.055                       0.22075974     -0.00144101      0.00231487     -0.00000334
ATVX     1  Mu1.0003  Se1.055                       0.27618067      0.00032483     -0.00052659     -0.00000017
ATVX     1  Mu1.0001  Se1.056                       0.17476064      0.00192634     -0.00277814     -0.00000535
ATVX     1  Mu1.0002  Se1.056                       0.24767737     -0.00438057      0.00778672     -0.00003411
ATVX     1  Mu1.0001  Se1.057                       0.21323682     -0.01048977      0.01836632     -0.00019266
ATVX     1  Mu1.0002  Se1.057                       0.28615355     -0.00727602      0.01138082     -0.00008281
ATVX     1  Mu1.0001  Se1.058                       0.20808467     -0.00024014      0.00013150     -0.00000003
ATVX     1  Mu1.0002  Se1.058                       0.28100140     -0.00265047      0.00453051     -0.00001201
ATVX     1  Mu1.0001  Se1.059                       0.22863999     -0.00686205      0.01160671     -0.00007965
ATVX     1  Mu1.0001  Se1.060                       0.23427602     -0.00667035      0.01160934     -0.00007744
ATVX     1  Mu1.0001  Se1.061                       0.24680928     -0.00744957      0.01294354     -0.00009642
ATVX     1  Mu1.0001  Se1.062                       0.25807284     -0.02727168      0.04435400     -0.00120961
ATVX     1  Mu1.0001  Se1.063                       0.26405715     -0.00948996      0.01504082     -0.00014274
ATVX     1  Mu1.0001  Se1.064                       0.28301719     -0.00103227      0.00171156     -0.00000177
ATVX     1  Mu1.0001  Se1.065                       0.29511637      0.00469155     -0.00695855     -0.00003265
ATVX     1  Mu1.0001  Se1.067                       0.33873951     -0.03208662      0.04501912     -0.00144451
ATVX     1  Mu1.0001  Se1.069                       0.36676573      0.01866932     -0.02580580     -0.00048178
ATVX     1  Mu1.0002  Se1.079                       0.59348977      0.02481019     -0.02621228     -0.00065033
AIVX     1  Mu1.0001  In1.022 Se1.038               0.28567021      0.00100542     -0.00088872     -0.00000089
AIVX     1  Mu1.0001  In1.023 Se1.038               0.26662961     -0.00026131      0.00046067     -0.00000012
AIVX     1  Mu1.0001  In1.024 Se1.038               0.28009481     -0.00026778      0.00104269     -0.00000028
AIVX     1  Mu1.0001  In1.025 Se1.038               0.25321862      0.00215813     -0.00362207     -0.00000782
AIVX     1  Mu1.0001  In1.026 Se1.038               0.21111672      0.00071423     -0.00211654     -0.00000151
AIVX     1  Mu1.0001  In1.027 Se1.038               0.23101599      0.00046397     -0.00084148     -0.00000039
AIVX     1  Mu1.0001  In1.028 Se1.038               0.23350119      0.00005274     -0.00002814     -0.00000000
AIVX     1  Mu1.0001  In1.029 Se1.038               0.21667240      0.00195954     -0.00397201     -0.00000778
AIVX     1  Mu1.0001  In1.022 Se1.039               0.29921406      0.00050072     -0.00113839     -0.00000057
AIVX     1  Mu1.0001  In1.023 Se1.039               0.28017346      0.00053716     -0.00084223     -0.00000045
AIVX     1  Mu1.0001  In1.024 Se1.039               0.29363866     -0.00066040      0.00061271     -0.00000040
AIVX     1  Mu1.0001  In1.025 Se1.039               0.26676247     -0.00009310      0.00024337     -0.00000002
AIVX     1  Mu1.0001  In1.026 Se1.039               0.22466057      0.00033887     -0.00019441     -0.00000007
AIVX     1  Mu1.0001  In1.027 Se1.039               0.24455984     -0.00194406      0.00333534     -0.00000648
AIVX     1  Mu1.0001  In1.028 Se1.039               0.24704504     -0.00031840      0.00059121     -0.00000019
AIVX     1  Mu1.0001  In1.029 Se1.039               0.23021625     -0.00056741      0.00122819     -0.00000070
AIVX     1  Mu1.0001  In1.023 Se1.040               0.29863411     -0.00060917      0.00098845     -0.00000060
AIVX     1  Mu1.0001  In1.025 Se1.040               0.28522312      0.00069217     -0.00098311     -0.00000068
AIVX     1  Mu1.0001  In1.026 Se1.040               0.24312122      0.00248905     -0.00421787     -0.00001050
AIVX     1  Mu1.0001  In1.027 Se1.040               0.26302050      0.00219841     -0.00352735     -0.00000775
AIVX     1  Mu1.0001  In1.028 Se1.040               0.26550569      0.00029701     -0.00042116     -0.00000013
AIVX     1  Mu1.0001  In1.029 Se1.040               0.24867690      0.00183643     -0.00310315     -0.00000570
AIVX     1  Mu1.0001  In1.025 Se1.041               0.28814757      0.00006182     -0.00001594     -0.00000000
AIVX     1  Mu1.0001  In1.026 Se1.041               0.24604567     -0.00080287      0.00130536     -0.00000105
AIVX     1  Mu1.0001  In1.027 Se1.041               0.26594495      0.00023610     -0.00036111     -0.00000009
AIVX     1  Mu1.0001  In1.028 Se1.041               0.26843014      0.00054871     -0.00082897     -0.00000045
AIVX     1  Mu1.0001  In1.029 Se1.041               0.25160135     -0.00018738      0.00029210     -0.00000005
AIVX     1  Mu1.0001  In1.026 Se1.042               0.26079395      0.00163295     -0.00259148     -0.00000423
AIVX     1  Mu1.0001  In1.027 Se1.042               0.28069322      0.00294468     -0.00466908     -0.00001375
AIVX     1  Mu1.0001  In1.028 Se1.042               0.28317842      0.00014897     -0.00011585     -0.00000002
AIVX     1  Mu1.0001  In1.029 Se1.042               0.26634963      0.00245154     -0.00386618     -0.00000948
AIVX     1  Mu1.0001  In1.026 Se1.043               0.27888458     -0.00083909      0.00138466     -0.00000116
AIVX     1  Mu1.0001  In1.027 Se1.043               0.29878385     -0.00631295      0.00978600     -0.00006178
AIVX     1  Mu1.0001  In1.029 Se1.043               0.28444026     -0.00285776      0.00453014     -0.00001295
AIVX     1  Mu1.0001  In1.026 Se1.044               0.27627074     -0.00027983      0.00079221     -0.00000022
AIVX     1  Mu1.0001  In1.027 Se1.044               0.29617002     -0.00245539      0.00376040     -0.00000923
AIVX     1  Mu1.0001  In1.028 Se1.044               0.29865521      0.00051897     -0.00083160     -0.00000043
AIVX     1  Mu1.0001  In1.029 Se1.044               0.28182642     -0.00095122      0.00163689     -0.00000156
AIVX     1  Mu1.0001  In1.026 Se1.045               0.29100184      0.00371327     -0.00482088     -0.00001790
AIVX     1  Mu1.0001  In1.029 Se1.045               0.29655752     -0.00061177      0.00160829     -0.00000098
--
 
   (Skipping property calculation,
    use PROP keyword to activate)
--
 
  Total CASPT2 energies:
::    CASPT2 Root  1     Total energy:   -455.37014653
::    CASPT2 Root  2     Total energy:   -455.15099054
::    CASPT2 Root  3     Total energy:   -455.15738332
::    CASPT2 Root  4     Total energy:   -455.11673560
::    CASPT2 Root  5     Total energy:   -455.11154177
::    CASPT2 Root  6     Total energy:   -455.09304757
::    CASPT2 Root  7     Total energy:   -455.11566776
 
++ Multi-State CASPT2 section:
********************************************************************************
  MULTI-STATE CASPT2 SECTION
--------------------------------------------------------------------------------
 
  Output diagonal energies have been shifted. Add   -455.000000000000     
 
  Effective Hamiltonian matrix (Symmetric):
 
                1               2               3               4               5
   1        -0.37014653
   2         0.00046924     -0.15099054
   3         0.00067831     -0.00044299     -0.15738332
   4        -0.00995813      0.00167399     -0.00049808     -0.11673560
   5         0.00992066     -0.00020391      0.00023538      0.01450017     -0.11154177
   6         0.00993753     -0.00032321      0.00110010     -0.00486337      0.00573142
   7         0.01797266     -0.00192793      0.00012262      0.00561000     -0.00643162
 
                6               7
   6        -0.09304757
   7        -0.01494698     -0.11566776
 
       Total MS-CASPT2 energies:
::    MS-CASPT2 Root  1     Total energy:   -455.37268842
::    MS-CASPT2 Root  2     Total energy:   -455.15743830
::    MS-CASPT2 Root  3     Total energy:   -455.15122632
::    MS-CASPT2 Root  4     Total energy:   -455.13117591
::    MS-CASPT2 Root  5     Total energy:   -455.12044807
::    MS-CASPT2 Root  6     Total energy:   -455.09954977
::    MS-CASPT2 Root  7     Total energy:   -455.08298630
 
       Eigenvectors:
            0.99482411      0.00077206      0.01324792      0.07695764      0.06366620
           -0.00316183      0.06143979      0.99235674     -0.09600635     -0.04313167
           -0.00276397      0.99781001     -0.05907359      0.02107431      0.01519282
            0.04194827      0.01191901     -0.07064786     -0.70238991      0.22106065
           -0.04110937     -0.00792733      0.03753994      0.60981871     -0.15860631
           -0.03771415     -0.01745602      0.01292183     -0.07023164      0.49598825
           -0.07372495     -0.00949343      0.07067931      0.33801368      0.82086986
 
            0.00084916      0.01312680
            0.01835958      0.00535004
           -0.00465010      0.01346425
            0.66311241     -0.10568676
            0.74129576      0.22424027
           -0.09879872      0.85872460
            0.02533604     -0.44805853
 
--
 
  THE ORIGINAL CI ARRAYS ARE NOW MIXED AS LINEAR
  COMBINATIONS, GIVEN BY THE EIGENVECTORS.
  A NEW JOBIPH FILE NAMED 'JOBMIX' IS PREPARED.
********************************************************************************
 
++ Mixed CI coefficients:
  The CI coefficients for the MIXED state nr.   1
--------------------------------------------------------------------------------
 CI COEFFICIENTS LARGER THAN  0.50D-01
  Occupation of active orbitals, and spin coupling
  of open shells. (u,d: Spin up or down).
  SGUGA info is (Midvert:IsyUp:UpperWalk/LowerWalk)
        Conf  SGUGA info        Occupation    Coefficient         Weight
           1  ( 1:1:   1/   1)   22222200        0.967672       0.936388
           4  ( 1:1:   4/   1)   22222020       -0.111344       0.012398
          61  ( 2:1:   1/   3)   2u2222d0        0.091138       0.008306
          84  ( 2:1:   4/   4)   u222220d       -0.124766       0.015567
         105  ( 3:1:   5/   1)   22202202       -0.080195       0.006431
         171  ( 3:1:   1/   8)   20222220       -0.082328       0.006778
         195  ( 3:1:   5/  10)   02222202       -0.077442       0.005997
 
  The CI coefficients for the MIXED state nr.   2
--------------------------------------------------------------------------------
 CI COEFFICIENTS LARGER THAN  0.50D-01
  Occupation of active orbitals, and spin coupling
  of open shells. (u,d: Spin up or down).
  SGUGA info is (Midvert:IsyUp:UpperWalk/LowerWalk)
        Conf  SGUGA info        Occupation    Coefficient         Weight
           7  ( 1:1:   7/   1)   22222u0d        0.129566       0.016787
           8  ( 1:1:   8/   1)   2222u20d        0.097772       0.009559
          24  ( 2:1:   4/   1)   222u220d       -0.055706       0.003103
          44  ( 2:1:   4/   2)   22u2220d        0.940235       0.884041
          45  ( 2:1:   5/   2)   22u22dud        0.068932       0.004752
          47  ( 2:1:   7/   2)   22u22udd        0.113471       0.012876
          49  ( 2:1:   9/   2)   22u2202d       -0.085365       0.007287
         115  ( 3:1:   5/   2)   22ud2202        0.149548       0.022365
         165  ( 3:1:   5/   7)   u2d22202        0.113385       0.012856
         219  ( 4:1:   1/   4)   2uu222dd       -0.067136       0.004507
         220  ( 4:1:   2/   4)   2uu22d2d        0.052982       0.002807
         293  ( 5:1:   1/  15)   20u2222d        0.093064       0.008661
 
  The CI coefficients for the MIXED state nr.   3
--------------------------------------------------------------------------------
 CI COEFFICIENTS LARGER THAN  0.50D-01
  Occupation of active orbitals, and spin coupling
  of open shells. (u,d: Spin up or down).
  SGUGA info is (Midvert:IsyUp:UpperWalk/LowerWalk)
        Conf  SGUGA info        Occupation    Coefficient         Weight
           2  ( 1:1:   2/   1)   22222ud0        0.140274       0.019677
           3  ( 1:1:   3/   1)   2222u2d0       -0.947147       0.897088
           5  ( 1:1:   5/   1)   2222ud20        0.126364       0.015968
          63  ( 2:1:   3/   3)   2u22d220        0.158183       0.025022
          86  ( 2:1:   6/   4)   u222d2ud        0.064046       0.004102
          88  ( 2:1:   8/   4)   u222u2dd        0.106918       0.011432
         107  ( 3:1:   7/   1)   2220u2d2        0.078264       0.006125
         197  ( 3:1:   7/  10)   0222u2d2        0.077534       0.006011
 
  The CI coefficients for the MIXED state nr.   4
--------------------------------------------------------------------------------
 CI COEFFICIENTS LARGER THAN  0.50D-01
  Occupation of active orbitals, and spin coupling
  of open shells. (u,d: Spin up or down).
  SGUGA info is (Midvert:IsyUp:UpperWalk/LowerWalk)
        Conf  SGUGA info        Occupation    Coefficient         Weight
           2  ( 1:1:   2/   1)   22222ud0        0.566951       0.321433
           3  ( 1:1:   3/   1)   2222u2d0        0.126125       0.015908
           4  ( 1:1:   4/   1)   22222020        0.114088       0.013016
           7  ( 1:1:   7/   1)   22222u0d        0.060599       0.003672
           8  ( 1:1:   8/   1)   2222u20d       -0.089384       0.007989
          24  ( 2:1:   4/   1)   222u220d       -0.726855       0.528318
          27  ( 2:1:   7/   1)   222u2udd       -0.057110       0.003262
          29  ( 2:1:   9/   1)   222u202d        0.074904       0.005611
          61  ( 2:1:   1/   3)   2u2222d0       -0.052693       0.002777
          62  ( 2:1:   2/   3)   2u222d20       -0.149005       0.022202
          87  ( 2:1:   7/   4)   u2222udd       -0.067069       0.004498
         135  ( 3:1:   5/   4)   u22d2202       -0.173519       0.030109
         171  ( 3:1:   1/   8)   20222220       -0.064037       0.004101
         196  ( 3:1:   6/  10)   02222ud2       -0.051550       0.002657
         207  ( 4:1:   1/   2)   2u2u22dd        0.072874       0.005311
         261  ( 5:1:   1/   7)   202u222d       -0.069844       0.004878
 
  The CI coefficients for the MIXED state nr.   5
--------------------------------------------------------------------------------
 CI COEFFICIENTS LARGER THAN  0.50D-01
  Occupation of active orbitals, and spin coupling
  of open shells. (u,d: Spin up or down).
  SGUGA info is (Midvert:IsyUp:UpperWalk/LowerWalk)
        Conf  SGUGA info        Occupation    Coefficient         Weight
           2  ( 1:1:   2/   1)   22222ud0        0.721799       0.520994
           3  ( 1:1:   3/   1)   2222u2d0        0.080740       0.006519
           4  ( 1:1:   4/   1)   22222020        0.117846       0.013888
           7  ( 1:1:   7/   1)   22222u0d       -0.071240       0.005075
           8  ( 1:1:   8/   1)   2222u20d        0.058914       0.003471
          24  ( 2:1:   4/   1)   222u220d        0.583939       0.340984
          27  ( 2:1:   7/   1)   222u2udd        0.055189       0.003046
          29  ( 2:1:   9/   1)   222u202d       -0.061374       0.003767
          62  ( 2:1:   2/   3)   2u222d20       -0.197977       0.039195
          87  ( 2:1:   7/   4)   u2222udd       -0.080532       0.006485
         106  ( 3:1:   6/   1)   22202ud2       -0.067015       0.004491
         135  ( 3:1:   5/   4)   u22d2202        0.140890       0.019850
         171  ( 3:1:   1/   8)   20222220       -0.078710       0.006195
         196  ( 3:1:   6/  10)   02222ud2       -0.051867       0.002690
         261  ( 5:1:   1/   7)   202u222d        0.053418       0.002854
 
  The CI coefficients for the MIXED state nr.   6
--------------------------------------------------------------------------------
 CI COEFFICIENTS LARGER THAN  0.50D-01
  Occupation of active orbitals, and spin coupling
  of open shells. (u,d: Spin up or down).
  SGUGA info is (Midvert:IsyUp:UpperWalk/LowerWalk)
        Conf  SGUGA info        Occupation    Coefficient         Weight
           7  ( 1:1:   7/   1)   22222u0d       -0.919178       0.844887
           8  ( 1:1:   8/   1)   2222u20d        0.195902       0.038378
          12  ( 1:1:  12/   1)   2222uudd       -0.056428       0.003184
          24  ( 2:1:   4/   1)   222u220d       -0.116017       0.013460
          25  ( 2:1:   5/   1)   222u2dud       -0.067714       0.004585
          44  ( 2:1:   4/   2)   22u2220d        0.098532       0.009709
          65  ( 2:1:   5/   3)   2u222dud        0.148709       0.022114
          67  ( 2:1:   7/   3)   2u222udd        0.170826       0.029181
          93  ( 2:1:  13/   4)   u2222d02       -0.072930       0.005319
         173  ( 3:1:   3/   8)   20222u2d       -0.125109       0.015652
 
  The CI coefficients for the MIXED state nr.   7
--------------------------------------------------------------------------------
 CI COEFFICIENTS LARGER THAN  0.50D-01
  Occupation of active orbitals, and spin coupling
  of open shells. (u,d: Spin up or down).
  SGUGA info is (Midvert:IsyUp:UpperWalk/LowerWalk)
        Conf  SGUGA info        Occupation    Coefficient         Weight
           7  ( 1:1:   7/   1)   22222u0d       -0.196937       0.038784
           8  ( 1:1:   8/   1)   2222u20d       -0.891311       0.794435
          10  ( 1:1:  10/   1)   2222udud        0.183920       0.033826
          12  ( 1:1:  12/   1)   2222uudd        0.272742       0.074388
          24  ( 2:1:   4/   1)   222u220d        0.072635       0.005276
          44  ( 2:1:   4/   2)   22u2220d        0.121269       0.014706
          71  ( 2:1:  11/   3)   2u22ud2d        0.071046       0.005048
          94  ( 2:1:  14/   4)   u222d202       -0.069621       0.004847
         174  ( 3:1:   4/   8)   2022u22d       -0.079218       0.006276
 
--
 
--- Stop Module: caspt2 at Tue Jun 10 17:12:06 2025 /rc=_RC_ALL_IS_WELL_ ---
*** files: xmldump
    saved to directory /home/pcaah4/diamide_project
--- Module caspt2 spent 6 minutes 52 seconds ---

.##################.
.# Happy landing! #.
.##################.

    Timing: Wall=678.87 User=590.78 System=77.91
******************************************************
*** WorkDir at /srv/COMMUNAL_SCRATCH/12376 cleaned ***
******************************************************
