   This run of MOLCAS is using the pymolcas driver

                             OPE
                             OPE          NMOL  CASOP  ENMOLC A   SO
                 OPE        NMOLC        AS  OP EN  MO LC     AS  OP
                OPENM       OL CA        SO  PE NM  OL CA     SOP EN
                OP EN      MO   LC       AS  OP ENMOL  CASO   PENMOL
                OP  EN     MO   LC       AS  OP EN     MO     LC ASO
               OP   E  NMOL  C  AS       OP  EN MO     LC     AS  OP
               OP  E   NMO   LC AS        OPEN  MO     LCASOP EN   M
               O  PEN   MO  LCA  SO
            OPE   NMO   L   CAS    OP
        OPENMOL  CASOP     ENMOL   CASOPE
     OPENMOLCA   SOPENMOLCASOPEN   MOLCASOPE
    OPENMOLCAS   OP           EN   MOL    CAS
    OPENMOLCAS       OP  ENM        O     LCA
    OPENMOLCAS    OPEN  MOLCASO     P  E  NMO
    OPENMOLCAS     OP               E  N  MOL
    OPENMOLCA   SO           PENM   O  L  CAS    OPEN    MO    LCAS
    OPENMOLCA   SOP           ENM   O  L  CAS   OP  EN  MOLC  AS   O
    OPENMOLCA   SOPE           NM      O  LCA   S      OP  EN MO
    OPENMOLC                AS         O  PEN   M      OL  CA  SOPE
    OPENMO        LCASOPE  NMOL        C  ASO   P      ENMOLC     AS
    OPE     NMO      LCA  SO     P     E   NM   OL  CA SO  PE N   MO
          OPENMOLCA            SOPE   NMO        LCAS  O    P  ENMO
     OPENMOLCASOPENMOLCASOPENMOLCASOPENMOLCA
        OPENMOLCASOPENMOLCASOPENMOLCASOPE
            OPENMOLCASOPENMOLCASOPENM
               OPENMOLCASOPENMOLCA        version: v23.06
                   OPENMOLCASO
                       OPE                tag:

 OpenMolcas is free software; you can redistribute it and/or modify it
 under the terms of the GNU Lesser General Public License version 2.1.
 OpenMolcas is distributed in the hope that it will be useful, but it
 is provided "as is" and without any express or implied warranties.
 For more details see the full text of the license in the file
 LICENSE or in <http://www.gnu.org/licenses/>.

                 Copyright (C) The OpenMolcas Authors
           For the author list and the recommended citation,
                   consult the file CONTRIBUTORS.md

           *************************************************
           * pymolcas version py2.24                       *
           *   build 4567b286dd94b1984b333a4ddf893180      *
           *   (after the EMIL interpreter by V. Veryazov) *
           *************************************************

configuration info
------------------
Host name: loginchem01.nottingham.ac.uk (Linux)
C Compiler ID: Intel
C flags: -std=gnu99 -gcc-sys -qopenmp
Fortran Compiler ID: Intel
Fortran flags: -fpp -i8 -heap-arrays -qopenmp
Definitions: _MOLCAS_;_I8_;_LINUX_
Parallel: OFF (GA=OFF)


   ----------------------------------------------------------------------------------------------------
  |
  |              Project: orca_geometry_optimisation_345_300_BP86_def2-SVP_def2J_scf_cas1_ras12i11_cas8
  |       Submitted from: /home/pcaah4/diamide_project
  |         Scratch area: /srv/COMMUNAL_SCRATCH/12488
  |      Save outputs to: /home/pcaah4/diamide_project
  |               Molcas: /software/chemistry/openmolcas/openmolcas-23.06-openmp
  |
  | Scratch area is empty
  |
  |       MOLCAS_DRIVER = /software/chemistry/openmolcas/openmolcas-23.06-openmp/sbin/pymolcas
  | MOLCAS_KEEP_WORKDIR = NO
  |       MOLCAS_NPROCS = 1
  |       MOLCAS_SOURCE = /software/chemistry/openmolcas/openmolcas-23.06-openmp
  |    MOLCAS_STRUCTURE = 0
  |
   ----------------------------------------------------------------------------------------------------

++ ---------   Input file   ---------

&SEWARD
TITLE
orca_geometry_optimisation_345_300_BP86_def2-SVP_def2J_scf_cas1_ras12i11
MULTIPOLES
2
SDIPOLE
ANGMOM
0 0 0
BASIS SET
C.ANO-S...4S3P1D.
C1           -0.140941   -0.204980    0.071720 /Angstrom
C3            1.968207    1.212649   -0.102796 /Angstrom
C4            1.193365    2.491508   -0.502077 /Angstrom
C6           -0.311756    3.518728   -2.150612 /Angstrom
C19          -0.601949   -1.658060    0.187543 /Angstrom
END OF BASIS
BASIS SET
N.ANO-S...4S3P1D.
N2            1.225826   -0.042820    0.004769 /Angstrom
N5            0.569391    2.444829   -1.725172 /Angstrom
END OF BASIS
BASIS SET
O.ANO-S...4S3P1D.
O7           -0.940599    0.728626    0.065444 /Angstrom
O8            1.285350    3.506150    0.182077 /Angstrom
END OF BASIS
BASIS SET
H.ANO-S...2S1P.
H9           -1.419811   -1.826205   -0.539594 /Angstrom
H10          -1.032736   -1.812108    1.197657 /Angstrom
H11           0.194274   -2.410570    0.021282 /Angstrom
H12           1.793299   -0.891566    0.016746 /Angstrom
H13           2.442269    1.473009    0.867144 /Angstrom
H14           2.786210    1.071774   -0.843275 /Angstrom
H15           0.368573    1.513492   -2.094102 /Angstrom
H16          -1.369155    3.320490   -1.867872 /Angstrom
H17           0.015426    4.443884   -1.640887 /Angstrom
H18          -0.251231    3.665147   -3.248217 /Angstrom
END OF BASIS
END OF INPUT

&RASSCF
TITLE
orca_geometry_optimisation_345_300_BP86_def2-SVP_def2J_scf_cas1_ras12i11
LUMORB
SPIN
1
SYMMETRY
1
NACTEL
12  0  0
INACTIVE
29
DELETED  ! delete Rydberg orbitals from an initial CAS(12,11) if done
3
FROZEN
0
RAS2
8
ITERATIONS
64 25
CIROOT
7 7
1 2 3 4 5 6 7
1 1 1 1 1 1 1
LEVSHFT
0.3
CIMX
20
FILEorb = /home/pcaah4/diamide_project/cas/ras12i11/ras_orb/orca_geometry_optimisation_345_300_BP86_def2-SVP_def2J_scf_cas1_ras12i11.RasOrb
ALTEr
0
END OF INPUT

&RASSI
NROF JOBIPH
    1 7
    1 2 3 5 4 6 7
TOFILE
TRDI
TDMN
1.0D-6
END OF INPUT

&CASPT2
TITLE
orca_geometry_optimisation_345_300_BP86_def2-SVP_def2J_scf_cas1_ras12i11
MULTISTATE
7 1 2 3 4 5 6 7
SHIFT
0.35
MAXITER
50
END OF INPUT

-- ----------------------------------

--- Start Module: seward at Tue Jun 10 21:51:33 2025 ---
 
()()()()()()()()()()()()()()()()()()()()()()()()()()()()()()()()()()()()()()()()()()()()()()()()()()

                                              &SEWARD

                                   only a single process is used
                       available to each process: 2.0 GB of memory, 1 thread
                                            pid: 3141508
()()()()()()()()()()()()()()()()()()()()()()()()()()()()()()()()()()()()()()()()()()()()()()()()()()
 
               SEWARD will generate:
                  Multipole Moment integrals up to order  2
                  Kinetic Energy integrals
                  Nuclear Attraction integrals (point charge)
                  One-Electron Hamiltonian integrals
                  Velocity integrals
                  Orbital angular momentum around ( 0.0000  0.0000  0.0000 )
                  Velocity quadrupole around ( 0.8643  2.5323 -0.8467 )
                  Two-Electron Repulsion integrals
 
 Title:
            orca_geometry_optimisation_345_300_BP86_def2-SVP_def2J_scf_cas1_ras12i11    
 
 
                   Integrals are discarded if absolute value <: 0.10E-13
                   Integral cutoff threshold is set to       <: 0.10E-15
 
++    Symmetry information:
      ---------------------
 
                    Character Table for C1 
 
                             E  
                    a        1  x, y, xy, Rz, z, xz, Ry, yz, Rx, I
--
 
 
++    Basis set information:
      ----------------------
 
 
      Basis set label: C.ANO-S...4S3P1D......
 
      Electronic valence basis set:
      ------------------
      Associated Effective Charge   6.000000 au
      Associated Actual Charge      6.000000 au
      Nuclear Model: Point charge
 
      Shell  nPrim  nBasis  Cartesian Spherical Contaminant
         s      10       4        X                  
         p       6       3        X                  
         d       3       1                 X         
 
 
      Basis set label: N.ANO-S...4S3P1D......
 
      Electronic valence basis set:
      ------------------
      Associated Effective Charge   7.000000 au
      Associated Actual Charge      7.000000 au
      Nuclear Model: Point charge
 
      Shell  nPrim  nBasis  Cartesian Spherical Contaminant
         s      10       4        X                  
         p       6       3        X                  
         d       3       1                 X         
 
 
      Basis set label: O.ANO-S...4S3P1D......
 
      Electronic valence basis set:
      ------------------
      Associated Effective Charge   8.000000 au
      Associated Actual Charge      8.000000 au
      Nuclear Model: Point charge
 
      Shell  nPrim  nBasis  Cartesian Spherical Contaminant
         s      10       4        X                  
         p       6       3        X                  
         d       3       1                 X         
 
 
      Basis set label: H.ANO-S...2S1P......
 
      Electronic valence basis set:
      ------------------
      Associated Effective Charge   1.000000 au
      Associated Actual Charge      1.000000 au
      Nuclear Model: Point charge
 
      Shell  nPrim  nBasis  Cartesian Spherical Contaminant
         s       7       2        X                  
         p       3       1        X                  
--
 
 
++    Molecular structure info:
      -------------------------
 
                    ************************************************ 
                    **** Cartesian Coordinates / Bohr, Angstrom **** 
                    ************************************************ 
 
     Center  Label                x              y              z                     x              y              z
        1      C1              -0.266340      -0.387356       0.135531             -0.140941      -0.204980       0.071720
        2      C3               3.719372       2.291574      -0.194256              1.968207       1.212649      -0.102796
        3      C4               2.255133       4.708268      -0.948788              1.193365       2.491508      -0.502077
        4      C6              -0.589133       6.649432      -4.064068             -0.311756       3.518728      -2.150612
        5      C19             -1.137519      -3.133279       0.354405             -0.601949      -1.658060       0.187543
        6      N2               2.316475      -0.080918       0.009012              1.225826      -0.042820       0.004769
        7      N5               1.075993       4.620057      -3.260103              0.569391       2.444829      -1.725172
        8      O7              -1.777475       1.376904       0.123671             -0.940599       0.728626       0.065444
        9      O8               2.428959       6.625663       0.344076              1.285350       3.506150       0.182077
       10      H9              -2.683054      -3.451027      -1.019685             -1.419811      -1.826205      -0.539594
       11      H10             -1.951588      -3.424388       2.263244             -1.032736      -1.812108       1.197657
       12      H11              0.367125      -4.555317       0.040217              0.194274      -2.410570       0.021282
       13      H12              3.388844      -1.684816       0.031645              1.793299      -0.891566       0.016746
       14      H13              4.615220       2.783584       1.638665              2.442269       1.473009       0.867144
       15      H14              5.265174       2.025359      -1.593559              2.786210       1.071774      -0.843275
       16      H15              0.696502       2.860085      -3.957279              0.368573       1.513492      -2.094102
       17      H16             -2.587328       6.274817      -3.529767             -1.369155       3.320490      -1.867872
       18      H17              0.029151       8.397724      -3.100827              0.015426       4.443884      -1.640887
       19      H18             -0.474758       6.926124      -6.138241             -0.251231       3.665147      -3.248217
 
                    ************************************************* 
                    **** InterNuclear Distances / Bohr, Angstrom **** 
                    ************************************************* 
 
     Atom centers         Bohr        Angstrom
   13 H12       6 N2      1.929501        1.021048
   16 H15       7 N5      1.930692        1.021678
   18 H17       4 C6      2.089649        1.105794
   10 H9        5 C19     2.092311        1.107203
   12 H11       5 C19     2.094005        1.108100
   11 H10       5 C19     2.095500        1.108891
   19 H18       4 C6      2.095670        1.108981
   14 H13       2 C3      2.098622        1.110543
   15 H14       2 C3      2.102004        1.112333
   17 H16       4 C6      2.102046        1.112355
    9 O8        3 C4      2.319077        1.227203
    8 O7        1 C1      2.322990        1.229273
    7 N5        3 C4      2.596214        1.373857
    6 N2        1 C1      2.604006        1.377981
    7 N5        4 C6      2.745427        1.452817
    6 N2        2 C3      2.763722        1.462499
    5 C19       1 C1      2.889109        1.528851
    3 C4        2 C3      2.924674        1.547671
   11 H10      10 H9      3.363536        1.779906
   15 H14      14 H13     3.382989        1.790201
   18 H17      17 H16     3.396570        1.797387
   12 H11      11 H10     3.405478        1.802101
   19 H18      18 H17     3.412537        1.805837
   12 H11      10 H9      3.412688        1.805917
   19 H18      17 H16     3.419253        1.809391
   16 H15       3 C4      3.859550        2.042386
   13 H12       1 C1      3.880021        2.053219
   18 H17       7 N5      3.923265        2.076103
   15 H14       6 N2      3.962254        2.096735
   14 H13       3 C4      3.996164        2.114679
   13 H12       2 C3      3.996493        2.114853
   19 H18       7 N5      4.000806        2.117135
   16 H15       4 C6      4.002925        2.118257
   14 H13       6 N2      4.018129        2.126302
   17 H16       7 N5      4.028755        2.131925
   10 H9        1 C1      4.069535        2.153505
   11 H10       1 C1      4.073179        2.155433
   15 H14       3 C4      4.083390        2.160837
   13 H12      12 H11     4.167810        2.205510
   12 H11       1 C1      4.216902        2.231488
    9 O8        7 N5      4.340861        2.297085
    8 O7        6 N2      4.347277        2.300480
   15 H14      13 H12     4.464000        2.362247
    9 O8        2 C3      4.554041        2.409895
   18 H17       9 O8      4.557042        2.411483
    8 O7        5 C19     4.561198        2.413682
   14 H13       9 O8      4.606221        2.437507
    6 N2        5 C19     4.622367        2.446052
    4 C6        3 C4      4.643591        2.457283
    7 N5        2 C3      4.669978        2.471246
   17 H16      16 H15     4.756753        2.517165
   19 H18      16 H15     4.760369        2.519079
   13 H12       5 C19     4.763421        2.520694
    2 C3        1 C1      4.813661        2.547280
   18 H17       3 C4      4.816467        2.548765
   16 H15       2 C3      4.860174        2.571893
   12 H11       6 N2      4.880696        2.582753
    6 N2        3 C4      4.884408        2.584718
   14 H13      13 H12     4.904396        2.595295
   16 H15       8 O7      4.997454        2.644539
   10 H9        8 O7      5.043437        2.668872
   16 H15       6 N2      5.196661        2.749954
   15 H14       7 N5      5.201832        2.752691
   16 H15      15 H14     5.211209        2.757653
   11 H10       8 O7      5.259324        2.783114
   16 H15       1 C1      5.312630        2.811323
    8 O7        3 C4      5.339483        2.825533
    9 O8        4 C6      5.342394        2.827073
    8 O7        7 N5      5.487281        2.903744
    8 O7        2 C3      5.581489        2.953597
   18 H17      16 H15     5.643076        2.986187
--
 
 
            Nuclear Potential Energy            465.39307503 au
 
 
      Basis set specifications :
      Symmetry species         a  
      Basis functions          212
 
 
      Input file to MOLDEN was generated!
 
--- Stop Module: seward at Tue Jun 10 21:53:24 2025 /rc=_RC_ALL_IS_WELL_ ---
*** files: orca_geometry_optimisation_345_300_BP86_def2-SVP_def2J_scf_cas1_ras12i11_cas8.GssOrb
           orca_geometry_optimisation_345_300_BP86_def2-SVP_def2J_scf_cas1_ras12i11_cas8.guessorb.molden xmldump
    saved to directory /home/pcaah4/diamide_project
--- Module seward spent 1 minute 50 seconds ---

*** symbolic link created: INPORB -> orca_geometry_optimisation_345_300_BP86_def2-SVP_def2J_scf_cas1_ras12i11_cas8.GssOrb
--- Start Module: rasscf at Tue Jun 10 21:53:24 2025 ---
 
()()()()()()()()()()()()()()()()()()()()()()()()()()()()()()()()()()()()()()()()()()()()()()()()()()

                                              &RASSCF

                                   only a single process is used
                       available to each process: 2.0 GB of memory, 1 thread
                                            pid: 3141595
()()()()()()()()()()()()()()()()()()()()()()()()()()()()()()()()()()()()()()()()()()()()()()()()()()
 
 
      Header of the ONEINT file:
      --------------------------
      orca_geometry_optimisation_345_300_BP86_def2-SVP_def2J_scf_cas1_ras12i11
      Integrals generated by Gateway/Seward, Tue Jun 10 21:51:33 2025
 
 
      OrdInt status: non-squared
 
 
      Cartesian coordinates in Angstrom:
      -----------------------------------------------------
      No.  Label        X            Y            Z        
      -----------------------------------------------------
       1   C1        -0.14094100  -0.20498000   0.07172000
       2   C3         1.96820700   1.21264900  -0.10279600
       3   C4         1.19336500   2.49150800  -0.50207700
       4   C6        -0.31175600   3.51872800  -2.15061200
       5   C19       -0.60194900  -1.65806000   0.18754300
       6   N2         1.22582600  -0.04282000   0.00476900
       7   N5         0.56939100   2.44482900  -1.72517200
       8   O7        -0.94059900   0.72862600   0.06544400
       9   O8         1.28535000   3.50615000   0.18207700
      10   H9        -1.41981100  -1.82620500  -0.53959400
      11   H10       -1.03273600  -1.81210800   1.19765700
      12   H11        0.19427400  -2.41057000   0.02128200
      13   H12        1.79329900  -0.89156600   0.01674600
      14   H13        2.44226900   1.47300900   0.86714400
      15   H14        2.78621000   1.07177400  -0.84327500
      16   H15        0.36857300   1.51349200  -2.09410200
      17   H16       -1.36915500   3.32049000  -1.86787200
      18   H17        0.01542600   4.44388400  -1.64088700
      19   H18       -0.25123100   3.66514700  -3.24821700
      -----------------------------------------------------
      Nuclear repulsion energy =  465.39307503
 
++    Wave function specifications:
      -----------------------------
 
      Number of closed shell electrons          58
      Number of electrons in active shells      12
      Max number of holes in RAS1 space          0
      Max nr of electrons in RAS3 space          0
      Number of inactive orbitals               29
      Number of active orbitals                  8
      Number of secondary orbitals             172
      Spin quantum number                      0.0
      State symmetry                             1
--
 
++    Orbital specifications:
      -----------------------
 
      Symmetry species                           1
                                                 a
      Frozen orbitals                            0
      Inactive orbitals                         29
      Active orbitals                            8
      RAS1 orbitals                              0
      RAS2 orbitals                              8
      RAS3 orbitals                              0
      Secondary orbitals                       172
      Deleted orbitals                           3
      Number of basis functions                212
--
 
++    CI expansion specifications:
      ----------------------------
 
      Number of CSFs                           336
      Number of determinants                   406
      Number of root(s) required                 7
      Root chosen for geometry opt.              7
      CI roots used                              1     2     3     4     5     6     7
      weights                                0.143 0.143 0.143 0.143 0.143 0.143 0.143
      highest root included in the CI            7
      max. size of the explicit Hamiltonian    200
--
 
++    Optimization specifications:
      ----------------------------
 
      RASSCF algorithm: Conventional
      Maximum number of macro iterations        64
      Maximum number of SX iterations           25
      Threshold for RASSCF energy            0.100E-07
      Threshold for max MO rotation          0.100E+00
      Threshold for max BLB element          0.100E-03
      Level shift parameter                  0.300E+00
      Make Quasi-Newton update
--
 
      The MO-coefficients are taken from the file:
      /home/pcaah4/diamide_project/cas/ras12i11/ras_orb/orca_geometry_optimisation_345_300_BP86_def2-SVP_def2J_scf_cas1_ras12i11.RasOrb                                                                                                                               
      Title: RASSCF average (pseudo-natural) orbitals                                      
 
      Total molecular charge    0.00
 
      ************************************************************************************************************************
      *                                                                                                                      *
      *                                            Wave function control section                                             *
      *                                                                                                                      *
      ************************************************************************************************************************
 
 
                                         RASSCF iterations: Energy and convergence statistics
                                         ----------------------------------------------------
 
      Iter CI   SX   CI       RASSCF       Energy    max ROT     max BLB   max BLB  Level Ln srch  Step   QN   Walltime
          iter iter root      energy       change     param      element    value   shift minimum  type update hh:mm:ss
 Nr of preliminary CI iterations:   6
        1   1   25    0  -453.68146653    0.00E+00   0.92E-01   37  38 1  0.19E-01*  0.18   0.00    SX    NO    0:00:13
        2   7   27    0  -453.69666855   -0.15E-01* -0.57E-01   37  38 1  0.10E-01*  0.16   0.00    SX    NO    0:00:07
        3   3   11    0  -453.69924436   -0.26E-02* -0.31E-01   37  38 1  0.58E-02*  0.16   0.00    SX    NO    0:00:06
        4   5   11    0  -453.70021622   -0.97E-03* -0.18E-01   37  38 1  0.32E-02*  0.17   0.00    SX    NO    0:00:06
        5   5   10    0  -453.70051125   -0.30E-03* -0.30E-01   35  38 1  0.20E-02*  0.17   1.72    QN   YES    0:00:06
        6   7   10    0  -453.70073150   -0.22E-03*  0.23E-02   25  99 1 -0.53E-03*  0.17   0.93    QN   YES    0:00:06
        7   4    9    0  -453.70072950    0.20E-05* -0.60E-03   25  99 1  0.65E-03*  0.17   0.37    SX   YES    0:00:06
        8   8    9    0  -453.70074064   -0.11E-04* -0.13E-02   33  39 1 -0.12E-03*  0.17   1.20    QN   YES    0:00:06
        9   3    8    0  -453.70074350   -0.29E-05* -0.21E-02   22  68 1  0.15E-03*  0.17   1.32    QN   YES    0:00:06
       10   9    8    0  -453.70074463   -0.11E-05* -0.90E-03   35  38 1 -0.12E-03*  0.17   0.68    QN   YES    0:00:06
       11   7    8    0  -453.70074509   -0.46E-06* -0.23E-03   22  68 1  0.94E-04   0.17   0.66    QN   YES    0:00:06
       12   5    7    0  -453.70074524   -0.15E-06* -0.35E-03   33  39 1  0.24E-04   0.17   2.50    LS   YES    0:00:06
       13   6    7    0  -453.70074524    0.24E-08  -0.18E-03   19  68 1 -0.47E-04   0.17   0.60    QN   YES    0:00:06
      Convergence after 13 iterations
       14   4    7    0  -453.70074529   -0.51E-07* -0.18E-03   25  99 1  0.15E-04   0.17   0.60    QN   YES    0:00:06
 
      ************************************************************************************************************************
                                                      Wave function printout:
                       occupation of active orbitals, and spin coupling of open shells (u,d: Spin up or down)
      ************************************************************************************************************************
 
      Note: transformation to natural orbitals
      has been made, which may change the order of the CSFs.
 
      printout of CI-coefficients larger than  0.05 for root  1
      energy=    -453.951612
      conf/sym  11111111     Coeff  Weight
             1  22222200  -0.94879 0.90020
             7  22222u0d  -0.09723 0.00945
             8  2222u20d  -0.14564 0.02121
            15  22222002   0.09317 0.00868
            64  2u22220d  -0.07563 0.00572
            73  2u222d02   0.07802 0.00609
            81  u22222d0   0.11757 0.01382
           141  22022220   0.08303 0.00689
           161  u2d22220  -0.05188 0.00269
           175  20222202   0.09516 0.00906
           191  02222220   0.07654 0.00586
 
      printout of CI-coefficients larger than  0.05 for root  2
      energy=    -453.745334
      conf/sym  11111111     Coeff  Weight
             7  22222u0d   0.09484 0.00899
            24  222u220d  -0.94475 0.89256
            33  222u2d02   0.14121 0.01994
            34  222ud202  -0.07783 0.00606
           125  2u2d2202   0.17586 0.03093
           132  u22d22ud   0.06152 0.00379
           201  22uu22dd   0.05031 0.00253
           213  u22u22dd  -0.10378 0.01077
           249  220u222d  -0.08426 0.00710
           257  u2du222d   0.05378 0.00289
           269  022u222d  -0.07656 0.00586
 
      printout of CI-coefficients larger than  0.05 for root  3
      energy=    -453.738977
      conf/sym  11111111     Coeff  Weight
             3  2222u2d0   0.90447 0.81806
             6  22220220   0.07115 0.00506
            10  2222udud   0.05185 0.00269
            11  222202ud   0.12085 0.01461
            12  2222uudd  -0.07519 0.00565
            18  2222u0d2   0.08936 0.00799
            41  22u222d0   0.27327 0.07467
            43  22u2d220  -0.13164 0.01733
            68  2u22u2dd   0.07914 0.00626
            77  2u22udd2  -0.06305 0.00398
            83  u222d220   0.11312 0.01280
           141  22022220  -0.06929 0.00480
           177  2022u2d2  -0.08951 0.00801
 
      printout of CI-coefficients larger than  0.05 for root  4
      energy=    -453.629738
      conf/sym  11111111     Coeff  Weight
             1  22222200  -0.07751 0.00601
             2  22222ud0  -0.22045 0.04860
             3  2222u2d0  -0.26094 0.06809
             7  22222u0d   0.08167 0.00667
             8  2222u20d   0.08522 0.00726
            41  22u222d0   0.86005 0.73968
            47  22u22udd  -0.07891 0.00623
            48  22u2u2dd  -0.08449 0.00714
            55  22u220d2   0.08724 0.00761
            81  u22222d0   0.09377 0.00879
            83  u222d220  -0.06204 0.00385
           161  u2d22220   0.21004 0.04412
           219  2uu222dd   0.06934 0.00481
           222  2uu22dd2  -0.06172 0.00381
           294  20u222d2  -0.08519 0.00726
 
      printout of CI-coefficients larger than  0.05 for root  5
      energy=    -453.623364
      conf/sym  11111111     Coeff  Weight
             1  22222200   0.06085 0.00370
             7  22222u0d  -0.89503 0.80108
             8  2222u20d   0.16999 0.02890
            15  22222002  -0.18355 0.03369
            24  222u220d  -0.08759 0.00767
            41  22u222d0   0.07847 0.00616
            64  2u22220d   0.12188 0.01485
            73  2u222d02   0.21559 0.04648
            85  u2222dud   0.06171 0.00381
            87  u2222udd  -0.10162 0.01033
           143  22022u2d  -0.08053 0.00649
           175  20222202   0.10450 0.01092
           193  02222u2d  -0.07073 0.00500
 
      printout of CI-coefficients larger than  0.05 for root  6
      energy=    -453.613388
      conf/sym  11111111     Coeff  Weight
             2  22222ud0  -0.79241 0.62792
             3  2222u2d0   0.05531 0.00306
            10  2222udud   0.18773 0.03524
            12  2222uudd   0.05706 0.00326
            21  222u22d0   0.42880 0.18387
            25  222u2dud  -0.08295 0.00688
            26  222ud2ud  -0.10164 0.01033
            27  222u2udd   0.11691 0.01367
            28  222uu2dd   0.12142 0.01474
            41  22u222d0  -0.18231 0.03324
            65  2u222dud   0.10475 0.01097
            66  2u22d2ud   0.06398 0.00409
            67  2u222udd  -0.12887 0.01661
            82  u2222d20  -0.05170 0.00267
           176  20222ud2   0.09566 0.00915
 
      printout of CI-coefficients larger than  0.05 for root  7
      energy=    -453.602804
      conf/sym  11111111     Coeff  Weight
             2  22222ud0  -0.44124 0.19469
            10  2222udud   0.10824 0.01172
            21  222u22d0  -0.76363 0.58313
            25  222u2dud   0.13799 0.01904
            26  222ud2ud   0.20073 0.04029
            27  222u2udd  -0.20192 0.04077
            28  222uu2dd  -0.22106 0.04887
            38  222u02d2  -0.06245 0.00390
            41  22u222d0  -0.09856 0.00971
            65  2u222dud   0.06526 0.00426
            67  2u222udd  -0.07729 0.00597
           114  22udu22d   0.06579 0.00433
           131  u22d2220  -0.05666 0.00321
           176  20222ud2   0.05460 0.00298
           262  202u22d2   0.06172 0.00381
 
      Natural orbitals and occupation numbers for root  1
      sym 1:   1.948062   1.961928   1.995321   1.999785   1.999334   1.996606   0.042894   0.056071
 
      Natural orbitals and occupation numbers for root  2
      sym 1:   1.999926   1.960544   1.995542   1.008869   1.999545   1.999553   0.044106   0.991916
 
      Natural orbitals and occupation numbers for root  3
      sym 1:   1.999949   1.995799   1.999739   1.999750   1.005819   1.945590   0.995061   0.058293
 
      Natural orbitals and occupation numbers for root  4
      sym 1:   1.982080   1.978702   1.031316   1.999731   1.996010   1.940022   0.991794   0.080344
 
      Natural orbitals and occupation numbers for root  5
      sym 1:   1.959021   1.951905   1.990807   1.997784   1.997519   0.833726   0.052076   1.217163
 
      Natural orbitals and occupation numbers for root  6
      sym 1:   1.998449   1.964112   1.990999   1.978188   1.911925   1.039412   0.996475   0.120440
 
      Natural orbitals and occupation numbers for root  7
      sym 1:   1.998928   1.979847   1.991205   1.031104   1.939058   1.945907   1.005378   0.108572
 
      ************************************************************************************************************************
      *                                                                                                                      *
      *                                                    Final results                                                     *
      *                                                                                                                      *
      ************************************************************************************************************************
 
 
++    Wave function specifications:
      -----------------------------
 
      Number of closed shell electrons          58
      Number of electrons in active shells      12
      Max number of holes in RAS1 space          0
      Max nr of electrons in RAS3 space          0
      Number of inactive orbitals               29
      Number of active orbitals                  8
      Number of secondary orbitals             172
      Spin quantum number                      0.0
      State symmetry                             1
--
 
++    Orbital specifications:
      -----------------------
 
      Symmetry species                           1
                                                 a
      Frozen orbitals                            0
      Inactive orbitals                         29
      Active orbitals                            8
      RAS1 orbitals                              0
      RAS2 orbitals                              8
      RAS3 orbitals                              0
      Secondary orbitals                       172
      Deleted orbitals                           3
      Number of basis functions                212
--
 
++    CI expansion specifications:
      ----------------------------
 
      Number of CSFs                           336
      Number of determinants                   406
      Number of root(s) required                 7
      CI roots used                              1     2     3     4     5     6     7
      weights                                0.143 0.143 0.143 0.143 0.143 0.143 0.143
      highest root included in the CI            7
      Root passed to geometry opt.               7
--
 
++    Final optimization conditions:
      ------------------------------
 
      Average CI energy                            -453.70074529
      RASSCF energy for state  7                   -453.60280350
      Super-CI energy                                -0.00000008
      RASSCF energy change                            0.00000000
      Max change in MO coefficients              -0.153E-03
      Max non-diagonal density matrix element    -0.182E-03
      Maximum BLB matrix element                  0.148E-04
      (orbital pair  25,  99 in symmetry   1)
      Norm of electronic gradient            0.304E+00
--
 
 
      Final state energy(ies):
      ------------------------
 
::    RASSCF root number  1 Total energy:   -453.95161194
::    RASSCF root number  2 Total energy:   -453.74533402
::    RASSCF root number  3 Total energy:   -453.73897732
::    RASSCF root number  4 Total energy:   -453.62973797
::    RASSCF root number  5 Total energy:   -453.62336398
::    RASSCF root number  6 Total energy:   -453.61338832
::    RASSCF root number  7 Total energy:   -453.60280350
 
++    Molecular orbitals:
      -------------------
 
      Pseudonatural active orbitals and approximate occupation numbers
 
 
 
 
      Molecular orbitals for symmetry species 1: a  
 
 
      Orbital                 1         2         3         4         5         6         7         8         9        10
      Energy           -20.5944  -20.5237  -15.6257  -15.5892  -11.3373  -11.2955  -11.2806  -11.2778  -11.2263   -1.4200
      Occ. No.           2.0000    2.0000    2.0000    2.0000    2.0000    2.0000    2.0000    2.0000    2.0000    2.0000
 
     1 C1     1s        -0.0000    0.0003   -0.0000    0.0002   -0.0001   -0.0008    0.0000    0.9999   -0.0058   -0.0017
     2 C1     2s        -0.0000    0.0008   -0.0003    0.0009   -0.0007   -0.0013   -0.0002    0.0022   -0.0003    0.0266
     3 C1     3s        -0.0001   -0.0006   -0.0003    0.0004   -0.0005   -0.0010   -0.0002   -0.0002   -0.0006    0.0066
     4 C1     4s        -0.0001   -0.0004   -0.0001    0.0001   -0.0001   -0.0003   -0.0001    0.0014   -0.0002    0.0033
     5 C1     2px       -0.0002   -0.0012    0.0002    0.0017    0.0000   -0.0004    0.0002    0.0016   -0.0002   -0.0008
     6 C1     3px       -0.0002   -0.0006    0.0001    0.0013   -0.0001   -0.0006    0.0002    0.0014    0.0002    0.0043
     7 C1     4px       -0.0000    0.0002   -0.0001   -0.0001   -0.0001   -0.0002    0.0000    0.0004    0.0002    0.0027
     8 C1     2py       -0.0000    0.0028    0.0000    0.0004   -0.0005    0.0002   -0.0003    0.0011   -0.0007    0.0179
     9 C1     3py       -0.0002    0.0019    0.0000    0.0003   -0.0005   -0.0001   -0.0004    0.0011    0.0001    0.0165
    10 C1     4py       -0.0002   -0.0004   -0.0000   -0.0001   -0.0001   -0.0003   -0.0001    0.0007    0.0003    0.0063
    11 C1     2pz        0.0001   -0.0001    0.0002   -0.0002    0.0002   -0.0001   -0.0001   -0.0001    0.0000   -0.0011
    12 C1     3pz        0.0001   -0.0001    0.0003   -0.0002    0.0002   -0.0001   -0.0001   -0.0004   -0.0001   -0.0030
    13 C1     4pz        0.0000   -0.0000    0.0001    0.0000    0.0000   -0.0000    0.0000   -0.0001   -0.0000   -0.0015
    14 C1     3d2-      -0.0000    0.0002    0.0000    0.0001    0.0000   -0.0000    0.0000   -0.0004    0.0001   -0.0016
    15 C1     3d1-      -0.0000   -0.0000    0.0000   -0.0000    0.0000   -0.0000   -0.0000   -0.0000    0.0000    0.0002
    16 C1     3d0       -0.0000   -0.0000    0.0000    0.0001   -0.0000   -0.0000   -0.0000   -0.0003    0.0001   -0.0016
    17 C1     3d1+      -0.0000   -0.0000    0.0000    0.0000    0.0000    0.0000    0.0000   -0.0000    0.0000   -0.0000
    18 C1     3d2+      -0.0000    0.0000    0.0000   -0.0002    0.0000    0.0000   -0.0000    0.0001   -0.0001    0.0004
    19 C3     1s         0.0001    0.0000   -0.0000    0.0005    0.0066    0.9995   -0.0001    0.0005    0.0000   -0.0114
    20 C3     2s         0.0004    0.0000    0.0000    0.0025   -0.0003   -0.0012    0.0002   -0.0005    0.0002    0.0165
    21 C3     3s         0.0003   -0.0000    0.0001    0.0013   -0.0004   -0.0025    0.0001   -0.0005    0.0001   -0.0304
    22 C3     4s         0.0000   -0.0000    0.0000    0.0002   -0.0000    0.0007   -0.0000   -0.0002   -0.0000   -0.0039
    23 C3     2px       -0.0002   -0.0001   -0.0001   -0.0005    0.0001    0.0002   -0.0001    0.0007    0.0001   -0.0032
    24 C3     3px       -0.0000   -0.0000   -0.0001   -0.0000    0.0003    0.0002   -0.0001    0.0009    0.0002    0.0094
    25 C3     4px        0.0001    0.0001    0.0001    0.0003   -0.0000   -0.0007    0.0000    0.0002    0.0001   -0.0039
    26 C3     2py       -0.0010    0.0001    0.0005   -0.0003    0.0004   -0.0004    0.0001    0.0005   -0.0001    0.0200
    27 C3     3py       -0.0011    0.0003    0.0005    0.0004   -0.0001   -0.0003   -0.0001    0.0007    0.0000   -0.0068
    28 C3     4py       -0.0001    0.0001    0.0000    0.0003   -0.0002   -0.0004   -0.0001    0.0001    0.0001    0.0024
    29 C3     2pz       -0.0007   -0.0000    0.0006   -0.0005    0.0003   -0.0002   -0.0003   -0.0002   -0.0001    0.0125
    30 C3     3pz       -0.0006   -0.0000    0.0005   -0.0006    0.0005   -0.0001   -0.0003   -0.0002   -0.0001    0.0104
    31 C3     4pz        0.0000   -0.0000   -0.0000   -0.0000    0.0001   -0.0001   -0.0000   -0.0001   -0.0000   -0.0038
    32 C3     3d2-      -0.0000    0.0000    0.0000   -0.0000   -0.0000   -0.0000   -0.0001    0.0000    0.0000   -0.0018
    33 C3     3d1-      -0.0000    0.0000    0.0000    0.0000   -0.0000    0.0001   -0.0000    0.0000   -0.0000   -0.0001
    34 C3     3d0        0.0000   -0.0000    0.0000    0.0000   -0.0000    0.0001   -0.0000   -0.0000   -0.0000   -0.0036
    35 C3     3d1+       0.0001   -0.0000    0.0001   -0.0000   -0.0001   -0.0001    0.0000   -0.0000   -0.0000   -0.0027
    36 C3     3d2+       0.0001   -0.0000   -0.0001    0.0001    0.0000    0.0000   -0.0000    0.0001   -0.0000   -0.0041
    37 C4     1s         0.0004    0.0000    0.0003   -0.0001    1.0000   -0.0066    0.0002   -0.0000    0.0000   -0.0414
    38 C4     2s         0.0016    0.0003    0.0015   -0.0006    0.0026    0.0008    0.0000   -0.0002    0.0001    0.3374
    39 C4     3s         0.0000    0.0002    0.0008   -0.0004    0.0002    0.0003   -0.0000   -0.0002    0.0000   -0.0202
    40 C4     4s        -0.0003    0.0001    0.0002   -0.0001    0.0013    0.0000   -0.0001   -0.0001    0.0000   -0.0008
    41 C4     2px        0.0003   -0.0005   -0.0012   -0.0004   -0.0005    0.0007   -0.0001   -0.0007   -0.0002    0.0141
    42 C4     3px        0.0002   -0.0007   -0.0010   -0.0005   -0.0009    0.0006    0.0002   -0.0009   -0.0003    0.0112
    43 C4     4px       -0.0000   -0.0002    0.0000   -0.0001   -0.0003    0.0001    0.0002   -0.0002   -0.0001    0.0042
    44 C4     2py        0.0026   -0.0003   -0.0002    0.0004    0.0007   -0.0009    0.0001    0.0000    0.0000    0.1084
    45 C4     3py        0.0019   -0.0003   -0.0003    0.0004    0.0002   -0.0002   -0.0004    0.0002    0.0001   -0.0546
    46 C4     4py       -0.0002    0.0000   -0.0001    0.0000    0.0005    0.0003   -0.0004    0.0001    0.0001    0.0240
    47 C4     2pz        0.0017   -0.0005   -0.0017   -0.0007   -0.0008    0.0003   -0.0000   -0.0007   -0.0000    0.0494
    48 C4     3pz        0.0013   -0.0005   -0.0013   -0.0006   -0.0007    0.0002    0.0002   -0.0007   -0.0000   -0.0261
    49 C4     4pz       -0.0001    0.0000    0.0001    0.0000   -0.0003   -0.0000    0.0002   -0.0001   -0.0000    0.0139
    50 C4     3d2-      -0.0001   -0.0000   -0.0001    0.0000    0.0001    0.0000   -0.0000   -0.0000   -0.0000    0.0035
    51 C4     3d1-      -0.0002   -0.0000   -0.0001   -0.0000    0.0005   -0.0001    0.0000   -0.0000   -0.0000    0.0355
    52 C4     3d0        0.0000    0.0000   -0.0002   -0.0000    0.0001   -0.0000    0.0001    0.0000   -0.0000    0.0021
    53 C4     3d1+       0.0001    0.0001   -0.0001    0.0001    0.0003   -0.0001    0.0001    0.0000    0.0000    0.0095
    54 C4     3d2+       0.0000    0.0000    0.0000    0.0001   -0.0003   -0.0000   -0.0000    0.0000   -0.0000   -0.0259
    55 C6     1s         0.0001   -0.0000    0.0003   -0.0002   -0.0002    0.0001    0.9996   -0.0001   -0.0000   -0.0060
    56 C6     2s         0.0006   -0.0002    0.0013   -0.0012   -0.0000    0.0003   -0.0004   -0.0006   -0.0002    0.0342
    57 C6     3s         0.0004   -0.0001    0.0003   -0.0009   -0.0002    0.0002   -0.0019   -0.0005   -0.0001   -0.0023
    58 C6     4s         0.0001   -0.0000   -0.0001   -0.0002   -0.0002    0.0000    0.0009   -0.0002   -0.0000    0.0015
    59 C6     2px        0.0004    0.0001    0.0003   -0.0002   -0.0002    0.0002    0.0002   -0.0001   -0.0000    0.0051
    60 C6     3px        0.0003    0.0001   -0.0000   -0.0002   -0.0003    0.0001   -0.0000   -0.0001   -0.0000   -0.0092
    61 C6     4px       -0.0001   -0.0000   -0.0001    0.0000   -0.0001   -0.0001    0.0005   -0.0000   -0.0000    0.0022
    62 C6     2py        0.0000   -0.0000   -0.0004    0.0002    0.0001   -0.0001   -0.0000    0.0001   -0.0000   -0.0167
    63 C6     3py        0.0000   -0.0000    0.0001    0.0002    0.0000   -0.0000    0.0002    0.0001   -0.0000   -0.0010
    64 C6     4py       -0.0000   -0.0000    0.0002   -0.0001   -0.0000    0.0000   -0.0006   -0.0000   -0.0000   -0.0005
    65 C6     2pz       -0.0001   -0.0001    0.0001   -0.0001   -0.0002    0.0001   -0.0002   -0.0001   -0.0001    0.0217
    66 C6     3pz       -0.0002   -0.0001   -0.0002   -0.0001   -0.0004    0.0001   -0.0000   -0.0001   -0.0001    0.0088
    67 C6     4pz       -0.0000    0.0000   -0.0001   -0.0000   -0.0001   -0.0000    0.0003   -0.0000   -0.0000    0.0005
    68 C6     3d2-      -0.0000   -0.0000    0.0001    0.0000   -0.0000   -0.0000    0.0001    0.0000   -0.0000   -0.0029
    69 C6     3d1-      -0.0000    0.0000   -0.0001    0.0000   -0.0000   -0.0000    0.0000    0.0000   -0.0000   -0.0023
    70 C6     3d0       -0.0000    0.0000    0.0001    0.0000    0.0000   -0.0000    0.0001    0.0000   -0.0000   -0.0020
    71 C6     3d1+       0.0000    0.0000   -0.0000    0.0000    0.0001    0.0000   -0.0000    0.0000    0.0000    0.0019
    72 C6     3d2+      -0.0000   -0.0000    0.0000    0.0000    0.0000   -0.0000    0.0000    0.0000    0.0000   -0.0004
    73 C19    1s        -0.0000    0.0002    0.0000    0.0000   -0.0000    0.0002   -0.0000    0.0058    1.0000   -0.0002
    74 C19    2s        -0.0003    0.0011    0.0001    0.0002   -0.0000    0.0009   -0.0003    0.0007    0.0020    0.0053
    75 C19    3s        -0.0004    0.0007    0.0000    0.0002   -0.0000    0.0006   -0.0002    0.0003   -0.0004    0.0054
    76 C19    4s        -0.0002    0.0001    0.0000    0.0000   -0.0000    0.0001   -0.0001    0.0001    0.0012    0.0030
    77 C19    2px        0.0000    0.0007    0.0002   -0.0003    0.0001    0.0003   -0.0000   -0.0001   -0.0001   -0.0027
    78 C19    3px        0.0000    0.0005    0.0002   -0.0002    0.0001    0.0003   -0.0000   -0.0003   -0.0000   -0.0026
    79 C19    4px       -0.0000   -0.0002   -0.0000   -0.0000   -0.0000   -0.0000   -0.0000   -0.0001    0.0001    0.0005
    80 C19    2py       -0.0002    0.0001    0.0000    0.0004   -0.0000    0.0002   -0.0001    0.0004   -0.0005    0.0062
    81 C19    3py       -0.0002   -0.0001    0.0000    0.0004   -0.0000    0.0001   -0.0000   -0.0001   -0.0001    0.0051
    82 C19    4py       -0.0000   -0.0001   -0.0000   -0.0001    0.0000   -0.0001    0.0000   -0.0001    0.0003    0.0005
    83 C19    2pz       -0.0001   -0.0001   -0.0001    0.0001   -0.0001    0.0001    0.0000    0.0002    0.0000    0.0019
    84 C19    3pz       -0.0001   -0.0001   -0.0002    0.0001   -0.0001    0.0001    0.0000    0.0002    0.0000    0.0022
    85 C19    4pz       -0.0000    0.0000   -0.0000    0.0000   -0.0000    0.0000   -0.0000    0.0000   -0.0000    0.0001
    86 C19    3d2-      -0.0000    0.0001   -0.0000   -0.0000   -0.0000    0.0000   -0.0000   -0.0000   -0.0001    0.0002
    87 C19    3d1-      -0.0000   -0.0000   -0.0000   -0.0000   -0.0000   -0.0000    0.0000   -0.0000    0.0000   -0.0000
    88 C19    3d0       -0.0000   -0.0001   -0.0000   -0.0001   -0.0000   -0.0000   -0.0000    0.0001    0.0001    0.0004
    89 C19    3d1+      -0.0000   -0.0000   -0.0000   -0.0000   -0.0000   -0.0000    0.0000    0.0000    0.0000    0.0001
    90 C19    3d2+      -0.0000    0.0001   -0.0000   -0.0000   -0.0000   -0.0000   -0.0000   -0.0001    0.0001   -0.0001
    91 N2     1s        -0.0000    0.0000   -0.0000    0.9998    0.0001    0.0002   -0.0000   -0.0003    0.0001   -0.0011
    92 N2     2s         0.0000    0.0003   -0.0002   -0.0002    0.0004    0.0019   -0.0001   -0.0004    0.0004    0.0305
    93 N2     3s         0.0000    0.0002   -0.0001   -0.0015    0.0003    0.0011   -0.0001   -0.0005    0.0003   -0.0003
    94 N2     4s         0.0000    0.0000   -0.0000    0.0005    0.0001    0.0004   -0.0000    0.0000    0.0000   -0.0006
    95 N2     2px       -0.0004    0.0005    0.0003    0.0004    0.0001    0.0001   -0.0000   -0.0001   -0.0003   -0.0015
    96 N2     3px       -0.0007    0.0005    0.0003    0.0002    0.0001   -0.0001   -0.0001    0.0001   -0.0002    0.0002
    97 N2     4px       -0.0001    0.0000   -0.0000   -0.0001   -0.0000    0.0000   -0.0000   -0.0002    0.0001    0.0003
    98 N2     2py       -0.0001   -0.0014   -0.0002   -0.0005    0.0004    0.0010    0.0001    0.0007   -0.0002    0.0064
    99 N2     3py       -0.0002   -0.0017   -0.0002    0.0003    0.0004    0.0010    0.0002    0.0007   -0.0001   -0.0027
   100 N2     4py       -0.0000    0.0000    0.0000    0.0006   -0.0000    0.0001    0.0000   -0.0001    0.0001   -0.0009
   101 N2     2pz        0.0002    0.0001   -0.0001    0.0001   -0.0001   -0.0000    0.0000    0.0002    0.0000   -0.0034
   102 N2     3pz        0.0002    0.0001   -0.0002    0.0001   -0.0002    0.0000    0.0000    0.0000    0.0000   -0.0030
   103 N2     4pz        0.0000   -0.0000   -0.0000   -0.0001   -0.0000    0.0000   -0.0000   -0.0000   -0.0000    0.0005
   104 N2     3d2-      -0.0000    0.0001    0.0000   -0.0002    0.0000   -0.0000    0.0000   -0.0001   -0.0000    0.0003
   105 N2     3d1-       0.0000   -0.0000    0.0000    0.0000   -0.0000    0.0000    0.0000    0.0000   -0.0000   -0.0007
   106 N2     3d0       -0.0000   -0.0000    0.0000    0.0001   -0.0000    0.0000   -0.0000    0.0002   -0.0001   -0.0004
   107 N2     3d1+       0.0000   -0.0000   -0.0000    0.0000   -0.0000    0.0000   -0.0000    0.0000   -0.0000   -0.0005
   108 N2     3d2+      -0.0000   -0.0001   -0.0000    0.0000   -0.0000   -0.0000   -0.0000    0.0000    0.0000    0.0001
   109 N5     1s         0.0001   -0.0001    0.9998    0.0000   -0.0003    0.0000    0.0001    0.0000    0.0000   -0.0170
   110 N5     2s         0.0008   -0.0005   -0.0003    0.0000   -0.0004    0.0003    0.0016    0.0001    0.0001    0.1120
   111 N5     3s         0.0006   -0.0004   -0.0015   -0.0000   -0.0005    0.0002    0.0010    0.0000    0.0001   -0.0451
   112 N5     4s         0.0002   -0.0001    0.0004    0.0000   -0.0000    0.0000    0.0004    0.0000    0.0000   -0.0108
   113 N5     2px        0.0001   -0.0000   -0.0002   -0.0005    0.0002   -0.0000   -0.0008   -0.0001   -0.0000    0.0133
   114 N5     3px        0.0002    0.0001    0.0000   -0.0007   -0.0000   -0.0001   -0.0007   -0.0001    0.0000    0.0018
   115 N5     4px        0.0000    0.0001   -0.0003   -0.0000    0.0001   -0.0001   -0.0001    0.0000    0.0000    0.0042
   116 N5     2py       -0.0015   -0.0001   -0.0009    0.0004    0.0002   -0.0003    0.0005   -0.0000   -0.0000    0.0381
   117 N5     3py       -0.0017   -0.0001   -0.0004    0.0006   -0.0002   -0.0002    0.0004    0.0001    0.0000    0.0197
   118 N5     4py        0.0000   -0.0000    0.0002    0.0001   -0.0002    0.0001    0.0002    0.0001    0.0000   -0.0038
   119 N5     2pz       -0.0002   -0.0001   -0.0002   -0.0004    0.0002    0.0001   -0.0003   -0.0003   -0.0001    0.0243
   120 N5     3pz       -0.0002    0.0001   -0.0002   -0.0004    0.0002    0.0001    0.0001   -0.0002   -0.0001   -0.0250
   121 N5     4pz       -0.0001    0.0001    0.0006    0.0000    0.0003   -0.0000    0.0002    0.0001   -0.0000    0.0017
   122 N5     3d2-      -0.0000    0.0000    0.0001    0.0000    0.0001   -0.0000    0.0001    0.0000    0.0000    0.0010
   123 N5     3d1-      -0.0001    0.0000    0.0001    0.0000    0.0000    0.0000   -0.0000    0.0000    0.0000    0.0036
   124 N5     3d0       -0.0000   -0.0000   -0.0000   -0.0000    0.0000    0.0000   -0.0000   -0.0000   -0.0000    0.0037
   125 N5     3d1+       0.0000    0.0000   -0.0000   -0.0000   -0.0001    0.0000   -0.0001    0.0000    0.0000    0.0029
   126 N5     3d2+      -0.0000   -0.0000   -0.0001    0.0000    0.0001   -0.0000    0.0000   -0.0000   -0.0000    0.0014
   127 O7     1s        -0.0000    0.9997    0.0000    0.0000    0.0000   -0.0000    0.0000   -0.0002    0.0001   -0.0018
   128 O7     2s        -0.0001   -0.0013    0.0001    0.0002    0.0003   -0.0003    0.0001    0.0006    0.0004    0.0307
   129 O7     3s        -0.0001   -0.0013    0.0001    0.0001    0.0003   -0.0002    0.0000    0.0001    0.0003   -0.0036
   130 O7     4s        -0.0000    0.0001    0.0000    0.0000    0.0001   -0.0000    0.0000    0.0000    0.0001   -0.0008
   131 O7     2px       -0.0001    0.0001   -0.0000   -0.0003    0.0001   -0.0001   -0.0001    0.0005    0.0001    0.0083
   132 O7     3px       -0.0002   -0.0004   -0.0000   -0.0004    0.0001   -0.0000   -0.0001   -0.0000    0.0001    0.0018
   133 O7     4px       -0.0001    0.0009    0.0000   -0.0001   -0.0000    0.0000   -0.0000    0.0001   -0.0000    0.0011
   134 O7     2py        0.0000   -0.0003   -0.0002   -0.0003   -0.0002    0.0000   -0.0002   -0.0008   -0.0002    0.0027
   135 O7     3py       -0.0001    0.0002   -0.0003   -0.0003   -0.0002    0.0000   -0.0003   -0.0006   -0.0002    0.0121
   136 O7     4py       -0.0001   -0.0010   -0.0001    0.0000   -0.0001    0.0000   -0.0001   -0.0003    0.0000    0.0033
   137 O7     2pz       -0.0000    0.0000    0.0000    0.0001    0.0000    0.0000    0.0001    0.0002    0.0000   -0.0022
   138 O7     3pz       -0.0001    0.0000    0.0000    0.0001    0.0000    0.0001    0.0002    0.0001    0.0000   -0.0033
   139 O7     4pz       -0.0000   -0.0000    0.0000    0.0000   -0.0000    0.0000    0.0001   -0.0000    0.0000   -0.0009
   140 O7     3d2-       0.0000    0.0001   -0.0000    0.0000    0.0000    0.0000   -0.0000   -0.0003   -0.0000   -0.0008
   141 O7     3d1-      -0.0000   -0.0000    0.0000   -0.0000   -0.0000    0.0000    0.0000   -0.0000   -0.0000   -0.0001
   142 O7     3d0        0.0000    0.0000    0.0000   -0.0000   -0.0000   -0.0000    0.0000   -0.0001   -0.0000   -0.0006
   143 O7     3d1+      -0.0000   -0.0000   -0.0000   -0.0000   -0.0000    0.0000    0.0000    0.0000   -0.0000   -0.0001
   144 O7     3d2+      -0.0000   -0.0000    0.0000   -0.0001    0.0000   -0.0000    0.0000   -0.0000   -0.0000    0.0002
   145 O8     1s         0.9997    0.0001    0.0000    0.0000   -0.0003    0.0000   -0.0000    0.0000    0.0000   -0.0243
   146 O8     2s        -0.0015    0.0002    0.0002    0.0002    0.0002    0.0003   -0.0003    0.0003    0.0000    0.6901
   147 O8     3s        -0.0014    0.0002    0.0001    0.0001   -0.0001    0.0002   -0.0002    0.0002    0.0000   -0.0346
   148 O8     4s         0.0001    0.0000   -0.0000    0.0000   -0.0000    0.0000   -0.0001    0.0001    0.0000   -0.0136
   149 O8     2px       -0.0001    0.0001    0.0002    0.0000    0.0002   -0.0001    0.0001    0.0001    0.0000   -0.0094
   150 O8     3px       -0.0000    0.0002    0.0003    0.0001    0.0002   -0.0001    0.0001    0.0002    0.0001    0.0003
   151 O8     4px       -0.0001    0.0001    0.0001    0.0000    0.0001   -0.0000    0.0000    0.0001    0.0000   -0.0007
   152 O8     2py       -0.0003   -0.0001   -0.0001   -0.0001   -0.0004   -0.0001    0.0000   -0.0001   -0.0000   -0.1176
   153 O8     3py        0.0004   -0.0000   -0.0000   -0.0001   -0.0002   -0.0001    0.0000   -0.0001   -0.0000    0.0361
   154 O8     4py       -0.0011    0.0000    0.0001    0.0000   -0.0003    0.0000   -0.0000    0.0000   -0.0000   -0.0006
   155 O8     2pz       -0.0002   -0.0000    0.0003    0.0001   -0.0005   -0.0001    0.0001    0.0001   -0.0000   -0.0920
   156 O8     3pz        0.0003   -0.0000    0.0003    0.0001   -0.0000   -0.0001    0.0001    0.0001    0.0000    0.0259
   157 O8     4pz       -0.0008    0.0000    0.0001    0.0000   -0.0001    0.0000    0.0000    0.0001    0.0000    0.0013
   158 O8     3d2-      -0.0000    0.0000   -0.0000    0.0000    0.0001   -0.0000   -0.0000   -0.0000   -0.0000    0.0024
   159 O8     3d1-      -0.0001    0.0000   -0.0000    0.0000    0.0002    0.0000   -0.0000    0.0000    0.0000    0.0182
   160 O8     3d0        0.0000   -0.0000   -0.0000   -0.0000    0.0000   -0.0000   -0.0000    0.0000    0.0000    0.0003
   161 O8     3d1+       0.0001   -0.0000    0.0000    0.0000   -0.0000    0.0000    0.0000    0.0000    0.0000    0.0016
   162 O8     3d2+       0.0000   -0.0000   -0.0001   -0.0000   -0.0001   -0.0000   -0.0000   -0.0000   -0.0000   -0.0122
   163 H9     1s        -0.0001    0.0002    0.0001    0.0002   -0.0000   -0.0001    0.0001    0.0002    0.0003    0.0032
   164 H9     2s        -0.0001    0.0001    0.0001    0.0001   -0.0000   -0.0001    0.0000    0.0001   -0.0003    0.0023
   165 H9     2px       -0.0000    0.0000    0.0000    0.0001   -0.0000   -0.0000    0.0000    0.0001   -0.0001    0.0005
   166 H9     2py       -0.0000   -0.0001    0.0000   -0.0000    0.0000   -0.0000    0.0000    0.0000    0.0000   -0.0000
   167 H9     2pz       -0.0000    0.0000    0.0000   -0.0000    0.0000    0.0000    0.0000    0.0000   -0.0001    0.0001
   168 H10    1s         0.0001    0.0003    0.0002    0.0000   -0.0000   -0.0002    0.0000   -0.0001    0.0003    0.0015
   169 H10    2s         0.0001    0.0002    0.0001   -0.0000   -0.0000   -0.0001   -0.0000   -0.0000   -0.0003    0.0012
   170 H10    2px       -0.0000   -0.0000   -0.0000    0.0000   -0.0000   -0.0000   -0.0000    0.0000   -0.0000    0.0003
   171 H10    2py        0.0000   -0.0000   -0.0000   -0.0000   -0.0000   -0.0000   -0.0000    0.0001    0.0000    0.0001
   172 H10    2pz        0.0000   -0.0000   -0.0000   -0.0000   -0.0000    0.0000   -0.0000   -0.0000    0.0001   -0.0003
   173 H11    1s        -0.0002   -0.0003   -0.0002    0.0004   -0.0002   -0.0001   -0.0001    0.0003    0.0001    0.0090
   174 H11    2s        -0.0001   -0.0001   -0.0001    0.0003   -0.0001   -0.0001   -0.0000    0.0002   -0.0003    0.0057
   175 H11    2px        0.0000   -0.0000    0.0000   -0.0001    0.0000    0.0000    0.0000   -0.0000    0.0001   -0.0008
   176 H11    2py       -0.0000   -0.0000   -0.0000   -0.0000   -0.0000    0.0000   -0.0000    0.0001   -0.0001    0.0007
   177 H11    2pz        0.0000   -0.0000    0.0000   -0.0000   -0.0000   -0.0000   -0.0000   -0.0000   -0.0000    0.0001
   178 H12    1s        -0.0002   -0.0010   -0.0001   -0.0003    0.0002    0.0003    0.0000    0.0006   -0.0002    0.0038
   179 H12    2s        -0.0001   -0.0006   -0.0000   -0.0002    0.0001    0.0002   -0.0000    0.0003   -0.0001   -0.0010
   180 H12    2px        0.0000    0.0000    0.0000    0.0003   -0.0000    0.0000    0.0000   -0.0002    0.0000   -0.0005
   181 H12    2py       -0.0000   -0.0000    0.0000   -0.0004    0.0000    0.0001   -0.0000    0.0000   -0.0000    0.0008
   182 H12    2pz       -0.0000   -0.0000   -0.0000    0.0000   -0.0000    0.0000    0.0000    0.0000    0.0000    0.0003
   183 H13    1s         0.0005    0.0005   -0.0001   -0.0000   -0.0002    0.0009   -0.0000   -0.0001    0.0000    0.0069
   184 H13    2s         0.0003    0.0003   -0.0000    0.0001   -0.0001    0.0001   -0.0000   -0.0001    0.0000   -0.0060
   185 H13    2px        0.0000   -0.0000    0.0000   -0.0000   -0.0000   -0.0001    0.0000    0.0000   -0.0000   -0.0005
   186 H13    2py       -0.0000   -0.0000    0.0000    0.0000    0.0000   -0.0000   -0.0000    0.0000    0.0000    0.0003
   187 H13    2pz       -0.0000   -0.0000   -0.0000   -0.0001   -0.0000   -0.0001    0.0000    0.0000    0.0000   -0.0004
   188 H14    1s         0.0000    0.0003    0.0005   -0.0009    0.0002    0.0006   -0.0002   -0.0004   -0.0001    0.0159
   189 H14    2s        -0.0000    0.0002    0.0003   -0.0005    0.0002   -0.0001   -0.0001   -0.0004   -0.0000    0.0037
   190 H14    2px        0.0000   -0.0000   -0.0000    0.0001   -0.0001   -0.0000    0.0000    0.0000   -0.0000   -0.0020
   191 H14    2py        0.0001   -0.0000   -0.0000    0.0000    0.0000   -0.0000   -0.0000   -0.0000    0.0000    0.0003
   192 H14    2pz        0.0000    0.0000    0.0001    0.0000   -0.0000   -0.0000   -0.0000   -0.0000   -0.0000   -0.0005
   193 H15    1s        -0.0011   -0.0003   -0.0007   -0.0003    0.0001   -0.0005   -0.0005   -0.0009   -0.0003    0.0445
   194 H15    2s        -0.0006   -0.0002   -0.0005   -0.0002   -0.0001   -0.0003   -0.0003   -0.0006   -0.0002    0.0025
   195 H15    2px       -0.0001    0.0000   -0.0001    0.0000    0.0001    0.0000   -0.0000   -0.0000   -0.0000    0.0018
   196 H15    2py       -0.0001    0.0000   -0.0004    0.0000    0.0001   -0.0000    0.0000   -0.0001   -0.0000    0.0054
   197 H15    2pz        0.0000   -0.0001   -0.0001   -0.0000    0.0001   -0.0000   -0.0000   -0.0000   -0.0000    0.0028
   198 H16    1s         0.0006    0.0002   -0.0004   -0.0000   -0.0003    0.0001    0.0009    0.0000    0.0000   -0.0011
   199 H16    2s         0.0004    0.0001   -0.0002   -0.0000   -0.0003    0.0001    0.0001   -0.0000    0.0000   -0.0057
   200 H16    2px        0.0000    0.0000   -0.0000    0.0000   -0.0001    0.0000    0.0001   -0.0000    0.0000    0.0003
   201 H16    2py       -0.0000   -0.0000    0.0000   -0.0000    0.0000    0.0000   -0.0000    0.0000   -0.0000   -0.0005
   202 H16    2pz        0.0000    0.0000   -0.0000   -0.0000   -0.0000   -0.0000    0.0000    0.0000    0.0000   -0.0001
   203 H17    1s        -0.0002    0.0001   -0.0001   -0.0000   -0.0001   -0.0001    0.0010    0.0000    0.0001    0.0118
   204 H17    2s        -0.0001    0.0000   -0.0000   -0.0000   -0.0000   -0.0001    0.0001    0.0000    0.0000   -0.0020
   205 H17    2px       -0.0000   -0.0000   -0.0000    0.0000    0.0000   -0.0000   -0.0000    0.0000   -0.0000    0.0008
   206 H17    2py        0.0000   -0.0000   -0.0000    0.0000    0.0000    0.0000   -0.0001    0.0000   -0.0000   -0.0010
   207 H17    2pz        0.0000    0.0000    0.0000    0.0000    0.0000    0.0000   -0.0000    0.0000   -0.0000   -0.0002
   208 H18    1s        -0.0001   -0.0000   -0.0004    0.0000   -0.0002    0.0001    0.0006   -0.0000   -0.0000    0.0141
   209 H18    2s        -0.0001    0.0000   -0.0002    0.0000   -0.0001    0.0001   -0.0001   -0.0000   -0.0000    0.0046
   210 H18    2px       -0.0000   -0.0000   -0.0000    0.0000    0.0000   -0.0000    0.0000    0.0000    0.0000    0.0003
   211 H18    2py       -0.0000    0.0000    0.0000    0.0000   -0.0000   -0.0000   -0.0000   -0.0000    0.0000   -0.0001
   212 H18    2pz       -0.0000   -0.0000   -0.0000    0.0000   -0.0000    0.0000   -0.0000   -0.0000    0.0000    0.0017
 
 
      Orbital                11        12        13        14        15        16        17        18        19        20
      Energy            -1.3611   -1.2501   -1.2169   -1.0126   -0.9639   -0.9230   -0.8114   -0.7769   -0.6996   -0.6822
      Occ. No.           2.0000    2.0000    2.0000    2.0000    2.0000    2.0000    2.0000    2.0000    2.0000    2.0000
 
     1 C1     1s         0.0395    0.0034    0.0070   -0.0122   -0.0083    0.0036    0.0076   -0.0127    0.0038    0.0065
     2 C1     2s        -0.3580    0.0092   -0.1012    0.2224    0.1476   -0.0120   -0.1701    0.3389   -0.0959   -0.1673
     3 C1     3s         0.0043    0.0155    0.0017   -0.0053   -0.0097    0.0077    0.0007    0.0001    0.0077    0.0105
     4 C1     4s        -0.0027    0.0048    0.0003   -0.0028   -0.0021    0.0035    0.0013   -0.0023    0.0022    0.0044
     5 C1     2px        0.0574    0.0307   -0.1387    0.0423   -0.0403   -0.1080   -0.0880    0.1280    0.0275    0.0666
     6 C1     3px       -0.0252   -0.0071    0.0473   -0.0526   -0.0147    0.0207    0.0235   -0.0245   -0.0064   -0.0287
     7 C1     4px        0.0174    0.0089   -0.0270   -0.0029   -0.0076   -0.0115   -0.0065    0.0091    0.0045    0.0034
     8 C1     2py       -0.0916    0.0084    0.0254   -0.1057   -0.1202   -0.0360   -0.0178    0.0326   -0.0730    0.0302
     9 C1     3py        0.0578    0.0346   -0.0369   -0.0019    0.0266    0.0633    0.0015   -0.0158    0.0272   -0.0030
    10 C1     4py       -0.0216    0.0034    0.0046   -0.0190   -0.0169   -0.0006   -0.0023    0.0035   -0.0020   -0.0008
    11 C1     2pz       -0.0036   -0.0076   -0.0021    0.0086    0.0070    0.0186   -0.0055   -0.0048   -0.0038   -0.0172
    12 C1     3pz       -0.0027   -0.0107   -0.0074    0.0013   -0.0053    0.0097   -0.0102   -0.0030   -0.0048   -0.0014
    13 C1     4pz       -0.0004   -0.0042   -0.0010    0.0010    0.0016    0.0031   -0.0029   -0.0013   -0.0023   -0.0031
    14 C1     3d2-       0.0333    0.0062   -0.0193    0.0061    0.0077    0.0042   -0.0038    0.0127   -0.0106    0.0064
    15 C1     3d1-       0.0010   -0.0003    0.0003   -0.0011   -0.0019   -0.0006    0.0001   -0.0017    0.0010    0.0001
    16 C1     3d0        0.0277    0.0005    0.0048   -0.0093   -0.0048    0.0027    0.0069   -0.0119    0.0028    0.0046
    17 C1     3d1+       0.0007   -0.0009    0.0019   -0.0010   -0.0006    0.0006    0.0012   -0.0019    0.0006   -0.0024
    18 C1     3d2+       0.0004    0.0039   -0.0221    0.0065   -0.0100   -0.0168   -0.0075    0.0082    0.0027    0.0058
    19 C3     1s         0.0087   -0.0094    0.0307    0.0393    0.0006   -0.0250   -0.0071   -0.0024    0.0028    0.0064
    20 C3     2s        -0.0259    0.0651   -0.1886   -0.3348   -0.0104    0.3628    0.0656    0.0841   -0.0928   -0.0670
    21 C3     3s         0.0152   -0.0149    0.0526    0.0719    0.0009   -0.0219   -0.0147   -0.0016   -0.0030    0.0191
    22 C3     4s         0.0019   -0.0021    0.0122    0.0188    0.0013   -0.0066   -0.0038   -0.0021    0.0002    0.0054
    23 C3     2px        0.0222   -0.0260    0.0542    0.0001   -0.0145    0.0389    0.0669   -0.0539   -0.0006   -0.1914
    24 C3     3px        0.0049    0.0056   -0.0164   -0.0350   -0.0161    0.0050   -0.0058   -0.0009   -0.0029    0.0171
    25 C3     4px        0.0026    0.0033   -0.0072   -0.0174   -0.0065    0.0171    0.0056    0.0020   -0.0007   -0.0053
    26 C3     2py        0.0276   -0.0170    0.1077   -0.0368    0.0431    0.0305   -0.1423    0.1803    0.2065    0.0104
    27 C3     3py        0.0126   -0.0070    0.0224    0.0189   -0.0566   -0.0320   -0.0037   -0.0036   -0.0420    0.0050
    28 C3     4py        0.0075    0.0007    0.0157   -0.0035   -0.0019   -0.0011   -0.0102    0.0078   -0.0016   -0.0003
    29 C3     2pz       -0.0033   -0.0243   -0.0137    0.0301   -0.0422    0.0221    0.0251    0.0115    0.0124   -0.1639
    30 C3     3pz       -0.0058   -0.0014   -0.0097    0.0018   -0.0089    0.0193   -0.0123    0.0000    0.0054    0.0108
    31 C3     4pz       -0.0019    0.0019   -0.0038   -0.0016   -0.0021    0.0076   -0.0002    0.0022   -0.0013   -0.0058
    32 C3     3d2-      -0.0038    0.0017   -0.0162    0.0081   -0.0123   -0.0072    0.0101   -0.0083   -0.0238   -0.0026
    33 C3     3d1-       0.0013   -0.0054    0.0027    0.0052   -0.0042    0.0008    0.0067   -0.0006   -0.0004   -0.0102
    34 C3     3d0        0.0024   -0.0021    0.0111    0.0051    0.0019    0.0010    0.0015    0.0018    0.0008   -0.0138
    35 C3     3d1+      -0.0005    0.0024   -0.0000   -0.0028    0.0023    0.0008   -0.0040    0.0052    0.0050    0.0013
    36 C3     3d2+       0.0009    0.0004    0.0110    0.0050    0.0033   -0.0024   -0.0046    0.0110   -0.0094   -0.0033
    37 C4     1s        -0.0032   -0.0080   -0.0026    0.0133   -0.0106    0.0035    0.0185    0.0016   -0.0055   -0.0009
    38 C4     2s        -0.0055    0.1406   -0.0147   -0.2221    0.1886    0.0394   -0.3556   -0.0651    0.2232    0.0670
    39 C4     3s        -0.0095   -0.0023   -0.0065    0.0200   -0.0088    0.0114    0.0284   -0.0093   -0.0070    0.0090
    40 C4     4s        -0.0024   -0.0013   -0.0023    0.0074   -0.0031    0.0018    0.0085   -0.0035   -0.0025   -0.0000
    41 C4     2px       -0.0109   -0.0573   -0.0409   -0.0502    0.0277    0.0740    0.0219    0.0951    0.1186   -0.0121
    42 C4     3px       -0.0199    0.0116   -0.0120    0.0015    0.0610   -0.0346   -0.0040   -0.0440   -0.0316   -0.0126
    43 C4     4px       -0.0050   -0.0102   -0.0081   -0.0064    0.0093    0.0055    0.0041    0.0021    0.0070   -0.0051
    44 C4     2py        0.0182   -0.0342    0.0244    0.1214   -0.0771   -0.0377   -0.0231   -0.1025    0.0265   -0.1753
    45 C4     3py       -0.0054    0.0671   -0.0073   -0.0308   -0.0354    0.0661   -0.0100    0.0471   -0.0107    0.0638
    46 C4     4py        0.0046   -0.0027    0.0055    0.0120   -0.0153    0.0050   -0.0045   -0.0044    0.0075   -0.0066
    47 C4     2pz       -0.0027   -0.1303   -0.0517    0.0070   -0.0469    0.0845    0.0891    0.1135    0.2032   -0.1132
    48 C4     3pz       -0.0137    0.0449   -0.0123   -0.0238    0.0543   -0.0359    0.0018   -0.0451   -0.0611    0.0204
    49 C4     4pz        0.0016   -0.0252   -0.0076   -0.0023   -0.0011    0.0057    0.0075    0.0051    0.0140   -0.0095
    50 C4     3d2-      -0.0001   -0.0029    0.0028    0.0101   -0.0011   -0.0119    0.0091   -0.0033    0.0022    0.0019
    51 C4     3d1-       0.0028   -0.0112    0.0000    0.0048    0.0033   -0.0092    0.0084    0.0017    0.0192    0.0042
    52 C4     3d0       -0.0002    0.0167    0.0046   -0.0001    0.0093   -0.0144   -0.0057   -0.0120   -0.0120    0.0027
    53 C4     3d1+       0.0005    0.0183    0.0044   -0.0073    0.0099   -0.0047   -0.0121   -0.0063   -0.0053   -0.0014
    54 C4     3d2+      -0.0016    0.0134    0.0053    0.0027    0.0014   -0.0028    0.0035   -0.0025   -0.0116   -0.0009
    55 C6     1s        -0.0014   -0.0297   -0.0142   -0.0299    0.0385   -0.0300    0.0097   -0.0021   -0.0035   -0.0070
    56 C6     2s        -0.0161    0.1698    0.0177    0.1843   -0.3033    0.3003   -0.1148    0.0195    0.0250    0.0816
    57 C6     3s        -0.0105   -0.0422   -0.0417   -0.0567    0.0689   -0.0427    0.0225   -0.0059   -0.0084   -0.0216
    58 C6     4s        -0.0031   -0.0066   -0.0098   -0.0118    0.0155   -0.0091    0.0068   -0.0018   -0.0016   -0.0070
    59 C6     2px       -0.0034    0.0585    0.0111    0.0206   -0.0000   -0.0192    0.0201   -0.0427   -0.1065   -0.2300
    60 C6     3px       -0.0038   -0.0165   -0.0116   -0.0077    0.0106   -0.0014   -0.0019    0.0040    0.0110    0.0325
    61 C6     4px       -0.0008   -0.0006   -0.0011   -0.0060    0.0104   -0.0090    0.0039   -0.0026   -0.0037   -0.0105
    62 C6     2py        0.0018   -0.0813   -0.0124   -0.0165    0.0010    0.0244   -0.1332   -0.0391   -0.0394    0.1993
    63 C6     3py       -0.0010    0.0110    0.0131    0.0145   -0.0086   -0.0027    0.0013    0.0022   -0.0014   -0.0322
    64 C6     4py       -0.0005    0.0000    0.0000    0.0072   -0.0119    0.0123   -0.0119   -0.0028   -0.0018    0.0092
    65 C6     2pz       -0.0010    0.0357    0.0064   -0.0048    0.0245   -0.0254   -0.0345   -0.0719   -0.1156   -0.0850
    66 C6     3pz       -0.0002   -0.0072   -0.0070   -0.0156    0.0251   -0.0106    0.0109    0.0056    0.0174    0.0096
    67 C6     4pz        0.0002   -0.0028   -0.0016   -0.0042    0.0081   -0.0068   -0.0021   -0.0060   -0.0050   -0.0060
    68 C6     3d2-       0.0003   -0.0176   -0.0047   -0.0060    0.0026    0.0030   -0.0122   -0.0002    0.0044    0.0294
    69 C6     3d1-       0.0003   -0.0101   -0.0024   -0.0010   -0.0011    0.0030   -0.0034    0.0018    0.0013    0.0109
    70 C6     3d0        0.0004   -0.0096   -0.0024   -0.0023    0.0009    0.0017   -0.0067   -0.0001    0.0042    0.0127
    71 C6     3d1+       0.0002    0.0069    0.0024    0.0023   -0.0007   -0.0015   -0.0052   -0.0081   -0.0119   -0.0130
    72 C6     3d2+      -0.0002   -0.0045   -0.0012   -0.0023    0.0015    0.0003   -0.0080   -0.0033   -0.0001    0.0071
    73 C19    1s         0.0150   -0.0008    0.0090   -0.0358   -0.0532   -0.0352   -0.0116    0.0096    0.0006   -0.0056
    74 C19    2s         0.0090   -0.0040    0.0009    0.1801    0.3093    0.2548    0.0514   -0.0786   -0.0274    0.0389
    75 C19    3s         0.0405    0.0012    0.0277   -0.0719   -0.1024   -0.0591   -0.0314    0.0211    0.0003   -0.0110
    76 C19    4s         0.0041    0.0021    0.0042   -0.0149   -0.0221   -0.0131   -0.0078    0.0063    0.0010   -0.0024
    77 C19    2px        0.0106    0.0040   -0.0200    0.0434    0.0202   -0.0132   -0.0289    0.0387    0.0504   -0.0142
    78 C19    3px        0.0054   -0.0000    0.0034    0.0110   -0.0016   -0.0032    0.0016   -0.0029   -0.0034    0.0057
    79 C19    4px       -0.0074   -0.0002   -0.0001   -0.0016   -0.0094   -0.0097   -0.0030    0.0008    0.0043   -0.0014
    80 C19    2py       -0.0191    0.0048   -0.0080    0.0349    0.0260   -0.0026   -0.0399    0.0714    0.0018   -0.1242
    81 C19    3py        0.0096    0.0073    0.0050   -0.0198   -0.0245   -0.0128    0.0035   -0.0100    0.0064    0.0166
    82 C19    4py       -0.0055    0.0008   -0.0002   -0.0077   -0.0151   -0.0148   -0.0057    0.0120   -0.0007   -0.0048
    83 C19    2pz        0.0033    0.0001    0.0078   -0.0064   -0.0069   -0.0088    0.0034   -0.0041   -0.0040    0.0031
    84 C19    3pz        0.0024    0.0002    0.0063   -0.0009   -0.0022   -0.0088    0.0006   -0.0003    0.0033   -0.0029
    85 C19    4pz        0.0011   -0.0002    0.0004    0.0012    0.0019    0.0013    0.0004   -0.0013   -0.0003    0.0001
    86 C19    3d2-       0.0007    0.0011   -0.0061    0.0071    0.0048   -0.0006   -0.0042    0.0069   -0.0006   -0.0067
    87 C19    3d1-       0.0003   -0.0001    0.0003   -0.0010   -0.0007   -0.0003    0.0004   -0.0008   -0.0000    0.0015
    88 C19    3d0       -0.0012   -0.0001    0.0007   -0.0059   -0.0062   -0.0021    0.0018   -0.0034   -0.0034    0.0038
    89 C19    3d1+      -0.0012   -0.0002    0.0003   -0.0009   -0.0002    0.0005    0.0007   -0.0010   -0.0014   -0.0001
    90 C19    3d2+       0.0066    0.0010   -0.0012   -0.0059   -0.0067   -0.0030    0.0019   -0.0049    0.0006    0.0089
    91 N2     1s         0.0183   -0.0074    0.0387   -0.0066    0.0018    0.0037   -0.0025    0.0040   -0.0012    0.0020
    92 N2     2s        -0.1410    0.1047   -0.5779    0.1014   -0.1510   -0.1923    0.0058   -0.1029    0.0083    0.0832
    93 N2     3s         0.0444   -0.0114    0.0655   -0.0086   -0.0059   -0.0022   -0.0093    0.0054   -0.0011    0.0121
    94 N2     4s         0.0109   -0.0041    0.0227   -0.0019    0.0010    0.0019   -0.0028    0.0022    0.0002    0.0016
    95 N2     2px        0.0327   -0.0024    0.0188   -0.1006   -0.0730    0.0715    0.1861   -0.3519    0.0474   -0.0188
    96 N2     3px       -0.0143   -0.0081    0.0161    0.0438   -0.0188   -0.0555   -0.0669    0.0904   -0.0058    0.0034
    97 N2     4px        0.0059    0.0006   -0.0011   -0.0002   -0.0088   -0.0069   -0.0030   -0.0017    0.0035    0.0012
    98 N2     2py       -0.0253    0.0041    0.0177   -0.1274   -0.0372    0.0724    0.0197    0.1196   -0.3045    0.0520
    99 N2     3py       -0.0048   -0.0128    0.0517    0.0388   -0.0083   -0.0678   -0.0155   -0.0144    0.0571   -0.0116
   100 N2     4py        0.0088   -0.0026    0.0141   -0.0035   -0.0013   -0.0053   -0.0053    0.0077    0.0003   -0.0006
   101 N2     2pz       -0.0046    0.0004   -0.0012    0.0197    0.0076   -0.0088   -0.0061    0.0155    0.0056   -0.0528
   102 N2     3pz       -0.0001    0.0060   -0.0018   -0.0026    0.0065   -0.0006    0.0081   -0.0053   -0.0051    0.0163
   103 N2     4pz       -0.0012    0.0010   -0.0012    0.0012    0.0002   -0.0001    0.0009   -0.0008   -0.0002    0.0030
   104 N2     3d2-       0.0015    0.0023   -0.0093   -0.0028    0.0023    0.0080    0.0017    0.0070   -0.0147   -0.0010
   105 N2     3d1-       0.0002   -0.0009    0.0020    0.0009   -0.0000   -0.0002   -0.0003    0.0004    0.0015   -0.0037
   106 N2     3d0        0.0031   -0.0031    0.0158   -0.0008    0.0032    0.0027   -0.0001    0.0006    0.0002    0.0002
   107 N2     3d1+       0.0006   -0.0003    0.0019   -0.0002   -0.0003    0.0002    0.0009   -0.0005    0.0011   -0.0010
   108 N2     3d2+      -0.0053    0.0003   -0.0038    0.0094    0.0006   -0.0085   -0.0094    0.0160   -0.0030   -0.0040
   109 N5     1s         0.0009   -0.0410   -0.0093   -0.0014   -0.0026    0.0019   -0.0036   -0.0018   -0.0032   -0.0025
   110 N5     2s        -0.0185    0.5720    0.1453    0.0191    0.1001   -0.1913    0.1749   -0.0133   -0.0915   -0.1467
   111 N5     3s        -0.0019   -0.0798   -0.0194   -0.0088    0.0040   -0.0102   -0.0025   -0.0081   -0.0136   -0.0118
   112 N5     4s        -0.0006   -0.0260   -0.0069   -0.0034    0.0010   -0.0005   -0.0023   -0.0014   -0.0010   -0.0006
   113 N5     2px       -0.0017    0.0057   -0.0258   -0.0932    0.1060   -0.0530   -0.1370   -0.0835   -0.0687    0.1708
   114 N5     3px       -0.0030    0.0296   -0.0180    0.0141   -0.0440    0.0437    0.0446    0.0170    0.0132   -0.0282
   115 N5     4px        0.0002   -0.0002   -0.0040   -0.0041   -0.0020    0.0051    0.0009   -0.0003    0.0024   -0.0038
   116 N5     2py        0.0102   -0.0057    0.0226    0.0866   -0.0958    0.0854   -0.2051   -0.1789   -0.1816   -0.3013
   117 N5     3py        0.0096   -0.0227    0.0158   -0.0241    0.0557   -0.0510    0.0405    0.0240    0.0433    0.0464
   118 N5     4py        0.0026   -0.0083    0.0024   -0.0023    0.0006   -0.0031   -0.0072   -0.0033    0.0001    0.0049
   119 N5     2pz       -0.0073    0.0297   -0.0114   -0.0776    0.1112   -0.0605   -0.2705   -0.1997   -0.1655    0.1268
   120 N5     3pz       -0.0071   -0.0297   -0.0239    0.0233   -0.0243    0.0202    0.0608    0.0283    0.0183   -0.0343
   121 N5     4pz        0.0002   -0.0085   -0.0037   -0.0033    0.0026   -0.0004   -0.0022   -0.0018    0.0003   -0.0052
   122 N5     3d2-       0.0002   -0.0079   -0.0015   -0.0052    0.0073   -0.0071    0.0026    0.0019    0.0058    0.0110
   123 N5     3d1-       0.0011   -0.0021    0.0011    0.0005    0.0026   -0.0065    0.0036   -0.0011    0.0027    0.0009
   124 N5     3d0       -0.0002    0.0043    0.0004   -0.0059    0.0094   -0.0064   -0.0160   -0.0110   -0.0070    0.0089
   125 N5     3d1+      -0.0001    0.0153    0.0035   -0.0024    0.0043   -0.0035   -0.0049   -0.0029   -0.0026    0.0027
   126 N5     3d2+      -0.0001   -0.0028   -0.0012   -0.0016    0.0013    0.0027   -0.0104   -0.0055   -0.0027    0.0006
   127 O7     1s         0.0241    0.0013   -0.0036   -0.0028   -0.0028   -0.0015    0.0039   -0.0101    0.0082    0.0088
   128 O7     2s        -0.6772   -0.1032    0.3063   -0.1650   -0.1418   -0.0170    0.1173   -0.2838    0.1766    0.1576
   129 O7     3s         0.0314   -0.0028    0.0084   -0.0168   -0.0149   -0.0067    0.0134   -0.0354    0.0262    0.0264
   130 O7     4s         0.0135    0.0000   -0.0002   -0.0032   -0.0029   -0.0018    0.0021   -0.0070    0.0053    0.0051
   131 O7     2px       -0.0976   -0.0064    0.0101    0.0011   -0.0078   -0.0275   -0.0703    0.1463   -0.1176   -0.0881
   132 O7     3px        0.0291    0.0030   -0.0004   -0.0059   -0.0041    0.0013    0.0044   -0.0196    0.0123    0.0046
   133 O7     4px        0.0017    0.0004    0.0002   -0.0007    0.0003    0.0008    0.0003   -0.0023    0.0006   -0.0004
   134 O7     2py        0.1038    0.0260   -0.0441   -0.0131   -0.0226   -0.0191    0.0123   -0.0854    0.1190    0.1448
   135 O7     3py       -0.0369    0.0089    0.0008    0.0096    0.0070    0.0091   -0.0113    0.0141   -0.0102   -0.0173
   136 O7     4py       -0.0011    0.0028    0.0015   -0.0000    0.0001    0.0031   -0.0018    0.0009   -0.0016   -0.0023
   137 O7     2pz       -0.0025   -0.0048   -0.0016    0.0059    0.0078   -0.0010   -0.0038    0.0066   -0.0055   -0.0088
   138 O7     3pz        0.0007   -0.0035   -0.0003    0.0001    0.0050   -0.0079    0.0039    0.0031    0.0004    0.0018
   139 O7     4pz       -0.0004   -0.0008   -0.0000   -0.0002    0.0015   -0.0023    0.0015    0.0004    0.0005    0.0007
   140 O7     3d2-       0.0184    0.0025   -0.0052    0.0004    0.0012    0.0008    0.0029   -0.0080    0.0079    0.0075
   141 O7     3d1-       0.0005   -0.0002   -0.0003   -0.0001   -0.0003   -0.0003   -0.0001    0.0001    0.0000    0.0003
   142 O7     3d0        0.0103    0.0014   -0.0044    0.0014    0.0008   -0.0005    0.0013   -0.0031    0.0044    0.0040
   143 O7     3d1+      -0.0000   -0.0004   -0.0003    0.0004    0.0004    0.0002   -0.0003    0.0001   -0.0002   -0.0007
   144 O7     3d2+       0.0016    0.0009   -0.0037   -0.0005   -0.0032   -0.0046   -0.0030    0.0039    0.0001    0.0039
   145 O8     1s        -0.0008    0.0026    0.0012    0.0029   -0.0030   -0.0017    0.0135    0.0030   -0.0199    0.0112
   146 O8     2s         0.0711   -0.3027    0.0016    0.1710   -0.1117   -0.0651    0.3480    0.0741   -0.3250    0.1887
   147 O8     3s         0.0020   -0.0076    0.0030    0.0127   -0.0113   -0.0072    0.0426    0.0087   -0.0567    0.0319
   148 O8     4s        -0.0001    0.0007    0.0003    0.0015   -0.0016   -0.0016    0.0082    0.0016   -0.0117    0.0069
   149 O8     2px        0.0007   -0.0097   -0.0069   -0.0138   -0.0055    0.0196    0.0268    0.0494    0.0165    0.0295
   150 O8     3px        0.0035   -0.0037    0.0009    0.0018   -0.0048   -0.0039   -0.0013   -0.0080   -0.0060   -0.0008
   151 O8     4px        0.0012   -0.0009    0.0004    0.0002   -0.0003   -0.0016    0.0004   -0.0017   -0.0015   -0.0000
   152 O8     2py       -0.0116    0.0362    0.0060    0.0329   -0.0163   -0.0333    0.1652    0.0151   -0.3662    0.2096
   153 O8     3py        0.0004   -0.0065    0.0025   -0.0066    0.0136   -0.0011   -0.0252   -0.0012    0.0413   -0.0208
   154 O8     4py        0.0003   -0.0031    0.0016    0.0011    0.0006   -0.0000   -0.0029    0.0002    0.0054   -0.0034
   155 O8     2pz       -0.0075    0.0045   -0.0081    0.0028   -0.0240    0.0209    0.1528    0.0844   -0.1751    0.1459
[...]
AIVX     1  Mu1.0001  In1.024 Se1.046               0.26513202      0.00028233     -0.00028445     -0.00000008
AIVX     1  Mu1.0001  In1.025 Se1.046               0.27364826      0.00042339     -0.00022559     -0.00000010
AIVX     1  Mu1.0001  In1.026 Se1.046               0.13096765     -0.00002064     -0.00006477      0.00000000
AIVX     1  Mu1.0001  In1.027 Se1.046               0.25691362      0.00019476     -0.00013109     -0.00000003
AIVX     1  Mu1.0001  In1.028 Se1.046               0.13918640      0.00020754     -0.00048579     -0.00000010
AIVX     1  Mu1.0001  In1.029 Se1.046               0.11160142     -0.00010822      0.00013979     -0.00000002
AIVX     1  Mu1.0001  In1.021 Se1.047               0.28839566      0.00009221     -0.00013882     -0.00000001
AIVX     1  Mu1.0001  In1.022 Se1.047               0.19707991      0.00021639     -0.00043252     -0.00000009
AIVX     1  Mu1.0001  In1.024 Se1.047               0.27321276     -0.00007326      0.00007626     -0.00000001
AIVX     1  Mu1.0001  In1.025 Se1.047               0.28172900      0.00007095     -0.00019802     -0.00000001
AIVX     1  Mu1.0001  In1.026 Se1.047               0.13904839      0.00021685     -0.00042175     -0.00000009
AIVX     1  Mu1.0001  In1.027 Se1.047               0.26499435     -0.00016192      0.00022931     -0.00000004
AIVX     1  Mu1.0001  In1.028 Se1.047               0.14726714     -0.00010237      0.00021059     -0.00000002
AIVX     1  Mu1.0001  In1.029 Se1.047               0.11968215      0.00002572     -0.00003516     -0.00000000
AIVX     1  Mu1.0001  In1.022 Se1.048               0.21638458      0.00019821     -0.00018511     -0.00000004
AIVX     1  Mu1.0001  In1.024 Se1.048               0.29251743     -0.00000119      0.00009683     -0.00000000
AIVX     1  Mu1.0001  In1.026 Se1.048               0.15835306     -0.00008060      0.00008980     -0.00000001
AIVX     1  Mu1.0001  In1.027 Se1.048               0.28429902     -0.00021098      0.00043176     -0.00000009
AIVX     1  Mu1.0001  In1.028 Se1.048               0.16657181      0.00008416     -0.00021338     -0.00000002
AIVX     1  Mu1.0001  In1.029 Se1.048               0.13898683     -0.00024069      0.00043621     -0.00000010
AIVX     1  Mu1.0001  In1.021 Se1.049               0.29720106      0.00000042      0.00003933      0.00000000
AIVX     1  Mu1.0001  In1.022 Se1.049               0.20588531      0.00005610     -0.00006516     -0.00000000
AIVX     1  Mu1.0001  In1.024 Se1.049               0.28201816     -0.00004774      0.00008637     -0.00000000
AIVX     1  Mu1.0001  In1.025 Se1.049               0.29053440      0.00011196     -0.00014257     -0.00000002
AIVX     1  Mu1.0001  In1.026 Se1.049               0.14785379     -0.00004374      0.00009125     -0.00000000
AIVX     1  Mu1.0001  In1.027 Se1.049               0.27379975      0.00033211     -0.00051179     -0.00000017
AIVX     1  Mu1.0001  In1.028 Se1.049               0.15607254     -0.00002493      0.00008545     -0.00000000
AIVX     1  Mu1.0001  In1.029 Se1.049               0.12848755     -0.00014424      0.00031522     -0.00000005
AIVX     1  Mu1.0001  In1.022 Se1.050               0.22406411     -0.00002051     -0.00018854      0.00000000
AIVX     1  Mu1.0001  In1.026 Se1.050               0.16603259      0.00005710     -0.00002882     -0.00000000
AIVX     1  Mu1.0001  In1.027 Se1.050               0.29197856      0.00015610     -0.00040271     -0.00000006
AIVX     1  Mu1.0001  In1.028 Se1.050               0.17425135      0.00002611     -0.00003654     -0.00000000
AIVX     1  Mu1.0001  In1.029 Se1.050               0.14666636      0.00008566     -0.00009170     -0.00000001
AIVX     1  Mu1.0001  In1.022 Se1.051               0.22779007      0.00026293     -0.00021447     -0.00000006
AIVX     1  Mu1.0001  In1.026 Se1.051               0.16975855     -0.00008595      0.00007400     -0.00000001
AIVX     1  Mu1.0001  In1.027 Se1.051               0.29570452     -0.00000365      0.00017067     -0.00000000
AIVX     1  Mu1.0001  In1.028 Se1.051               0.17797731      0.00012413     -0.00031174     -0.00000004
AIVX     1  Mu1.0001  In1.029 Se1.051               0.15039232      0.00002210     -0.00017811     -0.00000000
AIVX     1  Mu1.0001  In1.022 Se1.052               0.27069630      0.00009123      0.00005885      0.00000001
AIVX     1  Mu1.0001  In1.026 Se1.052               0.21266478     -0.00012066      0.00015102     -0.00000002
AIVX     1  Mu1.0001  In1.028 Se1.052               0.22088353     -0.00002377     -0.00001089      0.00000000
AIVX     1  Mu1.0001  In1.029 Se1.052               0.19329855      0.00031655     -0.00066607     -0.00000021
AIVX     1  Mu1.0001  In1.022 Se1.053               0.29194089     -0.00003449     -0.00007027      0.00000000
AIVX     1  Mu1.0001  In1.026 Se1.053               0.23390937      0.00004199     -0.00000426     -0.00000000
AIVX     1  Mu1.0001  In1.028 Se1.053               0.24212813     -0.00004402      0.00009811     -0.00000000
AIVX     1  Mu1.0001  In1.029 Se1.053               0.21454314      0.00035616     -0.00054794     -0.00000020
AIVX     1  Mu1.0001  In1.022 Se1.054               0.28755744      0.00009922     -0.00018129     -0.00000002
AIVX     1  Mu1.0001  In1.026 Se1.054               0.22952592     -0.00007561      0.00014290     -0.00000001
AIVX     1  Mu1.0001  In1.028 Se1.054               0.23774468     -0.00007950      0.00011970     -0.00000001
AIVX     1  Mu1.0001  In1.029 Se1.054               0.21015969     -0.00015421      0.00027644     -0.00000004
AIVX     1  Mu1.0001  In1.026 Se1.055               0.27487631     -0.00015574      0.00013652     -0.00000002
AIVX     1  Mu1.0001  In1.028 Se1.055               0.28309507     -0.00004702      0.00000860     -0.00000000
AIVX     1  Mu1.0001  In1.029 Se1.055               0.25551008      0.00004696     -0.00026153     -0.00000001
AIVX     1  Mu1.0001  In1.026 Se1.056               0.25844781     -0.00007728      0.00014570     -0.00000001
AIVX     1  Mu1.0001  In1.028 Se1.056               0.26666657     -0.00001091      0.00003769     -0.00000000
AIVX     1  Mu1.0001  In1.029 Se1.056               0.23908158     -0.00003308      0.00007907     -0.00000000
AIVX     1  Mu1.0001  In1.026 Se1.057               0.29029846     -0.00022799      0.00029193     -0.00000007
AIVX     1  Mu1.0001  In1.028 Se1.057               0.29851721     -0.00008270      0.00009265     -0.00000001
AIVX     1  Mu1.0001  In1.029 Se1.057               0.27093222     -0.00004211     -0.00001757      0.00000000
AIVX     1  Mu1.0001  In1.026 Se1.058               0.27892161      0.00005677     -0.00004506     -0.00000000
AIVX     1  Mu1.0001  In1.028 Se1.058               0.28714036      0.00001747     -0.00001597     -0.00000000
AIVX     1  Mu1.0001  In1.029 Se1.058               0.25955538      0.00000277     -0.00002182     -0.00000000
AIVX     1  Mu1.0001  In1.029 Se1.060               0.29703621     -0.00013997      0.00043646     -0.00000006
AIVX     1  Mu1.0001  In1.026 Se1.209               0.26285298     -0.00000610     -0.00000792      0.00000000
AIVX     1  Mu1.0001  In1.028 Se1.209               0.27107173      0.00003679     -0.00012880     -0.00000000
AIVX     1  Mu1.0001  In1.029 Se1.209               0.24348675     -0.00021353      0.00026803     -0.00000006
--
 
   (Skipping property calculation,
    use PROP keyword to activate)
--
 
  Total CASPT2 energies:
::    CASPT2 Root  1     Total energy:   -455.37083764
::    CASPT2 Root  2     Total energy:   -455.16476137
::    CASPT2 Root  3     Total energy:   -455.16359852
::    CASPT2 Root  4     Total energy:   -455.11676286
::    CASPT2 Root  5     Total energy:   -455.12793491
::    CASPT2 Root  6     Total energy:   -455.07445587
::    CASPT2 Root  7     Total energy:   -455.05813402
 
++ Multi-State CASPT2 section:
********************************************************************************
  MULTI-STATE CASPT2 SECTION
--------------------------------------------------------------------------------
 
  Output diagonal energies have been shifted. Add   -455.000000000000     
 
  Effective Hamiltonian matrix (Symmetric):
 
                1               2               3               4               5
   1        -0.37083764
   2        -0.00067625     -0.16476137
   3         0.00007831      0.00001749     -0.16359852
   4        -0.01763799     -0.00044020     -0.00029160     -0.11676286
   5         0.01645929      0.00336129     -0.00024636      0.00245358     -0.12793491
   6         0.00214155     -0.00006609     -0.00319642      0.00360621      0.00214823
   7         0.00261551     -0.00072722     -0.00142670      0.00186045     -0.00409138
 
                6               7
   6        -0.07445587
   7        -0.00280141     -0.05813402
 
       Total MS-CASPT2 energies:
::    MS-CASPT2 Root  1     Total energy:   -455.37322843
::    MS-CASPT2 Root  2     Total energy:   -455.16505064
::    MS-CASPT2 Root  3     Total energy:   -455.16373619
::    MS-CASPT2 Root  4     Total energy:   -455.12697307
::    MS-CASPT2 Root  5     Total energy:   -455.11576033
::    MS-CASPT2 Root  6     Total energy:   -455.07438055
::    MS-CASPT2 Root  7     Total energy:   -455.05735597
 
       Eigenvectors:
            0.99521751     -0.01085734      0.00094930      0.07414390     -0.06239540
            0.00442924      0.99607218      0.01618786      0.08650665     -0.00013940
           -0.00053622     -0.01592451      0.99909934     -0.00495710      0.00012969
            0.06927465      0.00908333      0.00314674     -0.10402451      0.98779620
           -0.06762753     -0.08584599      0.00421764      0.98574664      0.10741551
           -0.00757828      0.00220195      0.03599011     -0.03329966     -0.09033574
           -0.00960776      0.00344271      0.01464865      0.05803712     -0.02582252
 
            0.00493280      0.00291311
           -0.00129824     -0.00856987
           -0.03813918     -0.00821252
            0.09074866      0.01763110
            0.03268648     -0.06112498
            0.98117490     -0.16330594
            0.16282343      0.98444638
 
--
 
  THE ORIGINAL CI ARRAYS ARE NOW MIXED AS LINEAR
  COMBINATIONS, GIVEN BY THE EIGENVECTORS.
  A NEW JOBIPH FILE NAMED 'JOBMIX' IS PREPARED.
********************************************************************************
 
++ Mixed CI coefficients:
  The CI coefficients for the MIXED state nr.   1
--------------------------------------------------------------------------------
 CI COEFFICIENTS LARGER THAN  0.50D-01
  Occupation of active orbitals, and spin coupling
  of open shells. (u,d: Spin up or down).
  SGUGA info is (Midvert:IsyUp:UpperWalk/LowerWalk)
        Conf  SGUGA info        Occupation    Coefficient         Weight
           1  ( 1:1:   1/   1)   22222200       -0.953643       0.909434
           8  ( 1:1:   8/   1)   2222u20d       -0.150265       0.022579
          15  ( 1:1:  15/   1)   22222002        0.106958       0.011440
          64  ( 2:1:   4/   3)   2u22220d       -0.086142       0.007420
          73  ( 2:1:  13/   3)   2u222d02        0.061695       0.003806
          81  ( 2:1:   1/   4)   u22222d0        0.124648       0.015537
         141  ( 3:1:   1/   5)   22022220        0.086184       0.007428
         175  ( 3:1:   5/   8)   20222202        0.087143       0.007594
         191  ( 3:1:   1/  10)   02222220        0.073341       0.005379
 
  The CI coefficients for the MIXED state nr.   2
--------------------------------------------------------------------------------
 CI COEFFICIENTS LARGER THAN  0.50D-01
  Occupation of active orbitals, and spin coupling
  of open shells. (u,d: Spin up or down).
  SGUGA info is (Midvert:IsyUp:UpperWalk/LowerWalk)
        Conf  SGUGA info        Occupation    Coefficient         Weight
           7  ( 1:1:   7/   1)   22222u0d        0.172960       0.029915
          24  ( 2:1:   4/   1)   222u220d       -0.933273       0.870998
          33  ( 2:1:  13/   1)   222u2d02        0.140181       0.019651
          34  ( 2:1:  14/   1)   222ud202       -0.077096       0.005944
         125  ( 3:1:   5/   3)   2u2d2202        0.172974       0.029920
         132  ( 3:1:   2/   4)   u22d22ud        0.060901       0.003709
         213  ( 4:1:   1/   3)   u22u22dd       -0.102504       0.010507
         249  ( 5:1:   1/   4)   220u222d       -0.083308       0.006940
         257  ( 5:1:   1/   6)   u2du222d        0.053113       0.002821
         269  ( 5:1:   1/   9)   022u222d       -0.075625       0.005719
 
  The CI coefficients for the MIXED state nr.   3
--------------------------------------------------------------------------------
 CI COEFFICIENTS LARGER THAN  0.50D-01
  Occupation of active orbitals, and spin coupling
  of open shells. (u,d: Spin up or down).
  SGUGA info is (Midvert:IsyUp:UpperWalk/LowerWalk)
        Conf  SGUGA info        Occupation    Coefficient         Weight
           3  ( 1:1:   3/   1)   2222u2d0        0.905222       0.819427
           6  ( 1:1:   6/   1)   22220220        0.070821       0.005016
          10  ( 1:1:  10/   1)   2222udud        0.060208       0.003625
          11  ( 1:1:  11/   1)   222202ud        0.120467       0.014512
          12  ( 1:1:  12/   1)   2222uudd       -0.072740       0.005291
          18  ( 1:1:  18/   1)   2222u0d2        0.089660       0.008039
          41  ( 2:1:   1/   2)   22u222d0        0.267987       0.071817
          43  ( 2:1:   3/   2)   22u2d220       -0.130787       0.017105
          68  ( 2:1:   8/   3)   2u22u2dd        0.077672       0.006033
          77  ( 2:1:  17/   3)   2u22udd2       -0.063045       0.003975
          83  ( 2:1:   3/   4)   u222d220        0.113169       0.012807
         141  ( 3:1:   1/   5)   22022220       -0.069774       0.004868
         177  ( 3:1:   7/   8)   2022u2d2       -0.089517       0.008013
 
  The CI coefficients for the MIXED state nr.   4
--------------------------------------------------------------------------------
 CI COEFFICIENTS LARGER THAN  0.50D-01
  Occupation of active orbitals, and spin coupling
  of open shells. (u,d: Spin up or down).
  SGUGA info is (Midvert:IsyUp:UpperWalk/LowerWalk)
        Conf  SGUGA info        Occupation    Coefficient         Weight
           7  ( 1:1:   7/   1)   22222u0d       -0.892783       0.797062
           8  ( 1:1:   8/   1)   2222u20d        0.148738       0.022123
          15  ( 1:1:  15/   1)   22222002       -0.178208       0.031758
          24  ( 2:1:   4/   1)   222u220d       -0.169803       0.028833
          64  ( 2:1:   4/   3)   2u22220d        0.120050       0.014412
          73  ( 2:1:  13/   3)   2u222d02        0.218876       0.047906
          85  ( 2:1:   5/   4)   u2222dud        0.060681       0.003682
          87  ( 2:1:   7/   4)   u2222udd       -0.100262       0.010052
         143  ( 3:1:   3/   5)   22022u2d       -0.079723       0.006356
         175  ( 3:1:   5/   8)   20222202        0.110530       0.012217
         193  ( 3:1:   3/  10)   02222u2d       -0.071161       0.005064
 
  The CI coefficients for the MIXED state nr.   5
--------------------------------------------------------------------------------
 CI COEFFICIENTS LARGER THAN  0.50D-01
  Occupation of active orbitals, and spin coupling
  of open shells. (u,d: Spin up or down).
  SGUGA info is (Midvert:IsyUp:UpperWalk/LowerWalk)
        Conf  SGUGA info        Occupation    Coefficient         Weight
           2  ( 1:1:   2/   1)   22222ud0       -0.139167       0.019367
           3  ( 1:1:   3/   1)   2222u2d0       -0.265946       0.070727
           8  ( 1:1:   8/   1)   2222u20d        0.114587       0.013130
          41  ( 2:1:   1/   2)   22u222d0        0.880089       0.774556
          47  ( 2:1:   7/   2)   22u22udd       -0.077924       0.006072
          48  ( 2:1:   8/   2)   22u2u2dd       -0.084649       0.007165
          55  ( 2:1:  15/   2)   22u220d2        0.089219       0.007960
          81  ( 2:1:   1/   4)   u22222d0        0.085704       0.007345
          83  ( 2:1:   3/   4)   u222d220       -0.063934       0.004088
         161  ( 3:1:   1/   7)   u2d22220        0.216786       0.046996
         191  ( 3:1:   1/  10)   02222220       -0.052422       0.002748
         219  ( 4:1:   1/   4)   2uu222dd        0.070768       0.005008
         222  ( 4:1:   4/   4)   2uu22dd2       -0.062025       0.003847
         294  ( 5:1:   2/  15)   20u222d2       -0.086784       0.007531
 
  The CI coefficients for the MIXED state nr.   6
--------------------------------------------------------------------------------
 CI COEFFICIENTS LARGER THAN  0.50D-01
  Occupation of active orbitals, and spin coupling
  of open shells. (u,d: Spin up or down).
  SGUGA info is (Midvert:IsyUp:UpperWalk/LowerWalk)
        Conf  SGUGA info        Occupation    Coefficient         Weight
           2  ( 1:1:   2/   1)   22222ud0       -0.870299       0.757420
          10  ( 1:1:  10/   1)   2222udud        0.201339       0.040537
          12  ( 1:1:  12/   1)   2222uudd        0.063409       0.004021
          19  ( 1:1:  19/   1)   22220ud2        0.050786       0.002579
          21  ( 2:1:   1/   1)   222u22d0        0.297311       0.088394
          25  ( 2:1:   5/   1)   222u2dud       -0.059005       0.003482
          26  ( 2:1:   6/   1)   222ud2ud       -0.067834       0.004601
          27  ( 2:1:   7/   1)   222u2udd        0.082095       0.006740
          28  ( 2:1:   8/   1)   222uu2dd        0.083277       0.006935
          41  ( 2:1:   1/   2)   22u222d0       -0.124971       0.015618
          51  ( 2:1:  11/   2)   22u2ud2d        0.053620       0.002875
          65  ( 2:1:   5/   3)   2u222dud        0.116406       0.013550
          66  ( 2:1:   6/   3)   2u22d2ud        0.069485       0.004828
          67  ( 2:1:   7/   3)   2u222udd       -0.141872       0.020128
          82  ( 2:1:   2/   4)   u2222d20       -0.058362       0.003406
         176  ( 3:1:   6/   8)   20222ud2        0.105086       0.011043
 
  The CI coefficients for the MIXED state nr.   7
--------------------------------------------------------------------------------
 CI COEFFICIENTS LARGER THAN  0.50D-01
  Occupation of active orbitals, and spin coupling
  of open shells. (u,d: Spin up or down).
  SGUGA info is (Midvert:IsyUp:UpperWalk/LowerWalk)
        Conf  SGUGA info        Occupation    Coefficient         Weight
           2  ( 1:1:   2/   1)   22222ud0       -0.307113       0.094319
          10  ( 1:1:  10/   1)   2222udud        0.075247       0.005662
          21  ( 2:1:   1/   1)   222u22d0       -0.824751       0.680214
          25  ( 2:1:   5/   1)   222u2dud        0.149738       0.022421
          26  ( 2:1:   6/   1)   222ud2ud        0.214577       0.046043
          27  ( 2:1:   7/   1)   222u2udd       -0.218896       0.047915
          28  ( 2:1:   8/   1)   222uu2dd       -0.238087       0.056686
          38  ( 2:1:  18/   1)   222u02d2       -0.067130       0.004506
          41  ( 2:1:   1/   2)   22u222d0       -0.059267       0.003513
          67  ( 2:1:   7/   3)   2u222udd       -0.056289       0.003168
         114  ( 3:1:   4/   2)   22udu22d        0.071034       0.005046
         131  ( 3:1:   1/   4)   u22d2220       -0.061416       0.003772
         211  ( 4:1:   5/   2)   2u2ud2d2       -0.050347       0.002535
         262  ( 5:1:   2/   7)   202u22d2        0.066380       0.004406
 
--
 
--- Stop Module: caspt2 at Tue Jun 10 22:03:06 2025 /rc=_RC_ALL_IS_WELL_ ---
*** files: xmldump
    saved to directory /home/pcaah4/diamide_project
--- Module caspt2 spent 7 minutes 7 seconds ---

.##################.
.# Happy landing! #.
.##################.

    Timing: Wall=688.79 User=597.65 System=81.83
******************************************************
*** WorkDir at /srv/COMMUNAL_SCRATCH/12488 cleaned ***
******************************************************
