   This run of MOLCAS is using the pymolcas driver

                             OPE
                             OPE          NMOL  CASOP  ENMOLC A   SO
                 OPE        NMOLC        AS  OP EN  MO LC     AS  OP
                OPENM       OL CA        SO  PE NM  OL CA     SOP EN
                OP EN      MO   LC       AS  OP ENMOL  CASO   PENMOL
                OP  EN     MO   LC       AS  OP EN     MO     LC ASO
               OP   E  NMOL  C  AS       OP  EN MO     LC     AS  OP
               OP  E   NMO   LC AS        OPEN  MO     LCASOP EN   M
               O  PEN   MO  LCA  SO
            OPE   NMO   L   CAS    OP
        OPENMOL  CASOP     ENMOL   CASOPE
     OPENMOLCA   SOPENMOLCASOPEN   MOLCASOPE
    OPENMOLCAS   OP           EN   MOL    CAS
    OPENMOLCAS       OP  ENM        O     LCA
    OPENMOLCAS    OPEN  MOLCASO     P  E  NMO
    OPENMOLCAS     OP               E  N  MOL
    OPENMOLCA   SO           PENM   O  L  CAS    OPEN    MO    LCAS
    OPENMOLCA   SOP           ENM   O  L  CAS   OP  EN  MOLC  AS   O
    OPENMOLCA   SOPE           NM      O  LCA   S      OP  EN MO
    OPENMOLC                AS         O  PEN   M      OL  CA  SOPE
    OPENMO        LCASOPE  NMOL        C  ASO   P      ENMOLC     AS
    OPE     NMO      LCA  SO     P     E   NM   OL  CA SO  PE N   MO
          OPENMOLCA            SOPE   NMO        LCAS  O    P  ENMO
     OPENMOLCASOPENMOLCASOPENMOLCASOPENMOLCA
        OPENMOLCASOPENMOLCASOPENMOLCASOPE
            OPENMOLCASOPENMOLCASOPENM
               OPENMOLCASOPENMOLCA        version: v23.06
                   OPENMOLCASO
                       OPE                tag:

 OpenMolcas is free software; you can redistribute it and/or modify it
 under the terms of the GNU Lesser General Public License version 2.1.
 OpenMolcas is distributed in the hope that it will be useful, but it
 is provided "as is" and without any express or implied warranties.
 For more details see the full text of the license in the file
 LICENSE or in <http://www.gnu.org/licenses/>.

                 Copyright (C) The OpenMolcas Authors
           For the author list and the recommended citation,
                   consult the file CONTRIBUTORS.md

           *************************************************
           * pymolcas version py2.24                       *
           *   build 4567b286dd94b1984b333a4ddf893180      *
           *   (after the EMIL interpreter by V. Veryazov) *
           *************************************************

configuration info
------------------
Host name: loginchem01.nottingham.ac.uk (Linux)
C Compiler ID: Intel
C flags: -std=gnu99 -gcc-sys -qopenmp
Fortran Compiler ID: Intel
Fortran flags: -fpp -i8 -heap-arrays -qopenmp
Definitions: _MOLCAS_;_I8_;_LINUX_
Parallel: OFF (GA=OFF)


   ----------------------------------------------------------------------------------------------------
  |
  |              Project: orca_geometry_optimisation_285_315_BP86_def2-SVP_def2J_scf_cas1_ras12i11_cas8
  |       Submitted from: /home/pcaah4/diamide_project
  |         Scratch area: /srv/COMMUNAL_SCRATCH/12444
  |      Save outputs to: /home/pcaah4/diamide_project
  |               Molcas: /software/chemistry/openmolcas/openmolcas-23.06-openmp
  |
  | Scratch area is empty
  |
  |       MOLCAS_DRIVER = /software/chemistry/openmolcas/openmolcas-23.06-openmp/sbin/pymolcas
  | MOLCAS_KEEP_WORKDIR = NO
  |       MOLCAS_NPROCS = 1
  |       MOLCAS_SOURCE = /software/chemistry/openmolcas/openmolcas-23.06-openmp
  |    MOLCAS_STRUCTURE = 0
  |
   ----------------------------------------------------------------------------------------------------

++ ---------   Input file   ---------

&SEWARD
TITLE
orca_geometry_optimisation_285_315_BP86_def2-SVP_def2J_scf_cas1_ras12i11
MULTIPOLES
2
SDIPOLE
ANGMOM
0 0 0
BASIS SET
C.ANO-S...4S3P1D.
C1            0.003187   -0.085058   -0.002150 /Angstrom
C3            2.204430    1.015752   -0.190651 /Angstrom
C4            2.139293    1.803858   -1.519550 /Angstrom
C6            2.139131    1.563937   -3.980739 /Angstrom
C19          -0.727256   -1.404125    0.231954 /Angstrom
END OF BASIS
BASIS SET
N.ANO-S...4S3P1D.
N2            1.377175   -0.184159   -0.146637 /Angstrom
N5            2.220369    1.013025   -2.641201 /Angstrom
END OF BASIS
BASIS SET
O.ANO-S...4S3P1D.
O7           -0.574593    0.994350   -0.065435 /Angstrom
O8            2.155265    3.029914   -1.537731 /Angstrom
END OF BASIS
BASIS SET
H.ANO-S...2S1P.
H9           -1.589825   -1.458277   -0.460102 /Angstrom
H10          -1.140094   -1.406740    1.261372 /Angstrom
H11          -0.095840   -2.304783    0.098264 /Angstrom
H12           1.822824   -1.075239    0.077804 /Angstrom
H13           1.895415    1.737780    0.592434 /Angstrom
H14           3.258813    0.725072   -0.008148 /Angstrom
H15           2.044824    0.014727   -2.504781 /Angstrom
H16           1.163075    1.349095   -4.468500 /Angstrom
H17           2.251076    2.661219   -3.888953 /Angstrom
H18           2.951016    1.170714   -4.628275 /Angstrom
END OF BASIS
END OF INPUT

&RASSCF
TITLE
orca_geometry_optimisation_285_315_BP86_def2-SVP_def2J_scf_cas1_ras12i11
LUMORB
SPIN
1
SYMMETRY
1
NACTEL
12  0  0
INACTIVE
29
DELETED  ! delete Rydberg orbitals from an initial CAS(12,11) if done
3
FROZEN
0
RAS2
8
ITERATIONS
64 25
CIROOT
7 7
1 2 3 4 5 6 7
1 1 1 1 1 1 1
LEVSHFT
0.3
CIMX
20
FILEorb = /home/pcaah4/diamide_project/cas/ras12i11/ras_orb/orca_geometry_optimisation_285_315_BP86_def2-SVP_def2J_scf_cas1_ras12i11.RasOrb
ALTEr
2
 1 36 38
 1 37 40
END OF INPUT

&RASSI
NROF JOBIPH
    1 7
    1 2 3 5 4 6 7
TOFILE
TRDI
TDMN
1.0D-6
END OF INPUT

&CASPT2
TITLE
orca_geometry_optimisation_285_315_BP86_def2-SVP_def2J_scf_cas1_ras12i11
MULTISTATE
7 1 2 3 4 5 6 7
SHIFT
0.35
MAXITER
50
END OF INPUT

-- ----------------------------------

--- Start Module: seward at Tue Jun 10 20:12:46 2025 ---
 
()()()()()()()()()()()()()()()()()()()()()()()()()()()()()()()()()()()()()()()()()()()()()()()()()()

                                              &SEWARD

                                   only a single process is used
                       available to each process: 2.0 GB of memory, 1 thread
                                            pid: 3126178
()()()()()()()()()()()()()()()()()()()()()()()()()()()()()()()()()()()()()()()()()()()()()()()()()()
 
               SEWARD will generate:
                  Multipole Moment integrals up to order  2
                  Kinetic Energy integrals
                  Nuclear Attraction integrals (point charge)
                  One-Electron Hamiltonian integrals
                  Velocity integrals
                  Orbital angular momentum around ( 0.0000  0.0000  0.0000 )
                  Velocity quadrupole around ( 2.2871  1.6291 -2.0957 )
                  Two-Electron Repulsion integrals
 
 Title:
            orca_geometry_optimisation_285_315_BP86_def2-SVP_def2J_scf_cas1_ras12i11    
 
 
                   Integrals are discarded if absolute value <: 0.10E-13
                   Integral cutoff threshold is set to       <: 0.10E-15
 
++    Symmetry information:
      ---------------------
 
                    Character Table for C1 
 
                             E  
                    a        1  x, y, xy, Rz, z, xz, Ry, yz, Rx, I
--
 
 
++    Basis set information:
      ----------------------
 
 
      Basis set label: C.ANO-S...4S3P1D......
 
      Electronic valence basis set:
      ------------------
      Associated Effective Charge   6.000000 au
      Associated Actual Charge      6.000000 au
      Nuclear Model: Point charge
 
      Shell  nPrim  nBasis  Cartesian Spherical Contaminant
         s      10       4        X                  
         p       6       3        X                  
         d       3       1                 X         
 
 
      Basis set label: N.ANO-S...4S3P1D......
 
      Electronic valence basis set:
      ------------------
      Associated Effective Charge   7.000000 au
      Associated Actual Charge      7.000000 au
      Nuclear Model: Point charge
 
      Shell  nPrim  nBasis  Cartesian Spherical Contaminant
         s      10       4        X                  
         p       6       3        X                  
         d       3       1                 X         
 
 
      Basis set label: O.ANO-S...4S3P1D......
 
      Electronic valence basis set:
      ------------------
      Associated Effective Charge   8.000000 au
      Associated Actual Charge      8.000000 au
      Nuclear Model: Point charge
 
      Shell  nPrim  nBasis  Cartesian Spherical Contaminant
         s      10       4        X                  
         p       6       3        X                  
         d       3       1                 X         
 
 
      Basis set label: H.ANO-S...2S1P......
 
      Electronic valence basis set:
      ------------------
      Associated Effective Charge   1.000000 au
      Associated Actual Charge      1.000000 au
      Nuclear Model: Point charge
 
      Shell  nPrim  nBasis  Cartesian Spherical Contaminant
         s       7       2        X                  
         p       3       1        X                  
--
 
 
++    Molecular structure info:
      -------------------------
 
                    ************************************************ 
                    **** Cartesian Coordinates / Bohr, Angstrom **** 
                    ************************************************ 
 
     Center  Label                x              y              z                     x              y              z
        1      C1               0.006023      -0.160736      -0.004063              0.003187      -0.085058      -0.002150
        2      C3               4.165769       1.919493      -0.360278              2.204430       1.015752      -0.190651
        3      C4               4.042678       3.408798      -2.871533              2.139293       1.803858      -1.519550
        4      C6               4.042372       2.955413      -7.522506              2.139131       1.563937      -3.980739
        5      C19             -1.374315      -2.653412       0.438330             -0.727256      -1.404125       0.231954
        6      N2               2.602484      -0.348010      -0.277104              1.377175      -0.184159      -0.146637
        7      N5               4.195889       1.914340      -4.991147              2.220369       1.013025      -2.641201
        8      O7              -1.085823       1.879049      -0.123654             -0.574593       0.994350      -0.065435
        9      O8               4.072861       5.725708      -2.905890              2.155265       3.029914      -1.537731
       10      H9              -3.004334      -2.755744      -0.869467             -1.589825      -1.458277      -0.460102
       11      H10             -2.154465      -2.658353       2.383648             -1.140094      -1.406740       1.261372
       12      H11             -0.181111      -4.355409       0.185692             -0.095840      -2.304783       0.098264
       13      H12              3.444638      -2.031907       0.147028              1.822824      -1.075239       0.077804
       14      H13              3.581815       3.283928       1.119538              1.895415       1.737780       0.592434
       15      H14              6.158264       1.370188      -0.015397              3.258813       0.725072      -0.008148
       16      H15              3.864157       0.027830      -4.733350              2.044824       0.014727      -2.504781
       17      H16              2.197893       2.549420      -8.444241              1.163075       1.349095      -4.468500
       18      H17              4.253917       5.028975      -7.349056              2.251076       2.661219      -3.888953
       19      H18              5.576612       2.212329      -8.746172              2.951016       1.170714      -4.628275
 
                    ************************************************* 
                    **** InterNuclear Distances / Bohr, Angstrom **** 
                    ************************************************* 
 
     Atom centers         Bohr        Angstrom
   13 H12       6 N2      1.929928        1.021274
   16 H15       7 N5      1.932725        1.022754
   18 H17       4 C6      2.091530        1.106790
   10 H9        5 C19     2.092311        1.107203
   12 H11       5 C19     2.093885        1.108036
   15 H14       2 C3      2.095404        1.108840
   14 H13       2 C3      2.095839        1.109070
   11 H10       5 C19     2.095930        1.109118
   19 H18       4 C6      2.098434        1.110443
   17 H16       4 C6      2.101553        1.112094
    8 O7        1 C1      2.316712        1.225951
    9 O8        3 C4      2.317361        1.226295
    7 N5        3 C4      2.598007        1.374806
    6 N2        1 C1      2.617486        1.385114
    7 N5        4 C6      2.741383        1.450678
    6 N2        2 C3      2.755422        1.458106
    5 C19       1 C1      2.883483        1.525873
    3 C4        2 C3      2.922256        1.546391
   11 H10      10 H9      3.363705        1.779996
   18 H17      17 H16     3.402184        1.800358
   15 H14      14 H13     3.404199        1.801425
   12 H11      11 H10     3.406631        1.802711
   19 H18      17 H16     3.408890        1.803907
   19 H18      18 H17     3.411004        1.805026
   12 H11      10 H9      3.412165        1.805640
   16 H15       3 C4      3.863829        2.044650
   18 H17       7 N5      3.906924        2.067455
   13 H12       1 C1      3.917676        2.073145
   15 H14       6 N2      3.957811        2.094383
   19 H18       7 N5      4.011909        2.123011
   14 H13       6 N2      4.012565        2.123358
   14 H13       3 C4      4.019532        2.127045
   17 H16       7 N5      4.039700        2.137717
   16 H15       4 C6      4.047455        2.141821
   13 H12       2 C3      4.048574        2.142413
   10 H9        1 C1      4.067583        2.152472
   11 H10       1 C1      4.075164        2.156484
   15 H14       3 C4      4.097456        2.168280
   12 H11       1 C1      4.203130        2.224201
   13 H12      12 H11     4.306531        2.278918
    8 O7        6 N2      4.311258        2.281420
    9 O8        7 N5      4.346257        2.299940
   15 H14      13 H12     4.354813        2.304468
   18 H17       9 O8      4.501104        2.381882
    8 O7        5 C19     4.576271        2.421658
    9 O8        2 C3      4.579961        2.423611
    7 N5        2 C3      4.630969        2.450603
   16 H15       6 N2      4.646634        2.458893
    6 N2        5 C19     4.652058        2.461763
    2 C3        1 C1      4.664519        2.468357
    4 C6        3 C4      4.673019        2.472855
   14 H13       9 O8      4.733655        2.504942
   18 H17       3 C4      4.766320        2.522228
   16 H15       2 C3      4.774214        2.526405
   17 H16      16 H15     4.785976        2.532629
    6 N2        3 C4      4.787361        2.533362
   13 H12       5 C19     4.867590        2.575818
   19 H18      16 H15     4.879270        2.581999
   12 H11       6 N2      4.901206        2.593607
   14 H13       8 O7      5.030513        2.662033
   10 H9        8 O7      5.071314        2.683624
   14 H13       1 C1      5.090627        2.693844
    8 O7        2 C3      5.257076        2.781925
   11 H10       8 O7      5.293069        2.800972
   16 H15      13 H12     5.313813        2.811949
   15 H14       7 N5      5.376346        2.845040
    9 O8        4 C6      5.384107        2.849147
   14 H13      13 H12     5.405802        2.860627
   16 H15      15 H14     5.415157        2.865578
    7 N5        6 N2      5.466202        2.892590
   15 H14       9 O8      5.628003        2.978211
   18 H17      16 H15     5.657321        2.993725
--
 
 
            Nuclear Potential Energy            458.79153521 au
 
 
      Basis set specifications :
      Symmetry species         a  
      Basis functions          212
 
 
      Input file to MOLDEN was generated!
 
--- Stop Module: seward at Tue Jun 10 20:14:37 2025 /rc=_RC_ALL_IS_WELL_ ---
*** files: orca_geometry_optimisation_285_315_BP86_def2-SVP_def2J_scf_cas1_ras12i11_cas8.GssOrb
           orca_geometry_optimisation_285_315_BP86_def2-SVP_def2J_scf_cas1_ras12i11_cas8.guessorb.molden xmldump
    saved to directory /home/pcaah4/diamide_project
--- Module seward spent 1 minute 50 seconds ---

*** symbolic link created: INPORB -> orca_geometry_optimisation_285_315_BP86_def2-SVP_def2J_scf_cas1_ras12i11_cas8.GssOrb
--- Start Module: rasscf at Tue Jun 10 20:14:37 2025 ---
 
()()()()()()()()()()()()()()()()()()()()()()()()()()()()()()()()()()()()()()()()()()()()()()()()()()

                                              &RASSCF

                                   only a single process is used
                       available to each process: 2.0 GB of memory, 1 thread
                                            pid: 3126206
()()()()()()()()()()()()()()()()()()()()()()()()()()()()()()()()()()()()()()()()()()()()()()()()()()
 
 
      Header of the ONEINT file:
      --------------------------
      orca_geometry_optimisation_285_315_BP86_def2-SVP_def2J_scf_cas1_ras12i11
      Integrals generated by Gateway/Seward, Tue Jun 10 20:12:47 2025
 
 
      OrdInt status: non-squared
 
 
      Cartesian coordinates in Angstrom:
      -----------------------------------------------------
      No.  Label        X            Y            Z        
      -----------------------------------------------------
       1   C1         0.00318700  -0.08505800  -0.00215000
       2   C3         2.20443000   1.01575200  -0.19065100
       3   C4         2.13929300   1.80385800  -1.51955000
       4   C6         2.13913100   1.56393700  -3.98073900
       5   C19       -0.72725600  -1.40412500   0.23195400
       6   N2         1.37717500  -0.18415900  -0.14663700
       7   N5         2.22036900   1.01302500  -2.64120100
       8   O7        -0.57459300   0.99435000  -0.06543500
       9   O8         2.15526500   3.02991400  -1.53773100
      10   H9        -1.58982500  -1.45827700  -0.46010200
      11   H10       -1.14009400  -1.40674000   1.26137200
      12   H11       -0.09584000  -2.30478300   0.09826400
      13   H12        1.82282400  -1.07523900   0.07780400
      14   H13        1.89541500   1.73778000   0.59243400
      15   H14        3.25881300   0.72507200  -0.00814800
      16   H15        2.04482400   0.01472700  -2.50478100
      17   H16        1.16307500   1.34909500  -4.46850000
      18   H17        2.25107600   2.66121900  -3.88895300
      19   H18        2.95101600   1.17071400  -4.62827500
      -----------------------------------------------------
      Nuclear repulsion energy =  458.79153521
 
++    Wave function specifications:
      -----------------------------
 
      Number of closed shell electrons          58
      Number of electrons in active shells      12
      Max number of holes in RAS1 space          0
      Max nr of electrons in RAS3 space          0
      Number of inactive orbitals               29
      Number of active orbitals                  8
      Number of secondary orbitals             172
      Spin quantum number                      0.0
      State symmetry                             1
--
 
++    Orbital specifications:
      -----------------------
 
      Symmetry species                           1
                                                 a
      Frozen orbitals                            0
      Inactive orbitals                         29
      Active orbitals                            8
      RAS1 orbitals                              0
      RAS2 orbitals                              8
      RAS3 orbitals                              0
      Secondary orbitals                       172
      Deleted orbitals                           3
      Number of basis functions                212
--
 
++    CI expansion specifications:
      ----------------------------
 
      Number of CSFs                           336
      Number of determinants                   406
      Number of root(s) required                 7
      Root chosen for geometry opt.              7
      CI roots used                              1     2     3     4     5     6     7
      weights                                0.143 0.143 0.143 0.143 0.143 0.143 0.143
      highest root included in the CI            7
      max. size of the explicit Hamiltonian    200
--
 
++    Optimization specifications:
      ----------------------------
 
      RASSCF algorithm: Conventional
      Maximum number of macro iterations        64
      Maximum number of SX iterations           25
      Threshold for RASSCF energy            0.100E-07
      Threshold for max MO rotation          0.100E+00
      Threshold for max BLB element          0.100E-03
      Level shift parameter                  0.300E+00
      Make Quasi-Newton update
--
 
      The MO-coefficients are taken from the file:
      /home/pcaah4/diamide_project/cas/ras12i11/ras_orb/orca_geometry_optimisation_285_315_BP86_def2-SVP_def2J_scf_cas1_ras12i11.RasOrb                                                                                                                               
      Title: RASSCF average (pseudo-natural) orbitals                                      
 
      Total molecular charge    0.00
 
      Molecular orbitals exchanged:
        In symmetry  1 :  36  38
        In symmetry  1 :  37  40
 
 
      ************************************************************************************************************************
      *                                                                                                                      *
      *                                            Wave function control section                                             *
      *                                                                                                                      *
      ************************************************************************************************************************
 
 
                                         RASSCF iterations: Energy and convergence statistics
                                         ----------------------------------------------------
 
      Iter CI   SX   CI       RASSCF       Energy    max ROT     max BLB   max BLB  Level Ln srch  Step   QN   Walltime
          iter iter root      energy       change     param      element    value   shift minimum  type update hh:mm:ss
 Nr of preliminary CI iterations:   4
        1   1   25    0  -453.68530824    0.00E+00  -0.97E-01   37  38 1 -0.18E-01*  0.15   0.00    SX    NO    0:00:13
        2   7   17    0  -453.69962621   -0.14E-01*  0.61E-01   37  38 1 -0.11E-01*  0.14   0.00    SX    NO    0:00:06
        3   3   11    0  -453.70209764   -0.25E-02*  0.34E-01   37  38 1 -0.61E-02*  0.15   0.00    SX    NO    0:00:06
        4   6   11    0  -453.70322582   -0.11E-02*  0.20E-01   33  39 1 -0.39E-02*  0.15   0.00    SX    NO    0:00:06
        5   6   11    0  -453.70360907   -0.38E-03*  0.48E-01   37  38 1 -0.22E-02*  0.16   1.53    QN   YES    0:00:06
        6   7   10    0  -453.70401545   -0.41E-03*  0.11E-01   33  39 1  0.19E-02*  0.17   0.81    QN   YES    0:00:07
        7   4   10    0  -453.70399241    0.23E-04*  0.48E-02   10  84 1 -0.22E-02*  0.16   0.38    LS   YES    0:00:06
        8   6   10    0  -453.70402175   -0.29E-04*  0.70E-02   24  67 1  0.78E-03*  0.16   2.50    LS   YES    0:00:06
        9   7   10    0  -453.70401153    0.10E-04*  0.60E-02   33  39 1  0.20E-02*  0.17   0.47    QN   YES    0:00:06
       10   5   10    0  -453.70405046   -0.39E-04*  0.78E-02   24  67 1  0.91E-03*  0.17   1.76    QN   YES    0:00:06
       11   4    9    0  -453.70407579   -0.25E-04*  0.20E-02   33  39 1 -0.64E-03*  0.17   0.79    QN   YES    0:00:06
       12   7    9    0  -453.70408275   -0.70E-05*  0.87E-03   33  39 1 -0.35E-03*  0.17   1.30    QN   YES    0:00:06
       13   6    8    0  -453.70408466   -0.19E-05*  0.10E-02   20 100 1  0.74E-04   0.17   1.17    QN   YES    0:00:06
       14   6    8    0  -453.70408546   -0.80E-06*  0.49E-03   10  84 1 -0.63E-04   0.17   1.07    QN   YES    0:00:06
       15   7    7    0  -453.70408569   -0.23E-06*  0.53E-03   10  84 1 -0.36E-04   0.17   1.12    QN   YES    0:00:06
       16   6    7    0  -453.70408577   -0.76E-07*  0.36E-03   10  84 1  0.34E-04   0.17   0.76    QN   YES    0:00:06
       17   5    7    0  -453.70408577   -0.66E-08   0.17E-03   10  84 1 -0.41E-04   0.17   0.51    LS   YES    0:00:06
      Convergence after 17 iterations
       18   3    7    0  -453.70408578   -0.94E-08   0.17E-03   33  39 1  0.13E-04   0.17   0.51    LS   YES    0:00:06
 
      ************************************************************************************************************************
                                                      Wave function printout:
                       occupation of active orbitals, and spin coupling of open shells (u,d: Spin up or down)
      ************************************************************************************************************************
 
      Note: transformation to natural orbitals
      has been made, which may change the order of the CSFs.
 
      printout of CI-coefficients larger than  0.05 for root  1
      energy=    -453.958032
      conf/sym  11111111     Coeff  Weight
             1  22222200   0.95321 0.90861
             7  22222u0d   0.12066 0.01456
            15  22222002  -0.09363 0.00877
            24  222u220d  -0.10052 0.01010
            64  2u22220d  -0.08765 0.00768
            73  2u222d02   0.07287 0.00531
            81  u22222d0   0.11119 0.01236
           141  22022220  -0.08217 0.00675
           161  u2d22220   0.05977 0.00357
           175  20222202  -0.08946 0.00800
           191  02222220  -0.07695 0.00592
 
      printout of CI-coefficients larger than  0.05 for root  2
      energy=    -453.750619
      conf/sym  11111111     Coeff  Weight
             8  2222u20d   0.95292 0.90807
            16  2222ud02  -0.12999 0.01690
            34  222ud202  -0.08137 0.00662
            74  2u22d202   0.15921 0.02535
            86  u222d2ud   0.06041 0.00365
            88  u222u2dd  -0.09864 0.00973
           144  2202u22d   0.08386 0.00703
           164  u2d2u22d  -0.05864 0.00344
           194  0222u22d   0.07685 0.00591
 
      printout of CI-coefficients larger than  0.05 for root  3
      energy=    -453.745694
      conf/sym  11111111     Coeff  Weight
             2  22222ud0  -0.14041 0.01971
            21  222u22d0   0.91275 0.83311
            25  222u2dud   0.06360 0.00404
            27  222u2udd  -0.07917 0.00627
            35  222u20d2   0.09238 0.00853
            41  22u222d0   0.20777 0.04317
           101  22202220  -0.05340 0.00285
           102  222022ud  -0.08793 0.00773
           111  22ud2220   0.15569 0.02424
           131  u22d2220  -0.12130 0.01471
           207  2u2u22dd  -0.08089 0.00654
           210  2u2u2dd2   0.05635 0.00318
           262  202u22d2  -0.08352 0.00698
 
      printout of CI-coefficients larger than  0.05 for root  4
      energy=    -453.640250
      conf/sym  11111111     Coeff  Weight
             2  22222ud0  -0.10626 0.01129
             3  2222u2d0   0.47453 0.22518
             7  22222u0d  -0.10242 0.01049
            12  2222uudd   0.06750 0.00456
            21  222u22d0   0.17000 0.02890
            24  222u220d  -0.08347 0.00697
            41  22u222d0  -0.77346 0.59824
            45  22u22dud  -0.05645 0.00319
            47  22u22udd   0.09565 0.00915
            55  22u220d2  -0.08311 0.00691
            81  u22222d0  -0.09555 0.00913
           161  u2d22220   0.18019 0.03247
           191  02222220  -0.05836 0.00341
           201  22uu22dd  -0.05297 0.00281
           219  2uu222dd   0.07513 0.00564
           222  2uu22dd2  -0.05503 0.00303
           294  20u222d2   0.07259 0.00527
 
      printout of CI-coefficients larger than  0.05 for root  5
      energy=    -453.625665
      conf/sym  11111111     Coeff  Weight
             1  22222200   0.09469 0.00897
             2  22222ud0   0.08620 0.00743
             3  2222u2d0  -0.20412 0.04166
             7  22222u0d  -0.88326 0.78015
            12  2222uudd  -0.06185 0.00383
            15  22222002  -0.16114 0.02597
            24  222u220d  -0.10917 0.01192
            64  2u22220d  -0.11183 0.01251
            73  2u222d02  -0.23094 0.05334
            85  u2222dud  -0.05544 0.00307
            87  u2222udd   0.09110 0.00830
           143  22022u2d  -0.07675 0.00589
           163  u2d22u2d   0.05675 0.00322
           175  20222202   0.09053 0.00820
           193  02222u2d  -0.07158 0.00512
 
      printout of CI-coefficients larger than  0.05 for root  6
      energy=    -453.610016
      conf/sym  11111111     Coeff  Weight
             2  22222ud0  -0.88736 0.78741
             3  2222u2d0  -0.27204 0.07400
            10  2222udud   0.05936 0.00352
            12  2222uudd  -0.07858 0.00618
            21  222u22d0  -0.12289 0.01510
            25  222u2dud  -0.14522 0.02109
            26  222ud2ud  -0.05469 0.00299
            28  222uu2dd  -0.06057 0.00367
            41  22u222d0  -0.07576 0.00574
            42  22u22d20   0.05099 0.00260
            65  2u222dud  -0.15127 0.02288
            67  2u222udd   0.14543 0.02115
           176  20222ud2   0.10998 0.01209
 
      printout of CI-coefficients larger than  0.05 for root  7
      energy=    -453.598325
      conf/sym  11111111     Coeff  Weight
             2  22222ud0  -0.25764 0.06638
             3  2222u2d0   0.68479 0.46894
             7  22222u0d  -0.17708 0.03136
            10  2222udud  -0.14943 0.02233
            12  2222uudd   0.21593 0.04663
            15  22222002  -0.05558 0.00309
            21  222u22d0  -0.12715 0.01617
            25  222u2dud  -0.05838 0.00341
            26  222ud2ud   0.16427 0.02698
            28  222uu2dd   0.18197 0.03311
            41  22u222d0   0.46474 0.21598
            64  2u22220d  -0.06342 0.00402
            65  2u222dud  -0.05664 0.00321
            67  2u222udd   0.05500 0.00302
           161  u2d22220  -0.09769 0.00954
           177  2022u2d2  -0.05140 0.00264
           203  22uud22d  -0.05700 0.00325
 
      Natural orbitals and occupation numbers for root  1
      sym 1:   1.996164   1.961250   1.996495   1.999598   1.999745   1.949654   0.042662   0.054432
 
      Natural orbitals and occupation numbers for root  2
      sym 1:   1.961542   1.999532   1.995708   1.999418   1.005619   1.999943   0.042800   0.995439
 
      Natural orbitals and occupation numbers for root  3
      sym 1:   1.999907   1.995975   1.999820   1.001568   1.999437   1.950290   0.998914   0.054090
 
      Natural orbitals and occupation numbers for root  4
      sym 1:   1.975193   1.988563   1.107580   1.984952   1.966049   1.931421   0.948954   0.097287
 
      Natural orbitals and occupation numbers for root  5
      sym 1:   1.963938   1.960091   1.996025   1.995397   1.955139   1.128463   0.085904   0.915043
 
      Natural orbitals and occupation numbers for root  6
      sym 1:   1.999688   1.980987   1.994317   1.989967   1.908802   1.014523   1.004315   0.107401
 
      Natural orbitals and occupation numbers for root  7
      sym 1:   1.992381   1.976056   1.915865   1.962298   1.156885   1.897612   0.928752   0.170150
 
      ************************************************************************************************************************
      *                                                                                                                      *
      *                                                    Final results                                                     *
      *                                                                                                                      *
      ************************************************************************************************************************
 
 
++    Wave function specifications:
      -----------------------------
 
      Number of closed shell electrons          58
      Number of electrons in active shells      12
      Max number of holes in RAS1 space          0
      Max nr of electrons in RAS3 space          0
      Number of inactive orbitals               29
      Number of active orbitals                  8
      Number of secondary orbitals             172
      Spin quantum number                      0.0
      State symmetry                             1
--
 
++    Orbital specifications:
      -----------------------
 
      Symmetry species                           1
                                                 a
      Frozen orbitals                            0
      Inactive orbitals                         29
      Active orbitals                            8
      RAS1 orbitals                              0
      RAS2 orbitals                              8
      RAS3 orbitals                              0
      Secondary orbitals                       172
      Deleted orbitals                           3
      Number of basis functions                212
--
 
++    CI expansion specifications:
      ----------------------------
 
      Number of CSFs                           336
      Number of determinants                   406
      Number of root(s) required                 7
      CI roots used                              1     2     3     4     5     6     7
      weights                                0.143 0.143 0.143 0.143 0.143 0.143 0.143
      highest root included in the CI            7
      Root passed to geometry opt.               7
--
 
++    Final optimization conditions:
      ------------------------------
 
      Average CI energy                            -453.70408578
      RASSCF energy for state  7                   -453.59832454
      Super-CI energy                                -0.00000004
      RASSCF energy change                            0.00000000
      Max change in MO coefficients               0.145E-03
      Max non-diagonal density matrix element     0.175E-03
      Maximum BLB matrix element                  0.131E-04
      (orbital pair  33,  39 in symmetry   1)
      Norm of electronic gradient            0.237E+00
--
 
 
      Final state energy(ies):
      ------------------------
 
::    RASSCF root number  1 Total energy:   -453.95803164
::    RASSCF root number  2 Total energy:   -453.75061942
::    RASSCF root number  3 Total energy:   -453.74569416
::    RASSCF root number  4 Total energy:   -453.64025015
::    RASSCF root number  5 Total energy:   -453.62566502
::    RASSCF root number  6 Total energy:   -453.61001555
::    RASSCF root number  7 Total energy:   -453.59832454
 
++    Molecular orbitals:
      -------------------
 
      Pseudonatural active orbitals and approximate occupation numbers
 
 
 
 
      Molecular orbitals for symmetry species 1: a  
 
 
      Orbital                 1         2         3         4         5         6         7         8         9        10
      Energy           -20.5987  -20.5152  -15.6358  -15.5930  -11.3388  -11.2924  -11.2920  -11.2735  -11.2246   -1.4238
      Occ. No.           2.0000    2.0000    2.0000    2.0000    2.0000    2.0000    2.0000    2.0000    2.0000    2.0000
 
     1 C1     1s        -0.0001    0.0002    0.0000    0.0003   -0.0001   -0.0007   -0.0000    0.9999    0.0062    0.0006
     2 C1     2s        -0.0004    0.0004    0.0001    0.0010   -0.0006   -0.0009   -0.0000    0.0021    0.0003    0.0305
     3 C1     3s        -0.0003   -0.0008    0.0000    0.0004   -0.0004   -0.0008   -0.0000   -0.0002    0.0006    0.0139
     4 C1     4s        -0.0001   -0.0005   -0.0000    0.0001   -0.0001   -0.0003   -0.0000    0.0014    0.0002    0.0044
     5 C1     2px       -0.0002   -0.0010   -0.0004    0.0018   -0.0001    0.0000   -0.0002    0.0018    0.0003    0.0158
     6 C1     3px       -0.0001   -0.0007   -0.0005    0.0014   -0.0001   -0.0003   -0.0003    0.0019   -0.0002    0.0162
     7 C1     4px        0.0000    0.0001   -0.0001   -0.0000   -0.0000   -0.0003   -0.0000    0.0007   -0.0002    0.0022
     8 C1     2py        0.0001    0.0030   -0.0006   -0.0000   -0.0002    0.0002   -0.0002    0.0004    0.0007    0.0195
     9 C1     3py        0.0000    0.0021   -0.0007   -0.0001   -0.0003   -0.0002   -0.0003    0.0005   -0.0001    0.0200
    10 C1     4py       -0.0000   -0.0004   -0.0001   -0.0000   -0.0001   -0.0003   -0.0001    0.0006   -0.0003    0.0047
    11 C1     2pz       -0.0001   -0.0003    0.0001   -0.0001    0.0001   -0.0001    0.0002   -0.0003   -0.0001   -0.0044
    12 C1     3pz       -0.0001   -0.0002    0.0002   -0.0001    0.0001   -0.0000    0.0003   -0.0004    0.0001   -0.0042
    13 C1     4pz       -0.0000    0.0000    0.0000   -0.0000    0.0000    0.0000    0.0001   -0.0002    0.0001   -0.0009
    14 C1     3d2-      -0.0000    0.0001    0.0000    0.0001   -0.0000    0.0000    0.0000   -0.0003   -0.0001   -0.0007
    15 C1     3d1-      -0.0000   -0.0000    0.0000   -0.0000    0.0000    0.0000    0.0000   -0.0000   -0.0000   -0.0002
    16 C1     3d0       -0.0000   -0.0000    0.0000    0.0001    0.0000   -0.0001    0.0000   -0.0003   -0.0001   -0.0015
    17 C1     3d1+       0.0000   -0.0000    0.0000    0.0001    0.0000   -0.0000    0.0000    0.0000   -0.0000   -0.0005
    18 C1     3d2+      -0.0000    0.0001   -0.0000   -0.0001    0.0000    0.0000    0.0000   -0.0001    0.0000    0.0005
    19 C3     1s         0.0001    0.0003    0.0000    0.0004    0.0059    0.9994   -0.0035    0.0005   -0.0000   -0.0118
    20 C3     2s         0.0004    0.0018    0.0001    0.0021   -0.0003   -0.0016    0.0007    0.0000   -0.0003    0.0102
    21 C3     3s         0.0003    0.0011    0.0002    0.0010   -0.0003   -0.0028    0.0004   -0.0000   -0.0002   -0.0346
    22 C3     4s         0.0000    0.0002    0.0000    0.0001    0.0000    0.0006    0.0000   -0.0001   -0.0000   -0.0051
    23 C3     2px        0.0002   -0.0004   -0.0004   -0.0007   -0.0002    0.0001   -0.0001    0.0003   -0.0003    0.0063
    24 C3     3px        0.0002   -0.0003   -0.0004   -0.0001   -0.0004   -0.0000   -0.0002    0.0006   -0.0004    0.0127
    25 C3     4px       -0.0000    0.0001    0.0000    0.0002   -0.0001   -0.0005   -0.0000    0.0002   -0.0001    0.0016
    26 C3     2py       -0.0012   -0.0001    0.0008   -0.0005    0.0006   -0.0006   -0.0002    0.0003    0.0003    0.0280
    27 C3     3py       -0.0013   -0.0001    0.0007    0.0001    0.0003   -0.0004   -0.0005    0.0002    0.0002    0.0104
    28 C3     4py       -0.0001    0.0000   -0.0000    0.0002   -0.0001   -0.0005   -0.0002   -0.0000   -0.0000    0.0020
    29 C3     2pz       -0.0004    0.0000    0.0000   -0.0003    0.0000    0.0002   -0.0002   -0.0003    0.0003   -0.0019
    30 C3     3pz       -0.0001    0.0001    0.0000   -0.0004    0.0005    0.0002   -0.0001   -0.0005    0.0003    0.0141
    31 C3     4pz        0.0002    0.0001    0.0001   -0.0001    0.0001   -0.0004    0.0001   -0.0001    0.0000   -0.0078
    32 C3     3d2-       0.0000    0.0000    0.0000    0.0000   -0.0000   -0.0001   -0.0000    0.0000   -0.0000   -0.0003
    33 C3     3d1-       0.0001    0.0000    0.0000   -0.0000   -0.0001    0.0001   -0.0000    0.0000    0.0000   -0.0057
    34 C3     3d0        0.0001    0.0000    0.0000    0.0001   -0.0000   -0.0001    0.0001   -0.0000    0.0000   -0.0024
    35 C3     3d1+       0.0000   -0.0000   -0.0000   -0.0000   -0.0000   -0.0000    0.0000   -0.0000   -0.0000   -0.0008
    36 C3     3d2+       0.0000   -0.0000   -0.0001    0.0000    0.0000    0.0001   -0.0000    0.0000   -0.0000   -0.0010
    37 C4     1s         0.0004   -0.0001    0.0002   -0.0001    1.0000   -0.0059    0.0002   -0.0001    0.0000   -0.0401
    38 C4     2s         0.0012   -0.0006    0.0008   -0.0010    0.0024    0.0009   -0.0001   -0.0010    0.0002    0.3492
    39 C4     3s        -0.0003   -0.0004    0.0003   -0.0006   -0.0000    0.0003   -0.0002   -0.0008    0.0002   -0.0099
    40 C4     4s        -0.0004   -0.0001    0.0001   -0.0002    0.0012    0.0000   -0.0001   -0.0002    0.0001    0.0020
    41 C4     2px        0.0000    0.0001    0.0000    0.0000    0.0004    0.0000    0.0001   -0.0001    0.0002    0.0139
    42 C4     3px        0.0000    0.0000    0.0000   -0.0001   -0.0002    0.0001    0.0001   -0.0003    0.0002   -0.0005
    43 C4     4px       -0.0000   -0.0000   -0.0000   -0.0001    0.0000    0.0001    0.0000   -0.0001    0.0000    0.0017
    44 C4     2py        0.0033    0.0001   -0.0008   -0.0000    0.0003   -0.0005    0.0002    0.0001   -0.0001    0.1082
    45 C4     3py        0.0024    0.0002   -0.0007    0.0000   -0.0000    0.0001    0.0000    0.0003   -0.0002   -0.0688
    46 C4     4py       -0.0003    0.0001    0.0000    0.0001    0.0003    0.0002   -0.0001    0.0001   -0.0000    0.0273
    47 C4     2pz        0.0000    0.0001   -0.0016   -0.0000   -0.0012    0.0015    0.0001   -0.0000   -0.0000   -0.0303
    48 C4     3pz        0.0001    0.0002   -0.0011    0.0003   -0.0009    0.0011    0.0009    0.0002   -0.0000   -0.0047
    49 C4     4pz        0.0001    0.0001    0.0002    0.0002   -0.0006    0.0000    0.0006    0.0002   -0.0000   -0.0067
    50 C4     3d2-       0.0000   -0.0000    0.0000    0.0001    0.0000    0.0000   -0.0000   -0.0000   -0.0000    0.0012
    51 C4     3d1-      -0.0000    0.0000   -0.0002    0.0000    0.0002   -0.0001    0.0001    0.0000    0.0000    0.0025
    52 C4     3d0        0.0002   -0.0000   -0.0000    0.0000   -0.0002    0.0000    0.0001    0.0000    0.0000   -0.0170
    53 C4     3d1+      -0.0000    0.0000    0.0000    0.0001   -0.0000   -0.0000   -0.0000    0.0000    0.0000   -0.0005
    54 C4     3d2+       0.0001    0.0000    0.0001   -0.0000   -0.0006    0.0001   -0.0001    0.0000   -0.0000   -0.0421
    55 C6     1s         0.0001    0.0000    0.0004   -0.0001   -0.0002    0.0037    0.9996   -0.0000    0.0001   -0.0078
    56 C6     2s         0.0005    0.0001    0.0018   -0.0005    0.0001    0.0005   -0.0003   -0.0001    0.0004    0.0232
    57 C6     3s         0.0004    0.0001    0.0006   -0.0004   -0.0002    0.0004   -0.0019   -0.0002    0.0003   -0.0106
    58 C6     4s         0.0001    0.0000   -0.0000   -0.0001   -0.0002    0.0001    0.0008   -0.0001    0.0001    0.0001
    59 C6     2px        0.0003   -0.0001    0.0001   -0.0001   -0.0001   -0.0000   -0.0001   -0.0002    0.0001   -0.0057
    60 C6     3px        0.0002   -0.0001    0.0001   -0.0001   -0.0000   -0.0000   -0.0001   -0.0001    0.0000   -0.0054
    61 C6     4px       -0.0000    0.0000    0.0000    0.0000    0.0000   -0.0000    0.0000    0.0001   -0.0000    0.0005
    62 C6     2py        0.0001   -0.0000   -0.0003    0.0000   -0.0001   -0.0000   -0.0001   -0.0000   -0.0000   -0.0012
    63 C6     3py        0.0000   -0.0000   -0.0001    0.0000   -0.0003   -0.0000    0.0002   -0.0000   -0.0000    0.0022
    64 C6     4py       -0.0001    0.0000    0.0001    0.0000   -0.0001    0.0000   -0.0002   -0.0000    0.0000   -0.0006
    65 C6     2pz        0.0003   -0.0000    0.0005   -0.0001   -0.0005    0.0003    0.0000   -0.0001    0.0001    0.0220
    66 C6     3pz        0.0002   -0.0000   -0.0002   -0.0001   -0.0006    0.0002   -0.0002   -0.0002    0.0001   -0.0014
    67 C6     4pz       -0.0000   -0.0000   -0.0002   -0.0000   -0.0002   -0.0001    0.0007   -0.0001    0.0000    0.0033
    68 C6     3d2-       0.0000    0.0000    0.0000    0.0000    0.0000   -0.0000   -0.0000    0.0000   -0.0000    0.0003
    69 C6     3d1-      -0.0000   -0.0000    0.0001   -0.0000    0.0001   -0.0000    0.0001    0.0000   -0.0000   -0.0023
    70 C6     3d0        0.0000   -0.0000   -0.0000    0.0000    0.0000    0.0000   -0.0000    0.0000    0.0000    0.0038
    71 C6     3d1+       0.0000    0.0000   -0.0000   -0.0000    0.0000    0.0000   -0.0000    0.0000   -0.0000    0.0007
    72 C6     3d2+      -0.0000    0.0000    0.0001    0.0000   -0.0000   -0.0000    0.0000    0.0000   -0.0000   -0.0006
    73 C19    1s        -0.0000    0.0002   -0.0001   -0.0000    0.0000    0.0001   -0.0000    0.0061   -1.0000    0.0006
    74 C19    2s        -0.0002    0.0012   -0.0003   -0.0000    0.0003    0.0007   -0.0002    0.0004   -0.0020    0.0090
    75 C19    3s        -0.0002    0.0007   -0.0003    0.0001    0.0002    0.0003   -0.0002    0.0001    0.0004    0.0083
    76 C19    4s        -0.0001    0.0001   -0.0001    0.0000    0.0000    0.0000   -0.0001    0.0001   -0.0012    0.0035
    77 C19    2px        0.0001    0.0008   -0.0000   -0.0002    0.0001    0.0002    0.0000   -0.0001    0.0002   -0.0001
    78 C19    3px        0.0000    0.0005    0.0000   -0.0002    0.0001    0.0002    0.0000   -0.0004    0.0001   -0.0007
    79 C19    4px       -0.0000   -0.0002    0.0000   -0.0000   -0.0000   -0.0000    0.0000   -0.0001   -0.0002    0.0001
    80 C19    2py       -0.0001   -0.0002   -0.0002    0.0004    0.0000    0.0002   -0.0001    0.0005    0.0004    0.0073
    81 C19    3py       -0.0001   -0.0003   -0.0001    0.0003    0.0000    0.0001   -0.0001    0.0001    0.0000    0.0059
    82 C19    4py        0.0000   -0.0001    0.0000   -0.0000   -0.0000   -0.0001   -0.0000   -0.0000   -0.0003   -0.0001
    83 C19    2pz        0.0001   -0.0001   -0.0001    0.0001   -0.0000   -0.0000   -0.0000    0.0002   -0.0001   -0.0006
    84 C19    3pz        0.0001   -0.0001   -0.0002    0.0001   -0.0001    0.0000   -0.0001    0.0003   -0.0001   -0.0000
    85 C19    4pz       -0.0000    0.0001   -0.0000    0.0000   -0.0000    0.0000   -0.0000    0.0000    0.0001    0.0003
    86 C19    3d2-      -0.0000    0.0000   -0.0000   -0.0000    0.0000    0.0001    0.0000    0.0000    0.0001    0.0003
    87 C19    3d1-      -0.0000    0.0000    0.0000   -0.0000   -0.0000   -0.0000    0.0000    0.0000   -0.0000   -0.0001
    88 C19    3d0        0.0000   -0.0001   -0.0000   -0.0001   -0.0000   -0.0000    0.0000    0.0001   -0.0001    0.0001
    89 C19    3d1+      -0.0000   -0.0000    0.0000   -0.0000   -0.0000   -0.0000   -0.0000    0.0000   -0.0000    0.0001
    90 C19    3d2+      -0.0000    0.0001    0.0000   -0.0000   -0.0000   -0.0000    0.0000   -0.0001   -0.0001   -0.0002
    91 N2     1s        -0.0000   -0.0000   -0.0001    0.9998    0.0000    0.0001    0.0000   -0.0003   -0.0001   -0.0015
    92 N2     2s        -0.0001   -0.0000    0.0001   -0.0003    0.0003    0.0016    0.0001   -0.0007   -0.0004    0.0250
    93 N2     3s        -0.0000    0.0000    0.0001   -0.0016    0.0002    0.0008    0.0001   -0.0007   -0.0003   -0.0043
    94 N2     4s         0.0000   -0.0000    0.0000    0.0004    0.0001    0.0003    0.0000   -0.0000   -0.0001   -0.0018
    95 N2     2px       -0.0006   -0.0001    0.0001    0.0003    0.0002    0.0005    0.0000   -0.0002    0.0004    0.0108
    96 N2     3px       -0.0008   -0.0002    0.0002    0.0003    0.0002    0.0002   -0.0000   -0.0000    0.0003    0.0106
    97 N2     4px       -0.0001   -0.0000    0.0001    0.0000    0.0000   -0.0001   -0.0000   -0.0002   -0.0001   -0.0003
    98 N2     2py        0.0002   -0.0016    0.0003   -0.0006    0.0005    0.0007   -0.0001    0.0007    0.0001    0.0003
    99 N2     3py        0.0002   -0.0018    0.0003    0.0002    0.0005    0.0006   -0.0001    0.0009    0.0000   -0.0108
   100 N2     4py       -0.0000    0.0000    0.0000    0.0007   -0.0000    0.0002   -0.0000    0.0001   -0.0001   -0.0013
   101 N2     2pz       -0.0001    0.0002    0.0001    0.0001   -0.0001   -0.0001   -0.0002   -0.0002   -0.0000   -0.0023
   102 N2     3pz       -0.0001    0.0003    0.0002   -0.0004   -0.0001   -0.0001   -0.0003   -0.0004    0.0000    0.0004
   103 N2     4pz       -0.0000    0.0000    0.0000    0.0001   -0.0000    0.0000   -0.0001   -0.0001    0.0000    0.0005
   104 N2     3d2-       0.0000    0.0001    0.0000   -0.0002    0.0001   -0.0000    0.0000   -0.0001    0.0000    0.0003
   105 N2     3d1-       0.0000   -0.0000    0.0000   -0.0000   -0.0000   -0.0000   -0.0000    0.0001    0.0000   -0.0006
   106 N2     3d0        0.0000   -0.0000    0.0000    0.0001   -0.0000    0.0001   -0.0000    0.0001    0.0001   -0.0007
   107 N2     3d1+       0.0000   -0.0000    0.0000    0.0000   -0.0000    0.0000    0.0000    0.0000    0.0000   -0.0009
   108 N2     3d2+      -0.0000   -0.0000    0.0000   -0.0000    0.0000   -0.0000   -0.0000    0.0000   -0.0000    0.0002
   109 N5     1s         0.0002    0.0000    0.9999    0.0000   -0.0002    0.0000    0.0001    0.0000   -0.0000   -0.0178
   110 N5     2s         0.0010    0.0001    0.0001   -0.0003   -0.0002    0.0001    0.0017    0.0001   -0.0003    0.1136
   111 N5     3s         0.0007    0.0001   -0.0013   -0.0002   -0.0004    0.0001    0.0010    0.0000   -0.0002   -0.0461
   112 N5     4s         0.0001    0.0000    0.0005   -0.0000    0.0000    0.0000    0.0004   -0.0000   -0.0000   -0.0107
   113 N5     2px       -0.0001    0.0001   -0.0002    0.0002    0.0003   -0.0000   -0.0001    0.0003   -0.0001    0.0063
   114 N5     3px       -0.0001    0.0001   -0.0000    0.0002   -0.0000   -0.0000   -0.0001    0.0005   -0.0002    0.0070
   115 N5     4px        0.0000    0.0000   -0.0003    0.0000   -0.0001   -0.0000   -0.0000    0.0001   -0.0001   -0.0005
   116 N5     2py       -0.0013    0.0002   -0.0011    0.0004    0.0002   -0.0000    0.0002   -0.0000   -0.0001    0.0454
   117 N5     3py       -0.0015    0.0001   -0.0007    0.0005   -0.0001    0.0000    0.0005    0.0001   -0.0001    0.0003
   118 N5     4py       -0.0000   -0.0000    0.0004    0.0001    0.0000    0.0000    0.0003    0.0001   -0.0000   -0.0020
   119 N5     2pz        0.0007    0.0000    0.0004   -0.0005    0.0001    0.0003   -0.0011   -0.0004    0.0002    0.0034
   120 N5     3pz        0.0008    0.0000    0.0005   -0.0007    0.0001    0.0002   -0.0010   -0.0006    0.0004   -0.0232
   121 N5     4pz       -0.0000   -0.0000    0.0000   -0.0001    0.0003   -0.0001   -0.0001   -0.0001    0.0001    0.0069
   122 N5     3d2-       0.0000   -0.0000    0.0001   -0.0000   -0.0000    0.0000    0.0000    0.0000   -0.0000   -0.0007
   123 N5     3d1-      -0.0001   -0.0000    0.0000    0.0000    0.0001   -0.0000   -0.0000   -0.0000    0.0000    0.0056
   124 N5     3d0        0.0001    0.0000   -0.0002   -0.0000   -0.0001    0.0000   -0.0001   -0.0000    0.0000    0.0001
   125 N5     3d1+      -0.0000   -0.0000   -0.0000    0.0000    0.0000    0.0000   -0.0000    0.0000    0.0000    0.0006
   126 N5     3d2+      -0.0000    0.0000   -0.0001    0.0000    0.0001   -0.0000    0.0001   -0.0000    0.0000   -0.0030
   127 O7     1s        -0.0000    0.9997    0.0000    0.0000    0.0000   -0.0000    0.0000   -0.0002   -0.0001   -0.0013
   128 O7     2s        -0.0001   -0.0013    0.0001    0.0000    0.0001   -0.0001    0.0000    0.0006   -0.0004    0.0158
   129 O7     3s        -0.0001   -0.0013    0.0001   -0.0000    0.0001    0.0000    0.0000    0.0001   -0.0003   -0.0030
   130 O7     4s        -0.0000    0.0001   -0.0000   -0.0001    0.0001    0.0000    0.0000    0.0000   -0.0001   -0.0007
   131 O7     2px       -0.0001    0.0002    0.0000   -0.0004   -0.0000   -0.0000    0.0000    0.0003   -0.0001    0.0049
   132 O7     3px       -0.0001   -0.0002    0.0000   -0.0006   -0.0001   -0.0000   -0.0000   -0.0003   -0.0001    0.0031
   133 O7     4px       -0.0000    0.0007   -0.0000   -0.0001   -0.0000   -0.0000   -0.0000   -0.0001    0.0000    0.0016
   134 O7     2py       -0.0000   -0.0003    0.0001   -0.0002   -0.0001   -0.0000    0.0000   -0.0008    0.0002   -0.0028
   135 O7     3py       -0.0001    0.0005    0.0001   -0.0002   -0.0001   -0.0001    0.0000   -0.0005    0.0002    0.0027
   136 O7     4py       -0.0001   -0.0012    0.0001    0.0000   -0.0000   -0.0000    0.0000   -0.0003   -0.0000    0.0008
   137 O7     2pz        0.0001    0.0000    0.0000    0.0001    0.0000    0.0000   -0.0000    0.0001   -0.0000   -0.0022
   138 O7     3pz        0.0001   -0.0001    0.0000    0.0001    0.0001    0.0000   -0.0001    0.0002   -0.0000   -0.0023
   139 O7     4pz        0.0000    0.0000    0.0000    0.0000    0.0000    0.0000   -0.0000    0.0001   -0.0000   -0.0009
   140 O7     3d2-       0.0000    0.0001    0.0000    0.0000   -0.0000    0.0000    0.0000   -0.0002    0.0000   -0.0006
   141 O7     3d1-       0.0000   -0.0000    0.0000   -0.0000    0.0000    0.0000    0.0000   -0.0000    0.0000   -0.0001
   142 O7     3d0        0.0000   -0.0000    0.0000   -0.0000    0.0000   -0.0000    0.0000   -0.0001    0.0000   -0.0006
   143 O7     3d1+       0.0000   -0.0000    0.0000   -0.0000    0.0000   -0.0000    0.0000    0.0000    0.0000   -0.0002
   144 O7     3d2+      -0.0000    0.0000    0.0000   -0.0001    0.0000    0.0000    0.0000   -0.0001    0.0000   -0.0002
   145 O8     1s         0.9997    0.0000    0.0000    0.0000   -0.0003    0.0000   -0.0000    0.0000   -0.0000   -0.0242
   146 O8     2s        -0.0015    0.0001    0.0002    0.0002    0.0002    0.0003   -0.0003    0.0002   -0.0000    0.6900
   147 O8     3s        -0.0014    0.0001    0.0001    0.0001   -0.0001    0.0002   -0.0002    0.0001   -0.0000   -0.0347
   148 O8     4s         0.0001    0.0000    0.0000    0.0000    0.0000    0.0000   -0.0000    0.0000   -0.0000   -0.0138
   149 O8     2px        0.0000   -0.0000   -0.0000   -0.0000    0.0004    0.0000   -0.0000    0.0000   -0.0000    0.0090
   150 O8     3px       -0.0000   -0.0000    0.0000   -0.0000    0.0000    0.0000   -0.0000    0.0001   -0.0000   -0.0008
   151 O8     4px       -0.0000   -0.0000    0.0000    0.0000   -0.0000    0.0000   -0.0000    0.0000   -0.0000   -0.0010
   152 O8     2py       -0.0003   -0.0001    0.0000   -0.0001   -0.0007   -0.0002    0.0001   -0.0001    0.0000   -0.1492
   153 O8     3py        0.0005   -0.0001    0.0002   -0.0001   -0.0002   -0.0002    0.0000   -0.0001    0.0000    0.0457
   154 O8     4py       -0.0014   -0.0000    0.0001    0.0000   -0.0003    0.0000   -0.0000    0.0000    0.0000    0.0006
   155 O8     2pz       -0.0000   -0.0000    0.0003   -0.0000   -0.0000   -0.0001    0.0001   -0.0000    0.0000   -0.0045
   156 O8     3pz       -0.0001   -0.0000    0.0003   -0.0001    0.0001   -0.0002    0.0000   -0.0001    0.0000    0.0031
   157 O8     4pz       -0.0000   -0.0000    0.0000   -0.0000    0.0001   -0.0001   -0.0000   -0.0000    0.0000    0.0021
   158 O8     3d2-       0.0000    0.0000    0.0000    0.0000   -0.0000   -0.0000   -0.0000    0.0000    0.0000   -0.0005
   159 O8     3d1-      -0.0000   -0.0000   -0.0001   -0.0000    0.0000   -0.0000   -0.0000   -0.0000   -0.0000    0.0007
   160 O8     3d0        0.0001   -0.0000    0.0000   -0.0000   -0.0002    0.0000    0.0000   -0.0000   -0.0000   -0.0112
   161 O8     3d1+      -0.0000   -0.0000   -0.0000    0.0000    0.0000    0.0000    0.0000    0.0000    0.0000    0.0001
   162 O8     3d2+       0.0000   -0.0000   -0.0000   -0.0000   -0.0001   -0.0000    0.0000   -0.0000    0.0000   -0.0191
   163 H9     1s         0.0001    0.0001   -0.0002    0.0002    0.0000   -0.0001    0.0000    0.0003   -0.0003    0.0032
   164 H9     2s         0.0001    0.0001   -0.0001    0.0001   -0.0000   -0.0001    0.0000    0.0002    0.0002    0.0024
   165 H9     2px        0.0000   -0.0000   -0.0000    0.0001    0.0000   -0.0000   -0.0000    0.0001    0.0000    0.0005
   166 H9     2py        0.0000   -0.0001    0.0000   -0.0000    0.0000   -0.0000    0.0000    0.0000   -0.0000   -0.0000
   167 H9     2pz        0.0000    0.0000   -0.0000   -0.0000    0.0000   -0.0000   -0.0000    0.0000    0.0001    0.0002
   168 H10    1s        -0.0000    0.0002    0.0000    0.0001   -0.0001   -0.0001   -0.0001   -0.0001   -0.0002    0.0043
   169 H10    2s         0.0000    0.0001    0.0000    0.0000   -0.0000   -0.0001   -0.0001    0.0000    0.0003    0.0031
   170 H10    2px       -0.0000   -0.0000   -0.0000    0.0000   -0.0000   -0.0000   -0.0000    0.0000    0.0000    0.0005
   171 H10    2py        0.0000   -0.0000   -0.0000   -0.0000   -0.0000   -0.0000   -0.0000    0.0001   -0.0000   -0.0000
   172 H10    2pz        0.0000   -0.0000    0.0000   -0.0000    0.0000    0.0000    0.0000   -0.0000   -0.0001   -0.0006
   173 H11    1s        -0.0001   -0.0005   -0.0001    0.0004   -0.0001    0.0000   -0.0001    0.0004   -0.0002    0.0074
   174 H11    2s        -0.0001   -0.0003   -0.0001    0.0003   -0.0001    0.0000   -0.0001    0.0002    0.0003    0.0047
   175 H11    2px        0.0000   -0.0000    0.0000   -0.0000    0.0000    0.0000    0.0000   -0.0000   -0.0001   -0.0007
   176 H11    2py       -0.0000   -0.0000   -0.0000    0.0000   -0.0000    0.0000   -0.0000    0.0001    0.0001    0.0007
   177 H11    2pz       -0.0000   -0.0000    0.0000    0.0000   -0.0000    0.0000    0.0000   -0.0000    0.0000    0.0002
   178 H12    1s         0.0003   -0.0009    0.0005   -0.0005    0.0004   -0.0003   -0.0003    0.0007    0.0003   -0.0004
   179 H12    2s         0.0001   -0.0005    0.0003   -0.0003    0.0002   -0.0001   -0.0002    0.0003    0.0001   -0.0032
   180 H12    2px       -0.0000    0.0000   -0.0000    0.0002   -0.0000    0.0000    0.0000   -0.0002   -0.0000   -0.0001
   181 H12    2py       -0.0000   -0.0000    0.0001   -0.0004    0.0000   -0.0000   -0.0000    0.0001    0.0000    0.0009
   182 H12    2pz        0.0000    0.0000   -0.0000    0.0002   -0.0000    0.0000    0.0000    0.0000   -0.0000   -0.0002
   183 H13    1s         0.0006   -0.0006   -0.0003   -0.0008   -0.0003    0.0011   -0.0001   -0.0007   -0.0003    0.0101
   184 H13    2s         0.0004   -0.0003   -0.0001   -0.0004   -0.0002    0.0002   -0.0001   -0.0004   -0.0002   -0.0030
   185 H13    2px        0.0000    0.0001   -0.0000    0.0001    0.0000    0.0000   -0.0000    0.0000    0.0000   -0.0001
   186 H13    2py       -0.0000    0.0001    0.0000    0.0000   -0.0000   -0.0001   -0.0000    0.0001    0.0000    0.0002
   187 H13    2pz       -0.0000    0.0001   -0.0000   -0.0000   -0.0000   -0.0001    0.0000    0.0001    0.0000   -0.0010
   188 H14    1s        -0.0001    0.0002    0.0005   -0.0003    0.0003    0.0006   -0.0002   -0.0002    0.0003    0.0097
   189 H14    2s        -0.0001    0.0001    0.0002   -0.0002    0.0003   -0.0000   -0.0001   -0.0002    0.0002    0.0003
   190 H14    2px        0.0000   -0.0000   -0.0001   -0.0000   -0.0000    0.0000    0.0000   -0.0000   -0.0000   -0.0007
   191 H14    2py        0.0000    0.0000   -0.0000    0.0000    0.0000   -0.0000    0.0000   -0.0000   -0.0000   -0.0003
   192 H14    2pz        0.0000   -0.0000    0.0000   -0.0000   -0.0001   -0.0000   -0.0000    0.0000   -0.0000   -0.0018
   193 H15    1s        -0.0013    0.0005   -0.0010    0.0005    0.0000   -0.0002   -0.0004   -0.0003    0.0000    0.0408
   194 H15    2s        -0.0008    0.0003   -0.0007    0.0003   -0.0001   -0.0001   -0.0002   -0.0002    0.0000   -0.0002
   195 H15    2px       -0.0000   -0.0000   -0.0001    0.0000    0.0000    0.0000    0.0000    0.0000   -0.0000    0.0012
   196 H15    2py       -0.0001    0.0001   -0.0005    0.0001    0.0001   -0.0000   -0.0000   -0.0001    0.0000    0.0063
   197 H15    2pz        0.0000    0.0000    0.0001    0.0000    0.0001    0.0000   -0.0000   -0.0000   -0.0000   -0.0000
   198 H16    1s         0.0005   -0.0001   -0.0005   -0.0000   -0.0004    0.0000    0.0006   -0.0001    0.0000    0.0058
   199 H16    2s         0.0003   -0.0000   -0.0002   -0.0000   -0.0003    0.0000   -0.0001   -0.0001    0.0000   -0.0016
   200 H16    2px        0.0000   -0.0000   -0.0000   -0.0000   -0.0001    0.0000    0.0000   -0.0000    0.0000    0.0007
   201 H16    2py        0.0000   -0.0000    0.0000   -0.0000   -0.0000    0.0000   -0.0000   -0.0000    0.0000   -0.0003
   202 H16    2pz        0.0000    0.0000   -0.0001   -0.0000   -0.0000   -0.0000    0.0001   -0.0000   -0.0000    0.0007
   203 H17    1s        -0.0001   -0.0000   -0.0002    0.0000   -0.0002    0.0000    0.0010   -0.0000   -0.0000    0.0113
   204 H17    2s        -0.0000   -0.0000   -0.0000   -0.0000   -0.0000    0.0000    0.0001    0.0000   -0.0000   -0.0031
   205 H17    2px       -0.0000    0.0000   -0.0000    0.0000    0.0000    0.0000   -0.0000    0.0000   -0.0000    0.0002
   206 H17    2py        0.0000   -0.0000   -0.0000   -0.0000    0.0000   -0.0000   -0.0001    0.0000   -0.0000   -0.0006
   207 H17    2pz       -0.0000   -0.0000    0.0000   -0.0000    0.0000   -0.0000    0.0000   -0.0000    0.0000    0.0009
   208 H18    1s         0.0001    0.0000   -0.0005    0.0000   -0.0004    0.0001    0.0006   -0.0001    0.0000    0.0111
   209 H18    2s         0.0001   -0.0000   -0.0002    0.0000   -0.0003    0.0001   -0.0000   -0.0001    0.0000    0.0030
   210 H18    2px       -0.0000    0.0000    0.0000   -0.0000    0.0001   -0.0000    0.0000    0.0000    0.0000   -0.0009
   211 H18    2py       -0.0000    0.0000   -0.0000    0.0000   -0.0000    0.0000   -0.0000    0.0000   -0.0000    0.0004
   212 H18    2pz        0.0000    0.0000   -0.0000    0.0000   -0.0000    0.0000    0.0000   -0.0000    0.0000    0.0010
 
 
      Orbital                11        12        13        14        15        16        17        18        19        20
      Energy            -1.3567   -1.2599   -1.2160   -1.0139   -0.9682   -0.9247   -0.8151   -0.7770   -0.7127   -0.6905
      Occ. No.           2.0000    2.0000    2.0000    2.0000    2.0000    2.0000    2.0000    2.0000    2.0000    2.0000
 
     1 C1     1s        -0.0397    0.0023    0.0041   -0.0135    0.0085    0.0034    0.0067   -0.0136   -0.0028   -0.0013
     2 C1     2s         0.3638    0.0122   -0.0866    0.1921   -0.1725    0.0102   -0.1173    0.3638    0.0208    0.0204
     3 C1     3s        -0.0040    0.0129   -0.0029   -0.0169    0.0055    0.0115    0.0049    0.0018   -0.0118   -0.0022
     4 C1     4s         0.0027    0.0040   -0.0002   -0.0055    0.0017    0.0041    0.0020   -0.0022   -0.0025   -0.0012
     5 C1     2px       -0.0368    0.0438   -0.1167    0.0259    0.0562   -0.1085   -0.0717    0.1513    0.0019   -0.0025
     6 C1     3px        0.0059    0.0107    0.0602   -0.0442    0.0142    0.0204    0.0163   -0.0332   -0.0158    0.0076
     7 C1     4px       -0.0129    0.0097   -0.0200   -0.0032    0.0131   -0.0146   -0.0058    0.0112   -0.0011    0.0018
     8 C1     2py        0.1006    0.0024    0.0544   -0.1137    0.1104   -0.0197    0.0076    0.0013    0.0549   -0.0310
     9 C1     3py       -0.0654    0.0355   -0.0486   -0.0048   -0.0311    0.0595   -0.0002   -0.0092   -0.0222    0.0139
    10 C1     4py        0.0232    0.0010    0.0096   -0.0189    0.0178    0.0010   -0.0002    0.0015    0.0025    0.0000
    11 C1     2pz       -0.0049   -0.0100    0.0030    0.0090   -0.0257    0.0119    0.0112   -0.0224    0.0072    0.0131
    12 C1     3pz        0.0074   -0.0129   -0.0024   -0.0023   -0.0091   -0.0105    0.0004    0.0074    0.0049    0.0014
    13 C1     4pz       -0.0011   -0.0035    0.0000    0.0011   -0.0053    0.0018    0.0009   -0.0011    0.0032    0.0028
    14 C1     3d2-      -0.0292    0.0034   -0.0103    0.0025   -0.0095    0.0117    0.0007    0.0095    0.0109   -0.0044
    15 C1     3d1-      -0.0042    0.0001   -0.0012   -0.0011    0.0027   -0.0027    0.0004   -0.0020   -0.0013   -0.0002
    16 C1     3d0       -0.0276    0.0001    0.0033   -0.0085    0.0052    0.0024    0.0050   -0.0119   -0.0011   -0.0011
    17 C1     3d1+      -0.0001   -0.0014    0.0040   -0.0027    0.0023    0.0003    0.0021   -0.0075    0.0010    0.0034
    18 C1     3d2+      -0.0141    0.0067   -0.0287    0.0082    0.0048   -0.0129   -0.0069    0.0137    0.0033   -0.0020
    19 C3     1s        -0.0111   -0.0107    0.0316    0.0353   -0.0074   -0.0265   -0.0070   -0.0019   -0.0063   -0.0054
    20 C3     2s         0.0286    0.0656   -0.1814   -0.3210    0.0668    0.3719    0.1007    0.0640    0.0980    0.0286
    21 C3     3s        -0.0233   -0.0218    0.0602    0.0612   -0.0128   -0.0285   -0.0082   -0.0072   -0.0087   -0.0195
    22 C3     4s        -0.0037   -0.0038    0.0146    0.0168   -0.0041   -0.0088   -0.0030   -0.0032   -0.0023   -0.0048
    23 C3     2px       -0.0293    0.0005    0.0481   -0.0437   -0.0096    0.0491    0.0157   -0.0666   -0.0597    0.0638
    24 C3     3px       -0.0075    0.0199   -0.0230   -0.0398    0.0237    0.0123   -0.0007    0.0066    0.0164   -0.0084
    25 C3     4px       -0.0037    0.0040   -0.0018   -0.0133    0.0064    0.0113    0.0034   -0.0028   -0.0021    0.0018
    26 C3     2py       -0.0196   -0.0256    0.0995   -0.0140   -0.0126    0.0573   -0.0741    0.1916   -0.1425    0.1147
    27 C3     3py        0.0036    0.0087    0.0092    0.0222    0.0476   -0.0092   -0.0064    0.0076    0.0214   -0.0225
    28 C3     4py       -0.0035    0.0056    0.0092   -0.0048    0.0039    0.0093   -0.0066    0.0126    0.0017    0.0006
    29 C3     2pz        0.0114   -0.0231   -0.0192    0.0566    0.0381    0.0026    0.0788   -0.0169    0.2099    0.1706
    30 C3     3pz        0.0153    0.0071   -0.0279   -0.0176   -0.0134    0.0228   -0.0083    0.0080   -0.0277   -0.0113
    31 C3     4pz        0.0034    0.0014   -0.0111   -0.0081    0.0046    0.0167    0.0081    0.0026    0.0064    0.0048
    32 C3     3d2-       0.0055    0.0054   -0.0185    0.0019    0.0056   -0.0069    0.0001   -0.0017    0.0117   -0.0141
    33 C3     3d1-      -0.0004   -0.0002    0.0031    0.0071    0.0035   -0.0034    0.0068    0.0001    0.0172    0.0043
    34 C3     3d0       -0.0021    0.0027    0.0092   -0.0070   -0.0097    0.0033   -0.0108    0.0117   -0.0171   -0.0050
    35 C3     3d1+      -0.0006    0.0008    0.0008   -0.0014   -0.0009    0.0003    0.0002   -0.0013   -0.0031   -0.0051
    36 C3     3d2+      -0.0009    0.0006    0.0088    0.0009   -0.0039    0.0000   -0.0043    0.0094    0.0063   -0.0007
    37 C4     1s         0.0038   -0.0067   -0.0044    0.0150    0.0091    0.0002    0.0172    0.0006    0.0061   -0.0009
    38 C4     2s         0.0187    0.1440   -0.0279   -0.2351   -0.1597    0.0708   -0.3631   -0.0157   -0.2415    0.0235
    39 C4     3s         0.0163    0.0069   -0.0172    0.0247    0.0045    0.0051    0.0198   -0.0053    0.0068   -0.0097
    40 C4     4s         0.0043    0.0018   -0.0042    0.0087    0.0016    0.0008    0.0063   -0.0024    0.0037   -0.0003
    41 C4     2px        0.0017    0.0036    0.0045   -0.0128   -0.0191    0.0078   -0.0324   -0.0031   -0.0146   -0.0020
    42 C4     3px        0.0062   -0.0027    0.0001    0.0061   -0.0091    0.0018   -0.0034    0.0069   -0.0004   -0.0015
    43 C4     4px        0.0024    0.0017   -0.0011   -0.0012   -0.0027    0.0021   -0.0012   -0.0002   -0.0002    0.0001
    44 C4     2py       -0.0174   -0.1164   -0.0005    0.1052    0.0794    0.0077    0.0351   -0.0048   -0.0405    0.2683
    45 C4     3py       -0.0004    0.0688    0.0007   -0.0438    0.0004    0.0296   -0.0043   -0.0032    0.0170   -0.0856
    46 C4     4py       -0.0057   -0.0203   -0.0006    0.0090    0.0115    0.0036    0.0008   -0.0006   -0.0078    0.0183
    47 C4     2pz        0.0060   -0.1156   -0.0692   -0.0789   -0.0014    0.0971    0.1227    0.1155   -0.1929    0.0606
    48 C4     3pz       -0.0033   -0.0305   -0.0014   -0.0088   -0.0882   -0.1052   -0.0157   -0.0742    0.0749    0.0150
    49 C4     4pz       -0.0010   -0.0285   -0.0088   -0.0116   -0.0094   -0.0033    0.0106    0.0003   -0.0051    0.0110
    50 C4     3d2-      -0.0001   -0.0018   -0.0001    0.0020    0.0012    0.0001    0.0004    0.0022   -0.0002    0.0026
    51 C4     3d1-      -0.0006    0.0191    0.0097    0.0018   -0.0131   -0.0193   -0.0050   -0.0073    0.0107   -0.0083
    52 C4     3d0        0.0016    0.0226    0.0030   -0.0121   -0.0044    0.0077   -0.0189   -0.0011    0.0178   -0.0047
    53 C4     3d1+      -0.0009   -0.0018    0.0012   -0.0003    0.0004    0.0027    0.0046    0.0013   -0.0060    0.0024
    54 C4     3d2+       0.0016    0.0058    0.0016    0.0044    0.0063    0.0038    0.0044    0.0005    0.0153   -0.0044
    55 C6     1s         0.0022   -0.0304   -0.0157   -0.0335   -0.0378   -0.0251    0.0070   -0.0004    0.0080    0.0053
    56 C6     2s         0.0172    0.1622    0.0329    0.2309    0.3097    0.2747   -0.0954    0.0073   -0.0611   -0.0756
    57 C6     3s         0.0127   -0.0450   -0.0408   -0.0580   -0.0653   -0.0319    0.0157   -0.0018    0.0239    0.0164
    58 C6     4s         0.0036   -0.0064   -0.0092   -0.0117   -0.0145   -0.0062    0.0049   -0.0007    0.0063    0.0060
    59 C6     2px        0.0047    0.0057   -0.0010    0.0111    0.0069    0.0117   -0.0084   -0.0040    0.0284    0.0335
    60 C6     3px        0.0046    0.0010   -0.0033    0.0062    0.0050    0.0094   -0.0054    0.0022   -0.0002   -0.0068
    61 C6     4px       -0.0004    0.0002    0.0000   -0.0008    0.0008   -0.0007    0.0003   -0.0006    0.0006    0.0015
    62 C6     2py       -0.0040   -0.0388   -0.0057   -0.0185   -0.0081    0.0092   -0.1412   -0.0612    0.0647   -0.1437
    63 C6     3py       -0.0027    0.0031    0.0075   -0.0007   -0.0048   -0.0084    0.0054    0.0025   -0.0020    0.0212
    64 C6     4py        0.0004   -0.0025   -0.0010    0.0041    0.0045    0.0043   -0.0109   -0.0047    0.0030   -0.0044
    65 C6     2pz        0.0056    0.0991    0.0253    0.0230   -0.0152   -0.0374    0.0370   -0.0288    0.2309    0.2509
    66 C6     3pz        0.0056   -0.0159   -0.0166   -0.0174   -0.0210    0.0027    0.0025    0.0021   -0.0331   -0.0388
    67 C6     4pz        0.0010    0.0000   -0.0022   -0.0114   -0.0179   -0.0133    0.0054   -0.0018    0.0106    0.0134
    68 C6     3d2-      -0.0003   -0.0002    0.0001   -0.0009   -0.0003   -0.0005   -0.0020   -0.0011    0.0011   -0.0031
    69 C6     3d1-      -0.0003   -0.0151   -0.0045   -0.0052   -0.0015    0.0034   -0.0172   -0.0042   -0.0080   -0.0230
    70 C6     3d0        0.0002    0.0178    0.0062    0.0052    0.0005   -0.0044    0.0010   -0.0038    0.0220    0.0246
    71 C6     3d1+      -0.0000    0.0015    0.0004    0.0002    0.0005   -0.0002   -0.0015   -0.0006    0.0036    0.0020
    72 C6     3d2+       0.0001   -0.0026   -0.0013   -0.0028   -0.0019   -0.0003   -0.0007    0.0015   -0.0090   -0.0045
    73 C19    1s        -0.0151   -0.0005    0.0069   -0.0336    0.0528   -0.0369   -0.0095    0.0110   -0.0025    0.0027
    74 C19    2s        -0.0093    0.0002   -0.0029    0.1562   -0.3131    0.2712    0.0508   -0.0855    0.0340   -0.0185
    75 C19    3s        -0.0412    0.0020    0.0213   -0.0712    0.1010   -0.0606   -0.0235    0.0251   -0.0046    0.0068
    76 C19    4s        -0.0045    0.0021    0.0035   -0.0151    0.0222   -0.0134   -0.0059    0.0073   -0.0019    0.0017
    77 C19    2px       -0.0068    0.0039   -0.0235    0.0432   -0.0321   -0.0067   -0.0297    0.0564   -0.0414    0.0344
    78 C19    3px       -0.0075   -0.0005   -0.0002    0.0028    0.0041   -0.0025    0.0022   -0.0068    0.0038   -0.0035
    79 C19    4px        0.0084   -0.0002   -0.0001   -0.0029    0.0116   -0.0129   -0.0035    0.0039   -0.0042    0.0020
    80 C19    2py        0.0196    0.0067    0.0031    0.0244   -0.0232   -0.0018   -0.0256    0.0630   -0.0243    0.0293
    81 C19    3py       -0.0094    0.0075    0.0086   -0.0178    0.0274   -0.0149    0.0008   -0.0103   -0.0043   -0.0024
    82 C19    4py        0.0039    0.0001    0.0003   -0.0055    0.0138   -0.0127   -0.0048    0.0116    0.0005    0.0007
    83 C19    2pz       -0.0051   -0.0016    0.0052   -0.0101    0.0134   -0.0047    0.0034   -0.0206    0.0155   -0.0023
    84 C19    3pz       -0.0017   -0.0015    0.0015    0.0000    0.0039   -0.0027   -0.0047   -0.0042    0.0007    0.0035
    85 C19    4pz       -0.0014   -0.0004   -0.0006    0.0019   -0.0026    0.0034   -0.0004   -0.0030    0.0009    0.0000
    86 C19    3d2-       0.0021    0.0011   -0.0046    0.0082   -0.0079    0.0011   -0.0033    0.0086   -0.0018    0.0024
    87 C19    3d1-      -0.0010   -0.0001    0.0000   -0.0019    0.0025   -0.0008    0.0006   -0.0019    0.0012   -0.0006
    88 C19    3d0        0.0013    0.0000    0.0005   -0.0051    0.0064   -0.0026    0.0015   -0.0035    0.0033   -0.0024
    89 C19    3d1+       0.0013   -0.0001    0.0010   -0.0017    0.0015    0.0001    0.0010   -0.0019    0.0008   -0.0011
    90 C19    3d2+      -0.0062    0.0011   -0.0039   -0.0022    0.0046   -0.0031    0.0001   -0.0013    0.0012   -0.0015
    91 N2     1s        -0.0190   -0.0097    0.0360   -0.0075   -0.0005    0.0050   -0.0016    0.0051    0.0016   -0.0013
    92 N2     2s         0.1613    0.1177   -0.5773    0.1149    0.1239   -0.2030   -0.0195   -0.0985   -0.0030   -0.0356
    93 N2     3s        -0.0459   -0.0191    0.0576   -0.0122    0.0080    0.0015   -0.0075    0.0084    0.0044   -0.0058
    94 N2     4s        -0.0118   -0.0062    0.0212   -0.0033   -0.0004    0.0028   -0.0021    0.0024    0.0004   -0.0007
    95 N2     2px       -0.0273    0.0023    0.0154   -0.1140    0.0784    0.0649    0.1394   -0.3712   -0.0136   -0.0158
    96 N2     3px        0.0196   -0.0082    0.0171    0.0356    0.0083   -0.0513   -0.0455    0.0993   -0.0153    0.0027
    97 N2     4px       -0.0059    0.0005   -0.0006   -0.0015    0.0074   -0.0074   -0.0022    0.0017   -0.0040    0.0015
    98 N2     2py        0.0331    0.0058    0.0077   -0.0982    0.0526    0.0764    0.0176    0.1904    0.2905   -0.1277
    99 N2     3py       -0.0012   -0.0155    0.0570    0.0414    0.0065   -0.0571   -0.0169   -0.0341   -0.0471    0.0210
   100 N2     4py       -0.0075   -0.0045    0.0154   -0.0008    0.0011   -0.0039   -0.0055    0.0077   -0.0000   -0.0006
   101 N2     2pz        0.0074   -0.0006   -0.0236    0.0423    0.0099   -0.0092   -0.0116   -0.0287    0.0447    0.0777
   102 N2     3pz        0.0002    0.0058   -0.0053    0.0066    0.0063    0.0193   -0.0060    0.0045   -0.0023   -0.0222
   103 N2     4pz        0.0034    0.0019   -0.0057    0.0047    0.0019    0.0031   -0.0010   -0.0019   -0.0024   -0.0033
   104 N2     3d2-      -0.0031    0.0024   -0.0066   -0.0058   -0.0008    0.0106    0.0052    0.0008    0.0121   -0.0053
   105 N2     3d1-       0.0008   -0.0010    0.0026   -0.0005    0.0006    0.0018    0.0008    0.0052    0.0080    0.0016
   106 N2     3d0       -0.0035   -0.0025    0.0140   -0.0007   -0.0029    0.0024    0.0010   -0.0010   -0.0020    0.0001
   107 N2     3d1+      -0.0007   -0.0008    0.0024   -0.0013    0.0017    0.0008    0.0026   -0.0069    0.0008    0.0026
   108 N2     3d2+       0.0040    0.0011   -0.0039    0.0085   -0.0033   -0.0060   -0.0074    0.0186    0.0019   -0.0001
   109 N5     1s        -0.0018   -0.0413   -0.0096   -0.0024    0.0028    0.0018   -0.0033   -0.0010    0.0046    0.0011
   110 N5     2s         0.0010    0.5644    0.1733   -0.0129   -0.1209   -0.1901    0.1539    0.0022    0.1593    0.1039
   111 N5     3s        -0.0051   -0.0798   -0.0195   -0.0157   -0.0045   -0.0080   -0.0032   -0.0033    0.0221    0.0065
   112 N5     4s        -0.0009   -0.0256   -0.0077   -0.0049   -0.0007    0.0005   -0.0023   -0.0004    0.0021    0.0003
   113 N5     2px       -0.0048   -0.0123   -0.0027   -0.0116    0.0037    0.0076   -0.0293   -0.0114    0.0102    0.0064
   114 N5     3px       -0.0091    0.0111    0.0071   -0.0076    0.0059   -0.0092    0.0159   -0.0027   -0.0092   -0.0012
   115 N5     4px       -0.0025   -0.0008    0.0008   -0.0020    0.0028   -0.0008    0.0007   -0.0010   -0.0006    0.0001
   116 N5     2py       -0.0062    0.0056    0.0095    0.0176    0.0072    0.0261   -0.3786   -0.1854    0.2958    0.0714
   117 N5     3py       -0.0074   -0.0413   -0.0070   -0.0107   -0.0313   -0.0425    0.0810    0.0168   -0.0529    0.0101
   118 N5     4py       -0.0020   -0.0131   -0.0007   -0.0045   -0.0017   -0.0032   -0.0081   -0.0011    0.0004    0.0012
   119 N5     2pz        0.0187    0.0314   -0.0381   -0.1632   -0.1769   -0.0725   -0.1685   -0.0577   -0.0693   -0.3644
   120 N5     3pz        0.0264    0.0245   -0.0333    0.0599    0.0664    0.0770    0.0449    0.0198    0.0316    0.0550
   121 N5     4pz        0.0046    0.0025   -0.0068   -0.0005   -0.0004    0.0077    0.0027    0.0019    0.0020    0.0076
   122 N5     3d2-      -0.0000    0.0003    0.0002   -0.0012   -0.0007   -0.0011    0.0067    0.0034   -0.0051   -0.0008
   123 N5     3d1-       0.0002    0.0037    0.0003   -0.0090   -0.0117   -0.0063   -0.0170   -0.0064   -0.0008   -0.0132
   124 N5     3d0        0.0009    0.0158    0.0031    0.0007    0.0023    0.0052   -0.0090   -0.0025    0.0069    0.0011
   125 N5     3d1+      -0.0001   -0.0005    0.0005    0.0020    0.0024    0.0019    0.0017    0.0005    0.0001    0.0043
   126 N5     3d2+      -0.0001   -0.0094   -0.0036   -0.0001    0.0029    0.0059   -0.0052   -0.0010    0.0009    0.0003
   127 O7     1s        -0.0243    0.0014   -0.0049   -0.0018    0.0033   -0.0015    0.0025   -0.0103   -0.0039    0.0004
   128 O7     2s         0.6651   -0.1015    0.3231   -0.1517    0.1446   -0.0377    0.0803   -0.3033   -0.1012    0.0135
   129 O7     3s        -0.0313   -0.0022    0.0045   -0.0130    0.0169   -0.0074    0.0090   -0.0364   -0.0134    0.0011
   130 O7     4s        -0.0128    0.0004   -0.0016   -0.0023    0.0033   -0.0019    0.0016   -0.0070   -0.0029    0.0002
   131 O7     2px        0.0758   -0.0029   -0.0036   -0.0018    0.0174   -0.0253   -0.0416    0.1331    0.0516   -0.0146
   132 O7     3px       -0.0185    0.0032   -0.0099   -0.0078    0.0044    0.0066    0.0027   -0.0175   -0.0080    0.0008
   133 O7     4px       -0.0003    0.0010   -0.0020   -0.0019    0.0002    0.0029    0.0004   -0.0019   -0.0005   -0.0003
   134 O7     2py       -0.1221    0.0173   -0.0522   -0.0101    0.0215   -0.0136    0.0180   -0.1092   -0.0605    0.0096
   135 O7     3py        0.0408   -0.0015   -0.0002    0.0063   -0.0087    0.0032   -0.0056    0.0206    0.0064   -0.0014
   136 O7     4py        0.0004    0.0000    0.0003   -0.0014    0.0002    0.0013   -0.0004    0.0020    0.0011   -0.0004
   137 O7     2pz        0.0082   -0.0015    0.0072    0.0065   -0.0014    0.0026    0.0074   -0.0013    0.0065   -0.0031
   138 O7     3pz       -0.0030    0.0013    0.0016    0.0026    0.0042   -0.0012    0.0018    0.0000   -0.0014   -0.0018
   139 O7     4pz       -0.0000    0.0004    0.0003    0.0010    0.0011   -0.0005    0.0005    0.0003   -0.0007   -0.0004
   140 O7     3d2-      -0.0159    0.0015   -0.0036    0.0006   -0.0023    0.0027    0.0027   -0.0092   -0.0038    0.0011
   141 O7     3d1-      -0.0015    0.0003   -0.0011    0.0001    0.0003   -0.0008   -0.0004    0.0006   -0.0006   -0.0002
   142 O7     3d0       -0.0103    0.0012   -0.0046    0.0017   -0.0010   -0.0004    0.0005   -0.0031   -0.0020    0.0005
   143 O7     3d1+       0.0010   -0.0003    0.0001    0.0003   -0.0001   -0.0001    0.0001    0.0004    0.0006    0.0002
   144 O7     3d2+      -0.0090    0.0017   -0.0059   -0.0000    0.0027   -0.0034   -0.0011    0.0007   -0.0006   -0.0002
   145 O8     1s         0.0004    0.0028    0.0006    0.0030    0.0023   -0.0025    0.0135    0.0006    0.0138   -0.0190
   146 O8     2s        -0.0521   -0.3065   -0.0119    0.1750    0.0861   -0.0893    0.3500    0.0143    0.2247   -0.3154
   147 O8     3s        -0.0020   -0.0080   -0.0002    0.0127    0.0082   -0.0101    0.0425    0.0016    0.0390   -0.0537
   148 O8     4s         0.0000    0.0004   -0.0005    0.0014    0.0010   -0.0020    0.0082    0.0002    0.0078   -0.0114
   149 O8     2px        0.0003    0.0025   -0.0007   -0.0071   -0.0044    0.0006   -0.0128    0.0040   -0.0053   -0.0079
[...]
AIVX     1  Mu1.0001  In1.023 Se1.047               0.28664664      0.00072567     -0.00128380     -0.00000093
AIVX     1  Mu1.0001  In1.024 Se1.047               0.27226832      0.00073863     -0.00093908     -0.00000069
AIVX     1  Mu1.0001  In1.025 Se1.047               0.18740658      0.00071306     -0.00144912     -0.00000103
AIVX     1  Mu1.0001  In1.026 Se1.047               0.24978595      0.00005412     -0.00011609     -0.00000001
AIVX     1  Mu1.0001  In1.027 Se1.047               0.11863395      0.00062917     -0.00136892     -0.00000086
AIVX     1  Mu1.0001  In1.028 Se1.047               0.13954777     -0.00092366      0.00224777     -0.00000208
AIVX     1  Mu1.0001  In1.029 Se1.047               0.12780517     -0.00015521      0.00022561     -0.00000004
AIVX     1  Mu1.0001  In1.022 Se1.048               0.25016699     -0.00115197      0.00265698     -0.00000306
AIVX     1  Mu1.0001  In1.023 Se1.048               0.29888689      0.00078789     -0.00138397     -0.00000109
AIVX     1  Mu1.0001  In1.024 Se1.048               0.28450857      0.00105699     -0.00098074     -0.00000104
AIVX     1  Mu1.0001  In1.025 Se1.048               0.19964684      0.00105272     -0.00226870     -0.00000239
AIVX     1  Mu1.0001  In1.026 Se1.048               0.26202621      0.00011810     -0.00034494     -0.00000004
AIVX     1  Mu1.0001  In1.027 Se1.048               0.13087420      0.00061195     -0.00190554     -0.00000117
AIVX     1  Mu1.0001  In1.028 Se1.048               0.15178802      0.00005683     -0.00044462     -0.00000003
AIVX     1  Mu1.0001  In1.029 Se1.048               0.14004543     -0.00055939      0.00118748     -0.00000066
AIVX     1  Mu1.0001  In1.022 Se1.049               0.26198804      0.00043839     -0.00061134     -0.00000027
AIVX     1  Mu1.0001  In1.024 Se1.049               0.29632962      0.00081377     -0.00103511     -0.00000084
AIVX     1  Mu1.0001  In1.025 Se1.049               0.21146789      0.00322643     -0.00570845     -0.00001842
AIVX     1  Mu1.0001  In1.026 Se1.049               0.27384726     -0.00180711      0.00284889     -0.00000515
AIVX     1  Mu1.0001  In1.027 Se1.049               0.14269525      0.00107310     -0.00222445     -0.00000239
AIVX     1  Mu1.0001  In1.028 Se1.049               0.16360907     -0.00013896      0.00017357     -0.00000002
AIVX     1  Mu1.0001  In1.029 Se1.049               0.15186648     -0.00044243      0.00074046     -0.00000033
AIVX     1  Mu1.0001  In1.022 Se1.050               0.26503203      0.00050639     -0.00126630     -0.00000064
AIVX     1  Mu1.0001  In1.024 Se1.050               0.29937361     -0.00090222      0.00055197     -0.00000050
AIVX     1  Mu1.0001  In1.025 Se1.050               0.21451188     -0.00176962      0.00314286     -0.00000556
AIVX     1  Mu1.0001  In1.026 Se1.050               0.27689124      0.00198330     -0.00288726     -0.00000573
AIVX     1  Mu1.0001  In1.027 Se1.050               0.14573924      0.00029630     -0.00016941     -0.00000005
AIVX     1  Mu1.0001  In1.028 Se1.050               0.16665306      0.00071216     -0.00166293     -0.00000118
AIVX     1  Mu1.0001  In1.029 Se1.050               0.15491047      0.00135279     -0.00268325     -0.00000363
AIVX     1  Mu1.0001  In1.022 Se1.051               0.27713795      0.00195463     -0.00373711     -0.00000730
AIVX     1  Mu1.0001  In1.025 Se1.051               0.22661780     -0.00053233      0.00124685     -0.00000066
AIVX     1  Mu1.0001  In1.026 Se1.051               0.28899717      0.00153640     -0.00240113     -0.00000369
AIVX     1  Mu1.0001  In1.027 Se1.051               0.15784516      0.00015976      0.00018023      0.00000003
AIVX     1  Mu1.0001  In1.028 Se1.051               0.17875898     -0.00088415      0.00239110     -0.00000211
AIVX     1  Mu1.0001  In1.029 Se1.051               0.16701639      0.00027032     -0.00061572     -0.00000017
AIVX     1  Mu1.0001  In1.025 Se1.052               0.25924242     -0.00104919      0.00191027     -0.00000200
AIVX     1  Mu1.0001  In1.027 Se1.052               0.19046978      0.00132672     -0.00219698     -0.00000291
AIVX     1  Mu1.0001  In1.028 Se1.052               0.21138360      0.00050417     -0.00073493     -0.00000037
AIVX     1  Mu1.0001  In1.029 Se1.052               0.19964101      0.00066616     -0.00144624     -0.00000096
AIVX     1  Mu1.0001  In1.025 Se1.053               0.27135774     -0.00088364      0.00145708     -0.00000129
AIVX     1  Mu1.0001  In1.027 Se1.053               0.20258510     -0.00099188      0.00122765     -0.00000122
AIVX     1  Mu1.0001  In1.028 Se1.053               0.22349892      0.00008046     -0.00014849     -0.00000001
AIVX     1  Mu1.0001  In1.029 Se1.053               0.21175633      0.00115732     -0.00195920     -0.00000227
AIVX     1  Mu1.0001  In1.025 Se1.054               0.28974159      0.00139157     -0.00166717     -0.00000232
AIVX     1  Mu1.0001  In1.027 Se1.054               0.22096895     -0.00016829      0.00039397     -0.00000007
AIVX     1  Mu1.0001  In1.028 Se1.054               0.24188277      0.00032505     -0.00076871     -0.00000025
AIVX     1  Mu1.0001  In1.029 Se1.054               0.23014018     -0.00208771      0.00354258     -0.00000740
AIVX     1  Mu1.0001  In1.025 Se1.055               0.29338046      0.00088993     -0.00179096     -0.00000159
AIVX     1  Mu1.0001  In1.027 Se1.055               0.22460783      0.00087230     -0.00134154     -0.00000117
AIVX     1  Mu1.0001  In1.028 Se1.055               0.24552165     -0.00115000      0.00203712     -0.00000234
AIVX     1  Mu1.0001  In1.029 Se1.055               0.23377906      0.00071522     -0.00112272     -0.00000080
AIVX     1  Mu1.0001  In1.027 Se1.056               0.23964988      0.00038716     -0.00000214     -0.00000000
AIVX     1  Mu1.0001  In1.028 Se1.056               0.26056370      0.00196171     -0.00362250     -0.00000711
AIVX     1  Mu1.0001  In1.029 Se1.056               0.24882110      0.00100863     -0.00155450     -0.00000157
AIVX     1  Mu1.0001  In1.027 Se1.057               0.26122936      0.00145007     -0.00154605     -0.00000224
AIVX     1  Mu1.0001  In1.028 Se1.057               0.28214318     -0.00052206      0.00088702     -0.00000046
AIVX     1  Mu1.0001  In1.029 Se1.057               0.27040059     -0.00107646      0.00191493     -0.00000206
AIVX     1  Mu1.0001  In1.027 Se1.058               0.26324099     -0.00061536      0.00126462     -0.00000078
AIVX     1  Mu1.0001  In1.028 Se1.058               0.28415481      0.00091779     -0.00187272     -0.00000172
AIVX     1  Mu1.0001  In1.029 Se1.058               0.27241222     -0.00071174      0.00121185     -0.00000086
AIVX     1  Mu1.0001  In1.027 Se1.059               0.28335967      0.00155382     -0.00194572     -0.00000302
AIVX     1  Mu1.0001  In1.029 Se1.059               0.29253089      0.00068649     -0.00106838     -0.00000073
AIVX     1  Mu1.0001  In1.027 Se1.060               0.29926300      0.00058646     -0.00071888     -0.00000042
--
 
   (Skipping property calculation,
    use PROP keyword to activate)
--
 
  Total CASPT2 energies:
::    CASPT2 Root  1     Total energy:   -455.37747919
::    CASPT2 Root  2     Total energy:   -455.17000096
::    CASPT2 Root  3     Total energy:   -455.17404828
::    CASPT2 Root  4     Total energy:   -455.12576692
::    CASPT2 Root  5     Total energy:   -455.12920204
::    CASPT2 Root  6     Total energy:   -455.07275720
::    CASPT2 Root  7     Total energy:   -455.06972558
 
++ Multi-State CASPT2 section:
********************************************************************************
  MULTI-STATE CASPT2 SECTION
--------------------------------------------------------------------------------
 
  Output diagonal energies have been shifted. Add   -455.000000000000     
 
  Effective Hamiltonian matrix (Symmetric):
 
                1               2               3               4               5
   1        -0.37747919
   2         0.00012021     -0.17000096
   3        -0.00004488     -0.00029301     -0.17404828
   4         0.00801529      0.00024373      0.00122385     -0.12576692
   5        -0.01999446      0.00103284     -0.00003630     -0.00053250     -0.12920204
   6         0.00039894     -0.00022293      0.00069848     -0.00222628      0.00245237
   7        -0.01210437     -0.00026900      0.00003489      0.00967864     -0.01260869
 
                6               7
   6        -0.07275720
   7        -0.00071650     -0.06972558
 
       Total MS-CASPT2 energies:
::    MS-CASPT2 Root  1     Total energy:   -455.37990734
::    MS-CASPT2 Root  2     Total energy:   -455.17410665
::    MS-CASPT2 Root  3     Total energy:   -455.17000607
::    MS-CASPT2 Root  4     Total energy:   -455.13002663
::    MS-CASPT2 Root  5     Total energy:   -455.12685389
::    MS-CASPT2 Root  6     Total energy:   -455.07289631
::    MS-CASPT2 Root  7     Total energy:   -455.06518329
 
       Eigenvectors:
            0.99519278     -0.00126262      0.00273370     -0.09391259      0.01672836
           -0.00087906      0.07267535      0.99703894      0.02179712      0.01162099
            0.00042533      0.99698364     -0.07278155     -0.00725340      0.02503694
           -0.03287993     -0.02613871     -0.00419211     -0.21121878      0.96369588
            0.08149476     -0.00078421     -0.02408321      0.94799123      0.24139944
           -0.00208251     -0.00724736      0.00331162     -0.04531515      0.02691277
            0.04316892      0.00198681      0.00043004      0.21283441     -0.10606851
 
           -0.00693357     -0.02085133
           -0.00286424     -0.00353687
            0.00678516      0.00088610
           -0.00457801      0.15771501
           -0.00083597     -0.18925174
            0.97869407     -0.19827338
            0.20502182      0.94844575
 
--
 
  THE ORIGINAL CI ARRAYS ARE NOW MIXED AS LINEAR
  COMBINATIONS, GIVEN BY THE EIGENVECTORS.
  A NEW JOBIPH FILE NAMED 'JOBMIX' IS PREPARED.
********************************************************************************
 
++ Mixed CI coefficients:
  The CI coefficients for the MIXED state nr.   1
--------------------------------------------------------------------------------
 CI COEFFICIENTS LARGER THAN  0.50D-01
  Occupation of active orbitals, and spin coupling
  of open shells. (u,d: Spin up or down).
  SGUGA info is (Midvert:IsyUp:UpperWalk/LowerWalk)
        Conf  SGUGA info        Occupation    Coefficient         Weight
           1  ( 1:1:   1/   1)   22222200        0.958799       0.919296
          15  ( 1:1:  15/   1)   22222002       -0.108492       0.011770
          24  ( 2:1:   4/   1)   222u220d       -0.108056       0.011676
          64  ( 2:1:   4/   3)   2u22220d       -0.099544       0.009909
          73  ( 2:1:  13/   3)   2u222d02        0.052879       0.002796
          81  ( 2:1:   1/   4)   u22222d0        0.117260       0.013750
         141  ( 3:1:   1/   5)   22022220       -0.084466       0.007135
         175  ( 3:1:   5/   8)   20222202       -0.081182       0.006591
         191  ( 3:1:   1/  10)   02222220       -0.074223       0.005509
 
  The CI coefficients for the MIXED state nr.   2
--------------------------------------------------------------------------------
 CI COEFFICIENTS LARGER THAN  0.50D-01
  Occupation of active orbitals, and spin coupling
  of open shells. (u,d: Spin up or down).
  SGUGA info is (Midvert:IsyUp:UpperWalk/LowerWalk)
        Conf  SGUGA info        Occupation    Coefficient         Weight
           2  ( 1:1:   2/   1)   22222ud0       -0.131591       0.017316
           8  ( 1:1:   8/   1)   2222u20d        0.051348       0.002637
          21  ( 2:1:   1/   1)   222u22d0        0.907302       0.823196
          25  ( 2:1:   5/   1)   222u2dud        0.064186       0.004120
          27  ( 2:1:   7/   1)   222u2udd       -0.078337       0.006137
          35  ( 2:1:  15/   1)   222u20d2        0.091797       0.008427
          41  ( 2:1:   1/   2)   22u222d0        0.229091       0.052483
         101  ( 3:1:   1/   1)   22202220       -0.052848       0.002793
         102  ( 3:1:   2/   1)   222022ud       -0.087383       0.007636
         111  ( 3:1:   1/   2)   22ud2220        0.155386       0.024145
         131  ( 3:1:   1/   4)   u22d2220       -0.119901       0.014376
         207  ( 4:1:   1/   2)   2u2u22dd       -0.080378       0.006461
         210  ( 4:1:   4/   2)   2u2u2dd2        0.055998       0.003136
         262  ( 5:1:   2/   7)   202u22d2       -0.083040       0.006896
 
  The CI coefficients for the MIXED state nr.   3
--------------------------------------------------------------------------------
 CI COEFFICIENTS LARGER THAN  0.50D-01
  Occupation of active orbitals, and spin coupling
  of open shells. (u,d: Spin up or down).
  SGUGA info is (Midvert:IsyUp:UpperWalk/LowerWalk)
        Conf  SGUGA info        Occupation    Coefficient         Weight
           7  ( 1:1:   7/   1)   22222u0d        0.051027       0.002604
           8  ( 1:1:   8/   1)   2222u20d        0.950808       0.904035
          16  ( 1:1:  16/   1)   2222ud02       -0.129755       0.016836
          21  ( 2:1:   1/   1)   222u22d0       -0.052224       0.002727
          34  ( 2:1:  14/   1)   222ud202       -0.081081       0.006574
          74  ( 2:1:  14/   3)   2u22d202        0.158900       0.025249
          86  ( 2:1:   6/   4)   u222d2ud        0.060377       0.003645
          88  ( 2:1:   8/   4)   u222u2dd       -0.098360       0.009675
         144  ( 3:1:   4/   5)   2202u22d        0.083679       0.007002
         164  ( 3:1:   4/   7)   u2d2u22d       -0.058502       0.003422
         194  ( 3:1:   4/  10)   0222u22d        0.076669       0.005878
 
  The CI coefficients for the MIXED state nr.   4
--------------------------------------------------------------------------------
 CI COEFFICIENTS LARGER THAN  0.50D-01
  Occupation of active orbitals, and spin coupling
  of open shells. (u,d: Spin up or down).
  SGUGA info is (Midvert:IsyUp:UpperWalk/LowerWalk)
        Conf  SGUGA info        Occupation    Coefficient         Weight
           2  ( 1:1:   2/   1)   22222ud0        0.090598       0.008208
           3  ( 1:1:   3/   1)   2222u2d0       -0.135329       0.018314
           7  ( 1:1:   7/   1)   22222u0d       -0.863084       0.744914
          15  ( 1:1:  15/   1)   22222002       -0.154787       0.023959
          21  ( 2:1:   1/   1)   222u22d0       -0.054477       0.002968
          24  ( 2:1:   4/   1)   222u220d       -0.086403       0.007466
          41  ( 2:1:   1/   2)   22u222d0        0.253600       0.064313
          47  ( 2:1:   7/   2)   22u22udd       -0.058737       0.003450
          64  ( 2:1:   4/   3)   2u22220d       -0.114625       0.013139
          73  ( 2:1:  13/   3)   2u222d02       -0.227953       0.051963
          85  ( 2:1:   5/   4)   u2222dud       -0.053091       0.002819
          87  ( 2:1:   7/   4)   u2222udd        0.087001       0.007569
         143  ( 3:1:   3/   5)   22022u2d       -0.075024       0.005629
         161  ( 3:1:   1/   7)   u2d22220       -0.057987       0.003362
         163  ( 3:1:   3/   7)   u2d22u2d        0.063260       0.004002
         175  ( 3:1:   5/   8)   20222202        0.096066       0.009229
         193  ( 3:1:   3/  10)   02222u2d       -0.072202       0.005213
 
  The CI coefficients for the MIXED state nr.   5
--------------------------------------------------------------------------------
 CI COEFFICIENTS LARGER THAN  0.50D-01
  Occupation of active orbitals, and spin coupling
  of open shells. (u,d: Spin up or down).
  SGUGA info is (Midvert:IsyUp:UpperWalk/LowerWalk)
        Conf  SGUGA info        Occupation    Coefficient         Weight
           2  ( 1:1:   2/   1)   22222ud0       -0.081725       0.006679
           3  ( 1:1:   3/   1)   2222u2d0        0.326845       0.106828
           7  ( 1:1:   7/   1)   22222u0d       -0.291489       0.084966
          21  ( 2:1:   1/   1)   222u22d0        0.199970       0.039988
          24  ( 2:1:   4/   1)   222u220d       -0.102921       0.010593
          41  ( 2:1:   1/   2)   22u222d0       -0.795371       0.632616
          45  ( 2:1:   5/   2)   22u22dud       -0.052530       0.002759
          47  ( 2:1:   7/   2)   22u22udd        0.086710       0.007519
          55  ( 2:1:  15/   2)   22u220d2       -0.084165       0.007084
          73  ( 2:1:  13/   3)   2u222d02       -0.079213       0.006275
          81  ( 2:1:   1/   4)   u22222d0       -0.087669       0.007686
         152  ( 3:1:   2/   6)   2ud222ud        0.050119       0.002512
         161  ( 3:1:   1/   7)   u2d22220        0.186223       0.034679
         191  ( 3:1:   1/  10)   02222220       -0.060714       0.003686
         201  ( 4:1:   1/   1)   22uu22dd       -0.055550       0.003086
         219  ( 4:1:   1/   4)   2uu222dd        0.076619       0.005871
         222  ( 4:1:   4/   4)   2uu22dd2       -0.052803       0.002788
         294  ( 5:1:   2/  15)   20u222d2        0.074625       0.005569
 
  The CI coefficients for the MIXED state nr.   6
--------------------------------------------------------------------------------
 CI COEFFICIENTS LARGER THAN  0.50D-01
  Occupation of active orbitals, and spin coupling
  of open shells. (u,d: Spin up or down).
  SGUGA info is (Midvert:IsyUp:UpperWalk/LowerWalk)
        Conf  SGUGA info        Occupation    Coefficient         Weight
           2  ( 1:1:   2/   1)   22222ud0       -0.921794       0.849705
           3  ( 1:1:   3/   1)   2222u2d0       -0.127785       0.016329
           7  ( 1:1:   7/   1)   22222u0d       -0.056803       0.003227
          21  ( 2:1:   1/   1)   222u22d0       -0.141083       0.019905
          25  ( 2:1:   5/   1)   222u2dud       -0.153722       0.023630
          42  ( 2:1:   2/   2)   22u22d20        0.052483       0.002754
          65  ( 2:1:   5/   3)   2u222dud       -0.159686       0.025500
          67  ( 2:1:   7/   3)   2u222udd        0.153657       0.023611
          82  ( 2:1:   2/   4)   u2222d20        0.050718       0.002572
         176  ( 3:1:   6/   8)   20222ud2        0.115004       0.013226
 
  The CI coefficients for the MIXED state nr.   7
--------------------------------------------------------------------------------
 CI COEFFICIENTS LARGER THAN  0.50D-01
  Occupation of active orbitals, and spin coupling
  of open shells. (u,d: Spin up or down).
  SGUGA info is (Midvert:IsyUp:UpperWalk/LowerWalk)
        Conf  SGUGA info        Occupation    Coefficient         Weight
           2  ( 1:1:   2/   1)   22222ud0       -0.101574       0.010317
           3  ( 1:1:   3/   1)   2222u2d0        0.817273       0.667936
          10  ( 1:1:  10/   1)   2222udud       -0.169692       0.028795
          12  ( 1:1:  12/   1)   2222uudd        0.242798       0.058951
          21  ( 2:1:   1/   1)   222u22d0       -0.071078       0.005052
          26  ( 2:1:   6/   1)   222ud2ud        0.177553       0.031525
          28  ( 2:1:   8/   1)   222uu2dd        0.196499       0.038612
          41  ( 2:1:   1/   2)   22u222d0        0.337272       0.113752
         107  ( 3:1:   7/   1)   2220u2d2       -0.051268       0.002628
         161  ( 3:1:   1/   7)   u2d22220       -0.069441       0.004822
         177  ( 3:1:   7/   8)   2022u2d2       -0.062053       0.003851
         203  ( 4:1:   3/   1)   22uud22d       -0.064319       0.004137
 
--
 
--- Stop Module: caspt2 at Tue Jun 10 20:24:44 2025 /rc=_RC_ALL_IS_WELL_ ---
*** files: xmldump
    saved to directory /home/pcaah4/diamide_project
--- Module caspt2 spent 7 minutes 5 seconds ---

.##################.
.# Happy landing! #.
.##################.

    Timing: Wall=714.04 User=622.18 System=81.75
******************************************************
*** WorkDir at /srv/COMMUNAL_SCRATCH/12444 cleaned ***
******************************************************
