   This run of MOLCAS is using the pymolcas driver

                             OPE
                             OPE          NMOL  CASOP  ENMOLC A   SO
                 OPE        NMOLC        AS  OP EN  MO LC     AS  OP
                OPENM       OL CA        SO  PE NM  OL CA     SOP EN
                OP EN      MO   LC       AS  OP ENMOL  CASO   PENMOL
                OP  EN     MO   LC       AS  OP EN     MO     LC ASO
               OP   E  NMOL  C  AS       OP  EN MO     LC     AS  OP
               OP  E   NMO   LC AS        OPEN  MO     LCASOP EN   M
               O  PEN   MO  LCA  SO
            OPE   NMO   L   CAS    OP
        OPENMOL  CASOP     ENMOL   CASOPE
     OPENMOLCA   SOPENMOLCASOPEN   MOLCASOPE
    OPENMOLCAS   OP           EN   MOL    CAS
    OPENMOLCAS       OP  ENM        O     LCA
    OPENMOLCAS    OPEN  MOLCASO     P  E  NMO
    OPENMOLCAS     OP               E  N  MOL
    OPENMOLCA   SO           PENM   O  L  CAS    OPEN    MO    LCAS
    OPENMOLCA   SOP           ENM   O  L  CAS   OP  EN  MOLC  AS   O
    OPENMOLCA   SOPE           NM      O  LCA   S      OP  EN MO
    OPENMOLC                AS         O  PEN   M      OL  CA  SOPE
    OPENMO        LCASOPE  NMOL        C  ASO   P      ENMOLC     AS
    OPE     NMO      LCA  SO     P     E   NM   OL  CA SO  PE N   MO
          OPENMOLCA            SOPE   NMO        LCAS  O    P  ENMO
     OPENMOLCASOPENMOLCASOPENMOLCASOPENMOLCA
        OPENMOLCASOPENMOLCASOPENMOLCASOPE
            OPENMOLCASOPENMOLCASOPENM
               OPENMOLCASOPENMOLCA        version: v23.06
                   OPENMOLCASO
                       OPE                tag:

 OpenMolcas is free software; you can redistribute it and/or modify it
 under the terms of the GNU Lesser General Public License version 2.1.
 OpenMolcas is distributed in the hope that it will be useful, but it
 is provided "as is" and without any express or implied warranties.
 For more details see the full text of the license in the file
 LICENSE or in <http://www.gnu.org/licenses/>.

                 Copyright (C) The OpenMolcas Authors
           For the author list and the recommended citation,
                   consult the file CONTRIBUTORS.md

           *************************************************
           * pymolcas version py2.24                       *
           *   build 4567b286dd94b1984b333a4ddf893180      *
           *   (after the EMIL interpreter by V. Veryazov) *
           *************************************************

configuration info
------------------
Host name: loginchem01.nottingham.ac.uk (Linux)
C Compiler ID: Intel
C flags: -std=gnu99 -gcc-sys -qopenmp
Fortran Compiler ID: Intel
Fortran flags: -fpp -i8 -heap-arrays -qopenmp
Definitions: _MOLCAS_;_I8_;_LINUX_
Parallel: OFF (GA=OFF)


   ------------------------------------------------------------------------------------------------
  |
  |              Project: orca_geometry_optimisation_0_0_BP86_def2-SVP_def2J_scf_cas1_ras12i11_cas8
  |       Submitted from: /home/pcaah4/diamide_project
  |         Scratch area: /srv/COMMUNAL_SCRATCH/12369
  |      Save outputs to: /home/pcaah4/diamide_project
  |               Molcas: /software/chemistry/openmolcas/openmolcas-23.06-openmp
  |
  | Scratch area is empty
  |
  |       MOLCAS_DRIVER = /software/chemistry/openmolcas/openmolcas-23.06-openmp/sbin/pymolcas
  | MOLCAS_KEEP_WORKDIR = NO
  |       MOLCAS_NPROCS = 1
  |       MOLCAS_SOURCE = /software/chemistry/openmolcas/openmolcas-23.06-openmp
  |    MOLCAS_STRUCTURE = 0
  |
   ------------------------------------------------------------------------------------------------

++ ---------   Input file   ---------

&SEWARD
TITLE
orca_geometry_optimisation_0_0_BP86_def2-SVP_def2J_scf_cas1_ras12i11
MULTIPOLES
2
SDIPOLE
ANGMOM
0 0 0
BASIS SET
C.ANO-S...4S3P1D.
C1           -0.236137   -0.653907    0.005985 /Angstrom
C3            1.634998    1.167515    0.336117 /Angstrom
C4            0.921730    2.543686    0.232932 /Angstrom
C6           -1.125266    3.863349    0.000053 /Angstrom
C19          -0.311632   -2.164591   -0.210278 /Angstrom
END OF BASIS
BASIS SET
N.ANO-S...4S3P1D.
N2            1.024993   -0.175340    0.220294 /Angstrom
N5           -0.411484    2.599343    0.012522 /Angstrom
END OF BASIS
BASIS SET
O.ANO-S...4S3P1D.
O7           -1.278613    0.016519   -0.007290 /Angstrom
O8            1.669394    3.517814    0.364483 /Angstrom
END OF BASIS
BASIS SET
H.ANO-S...2S1P.
H9           -1.053413   -2.356254   -1.009291 /Angstrom
H10          -0.698101   -2.649083    0.708637 /Angstrom
H11           0.651041   -2.638792   -0.486293 /Angstrom
H12           1.742682   -0.902550    0.187877 /Angstrom
H13           2.154644    1.222677    1.317176 /Angstrom
H14           2.439831    1.234537   -0.426436 /Angstrom
H15          -0.935459    1.699572    0.004299 /Angstrom
H16          -0.387821    4.676082    0.140814 /Angstrom
H17          -1.653105    4.018811   -0.965245 /Angstrom
H18          -1.882235    3.906664    0.813059 /Angstrom
END OF BASIS
END OF INPUT

&RASSCF
TITLE
orca_geometry_optimisation_0_0_BP86_def2-SVP_def2J_scf_cas1_ras12i11
LUMORB
SPIN
1
SYMMETRY
1
NACTEL
12  0  0
INACTIVE
29
DELETED  ! delete Rydberg orbitals from an initial CAS(12,11) if done
3
FROZEN
0
RAS2
8
ITERATIONS
64 25
CIROOT
7 7
1 2 3 4 5 6 7
1 1 1 1 1 1 1
LEVSHFT
0.3
CIMX
20
FILEorb = /home/pcaah4/diamide_project/cas/ras12i11/ras_orb/orca_geometry_optimisation_0_0_BP86_def2-SVP_def2J_scf_cas1_ras12i11.RasOrb
ALTEr
0
END OF INPUT

&RASSI
NROF JOBIPH
    1 7
    1 2 3 5 4 6 7
TOFILE
TRDI
TDMN
1.0D-6
END OF INPUT

&CASPT2
TITLE
orca_geometry_optimisation_0_0_BP86_def2-SVP_def2J_scf_cas1_ras12i11
MULTISTATE
7 1 2 3 4 5 6 7
SHIFT
0.35
MAXITER
50
END OF INPUT

-- ----------------------------------

--- Start Module: seward at Tue Jun 10 16:48:55 2025 ---
 
()()()()()()()()()()()()()()()()()()()()()()()()()()()()()()()()()()()()()()()()()()()()()()()()()()

                                              &SEWARD

                                   only a single process is used
                       available to each process: 2.0 GB of memory, 1 thread
                                            pid: 3111432
()()()()()()()()()()()()()()()()()()()()()()()()()()()()()()()()()()()()()()()()()()()()()()()()()()
 
               SEWARD will generate:
                  Multipole Moment integrals up to order  2
                  Kinetic Energy integrals
                  Nuclear Attraction integrals (point charge)
                  One-Electron Hamiltonian integrals
                  Velocity integrals
                  Orbital angular momentum around ( 0.0000  0.0000  0.0000 )
                  Velocity quadrupole around ( 0.3752  2.2638  0.1981 )
                  Two-Electron Repulsion integrals
 
 Title:
              orca_geometry_optimisation_0_0_BP86_def2-SVP_def2J_scf_cas1_ras12i11      
 
 
                   Integrals are discarded if absolute value <: 0.10E-13
                   Integral cutoff threshold is set to       <: 0.10E-15
 
++    Symmetry information:
      ---------------------
 
                    Character Table for C1 
 
                             E  
                    a        1  x, y, xy, Rz, z, xz, Ry, yz, Rx, I
--
 
 
++    Basis set information:
      ----------------------
 
 
      Basis set label: C.ANO-S...4S3P1D......
 
      Electronic valence basis set:
      ------------------
      Associated Effective Charge   6.000000 au
      Associated Actual Charge      6.000000 au
      Nuclear Model: Point charge
 
      Shell  nPrim  nBasis  Cartesian Spherical Contaminant
         s      10       4        X                  
         p       6       3        X                  
         d       3       1                 X         
 
 
      Basis set label: N.ANO-S...4S3P1D......
 
      Electronic valence basis set:
      ------------------
      Associated Effective Charge   7.000000 au
      Associated Actual Charge      7.000000 au
      Nuclear Model: Point charge
 
      Shell  nPrim  nBasis  Cartesian Spherical Contaminant
         s      10       4        X                  
         p       6       3        X                  
         d       3       1                 X         
 
 
      Basis set label: O.ANO-S...4S3P1D......
 
      Electronic valence basis set:
      ------------------
      Associated Effective Charge   8.000000 au
      Associated Actual Charge      8.000000 au
      Nuclear Model: Point charge
 
      Shell  nPrim  nBasis  Cartesian Spherical Contaminant
         s      10       4        X                  
         p       6       3        X                  
         d       3       1                 X         
 
 
      Basis set label: H.ANO-S...2S1P......
 
      Electronic valence basis set:
      ------------------
      Associated Effective Charge   1.000000 au
      Associated Actual Charge      1.000000 au
      Nuclear Model: Point charge
 
      Shell  nPrim  nBasis  Cartesian Spherical Contaminant
         s       7       2        X                  
         p       3       1        X                  
--
 
 
++    Molecular structure info:
      -------------------------
 
                    ************************************************ 
                    **** Cartesian Coordinates / Bohr, Angstrom **** 
                    ************************************************ 
 
     Center  Label                x              y              z                     x              y              z
        1      C1              -0.446234      -1.235705       0.011310             -0.236137      -0.653907       0.005985
        2      C3               3.089698       2.206284       0.635169              1.634998       1.167515       0.336117
        3      C4               1.741817       4.806870       0.440178              0.921730       2.543686       0.232932
        4      C6              -2.126445       7.300672       0.000100             -1.125266       3.863349       0.000053
        5      C19             -0.588899      -4.090484      -0.397368             -0.311632      -2.164591      -0.210278
        6      N2               1.936956      -0.331345       0.416295              1.024993      -0.175340       0.220294
        7      N5              -0.777592       4.912046       0.023663             -0.411484       2.599343       0.012522
        8      O7              -2.416228       0.031216      -0.013776             -1.278613       0.016519      -0.007290
        9      O8               3.154697       6.647705       0.688773              1.669394       3.517814       0.364483
       10      H9              -1.990662      -4.452675      -1.907284             -1.053413      -2.356254      -1.009291
       11      H10             -1.319220      -5.006041       1.339130             -0.698101      -2.649083       0.708637
       12      H11              1.230289      -4.986594      -0.918961              0.651041      -2.638792      -0.486293
       13      H12              3.293192      -1.705572       0.355036              1.742682      -0.902550       0.187877
       14      H13              4.071687       2.310525       2.489102              2.154644       1.222677       1.317176
       15      H14              4.610612       2.332937      -0.805847              2.439831       1.234537      -0.426436
       16      H15             -1.767761       3.211726       0.008124             -0.935459       1.699572       0.004299
       17      H16             -0.732875       8.836514       0.266100             -0.387821       4.676082       0.140814
       18      H17             -3.123916       7.594452      -1.824049             -1.653105       4.018811      -0.965245
       19      H18             -3.556909       7.382525       1.536459             -1.882235       3.906664       0.813059
 
                    ************************************************* 
                    **** InterNuclear Distances / Bohr, Angstrom **** 
                    ************************************************* 
 
     Atom centers         Bohr        Angstrom
   13 H12       6 N2      1.931743        1.022234
   16 H15       7 N5      1.967681        1.041252
   17 H16       4 C6      2.090838        1.106424
   10 H9        5 C19     2.091881        1.106976
   12 H11       5 C19     2.093924        1.108057
   11 H10       5 C19     2.094526        1.108375
   15 H14       2 C3      2.098987        1.110736
   18 H17       4 C6      2.099708        1.111118
   14 H13       2 C3      2.100532        1.111554
   19 H18       4 C6      2.100792        1.111691
    9 O8        3 C4      2.333817        1.235003
    8 O7        1 C1      2.342348        1.239517
    7 N5        3 C4      2.555772        1.352456
    6 N2        1 C1      2.580984        1.365798
    7 N5        4 C6      2.743262        1.451672
    6 N2        2 C3      2.795761        1.479453
    5 C19       1 C1      2.887410        1.527951
    3 C4        2 C3      2.935618        1.553462
   16 H15       8 O7      3.246017        1.717718
   15 H14      14 H13     3.338807        1.766821
   11 H10      10 H9      3.360989        1.778559
   19 H18      18 H17     3.394909        1.796508
   12 H11      11 H10     3.405781        1.802262
   18 H17      17 H16     3.410061        1.804526
   12 H11      10 H9      3.411214        1.805137
   19 H18      17 H16     3.420974        1.810301
   13 H12       1 C1      3.784472        2.002656
   16 H15       3 C4      3.879214        2.052791
   13 H12       2 C3      3.927149        2.078158
   17 H16       7 N5      3.932203        2.080832
   15 H14       6 N2      3.967426        2.099471
   14 H13       6 N2      3.979080        2.105638
   14 H13       3 C4      3.982226        2.107303
   15 H14       3 C4      3.987845        2.110277
   18 H17       7 N5      4.014296        2.124274
   19 H18       7 N5      4.014526        2.124395
   10 H9        1 C1      4.051562        2.143994
   13 H12      12 H11     4.079674        2.158870
   11 H10       1 C1      4.091533        2.165146
   16 H15       4 C6      4.104656        2.172090
   12 H11       1 C1      4.212517        2.229168
    9 O8        7 N5      4.349458        2.301634
    8 O7        6 N2      4.389377        2.322758
   15 H14      13 H12     4.403726        2.330351
    9 O8        2 C3      4.442220        2.350722
   17 H16       9 O8      4.481379        2.371444
    8 O7        5 C19     4.524897        2.394472
    6 N2        5 C19     4.601426        2.434970
   14 H13      13 H12     4.614036        2.441643
   13 H12       5 C19     4.617851        2.443661
    4 C6        3 C4      4.623436        2.446617
   16 H15       1 C1      4.639621        2.455182
   17 H16       3 C4      4.732065        2.504101
    7 N5        2 C3      4.759310        2.518518
   14 H13       9 O8      4.784683        2.531945
   19 H18      16 H15     4.788781        2.534114
   15 H14       9 O8      4.792787        2.536233
   10 H9        8 O7      4.885873        2.585493
   12 H11       6 N2      4.894245        2.589923
   18 H17      16 H15     4.940071        2.614173
    2 C3        1 C1      4.973862        2.632055
   16 H15       2 C3      4.999901        2.645834
    6 N2        3 C4      5.141974        2.721016
   16 H15       6 N2      5.142459        2.721272
    8 O7        7 N5      5.148692        2.724571
   11 H10       8 O7      5.329892        2.820457
    9 O8        4 C6      5.365734        2.839424
--
 
 
            Nuclear Potential Energy            457.14575974 au
 
 
      Basis set specifications :
      Symmetry species         a  
      Basis functions          212
 
 
      Input file to MOLDEN was generated!
 
--- Stop Module: seward at Tue Jun 10 16:50:44 2025 /rc=_RC_ALL_IS_WELL_ ---
*** files: orca_geometry_optimisation_0_0_BP86_def2-SVP_def2J_scf_cas1_ras12i11_cas8.GssOrb
           orca_geometry_optimisation_0_0_BP86_def2-SVP_def2J_scf_cas1_ras12i11_cas8.guessorb.molden xmldump
    saved to directory /home/pcaah4/diamide_project
--- Module seward spent 1 minute 49 seconds ---

*** symbolic link created: INPORB -> orca_geometry_optimisation_0_0_BP86_def2-SVP_def2J_scf_cas1_ras12i11_cas8.GssOrb
--- Start Module: rasscf at Tue Jun 10 16:50:45 2025 ---
 
()()()()()()()()()()()()()()()()()()()()()()()()()()()()()()()()()()()()()()()()()()()()()()()()()()

                                              &RASSCF

                                   only a single process is used
                       available to each process: 2.0 GB of memory, 1 thread
                                            pid: 3116993
()()()()()()()()()()()()()()()()()()()()()()()()()()()()()()()()()()()()()()()()()()()()()()()()()()
 
 
      Header of the ONEINT file:
      --------------------------
      orca_geometry_optimisation_0_0_BP86_def2-SVP_def2J_scf_cas1_ras12i11
      Integrals generated by Gateway/Seward, Tue Jun 10 16:48:55 2025
 
 
      OrdInt status: non-squared
 
 
      Cartesian coordinates in Angstrom:
      -----------------------------------------------------
      No.  Label        X            Y            Z        
      -----------------------------------------------------
       1   C1        -0.23613700  -0.65390700   0.00598500
       2   C3         1.63499800   1.16751500   0.33611700
       3   C4         0.92173000   2.54368600   0.23293200
       4   C6        -1.12526600   3.86334900   0.00005300
       5   C19       -0.31163200  -2.16459100  -0.21027800
       6   N2         1.02499300  -0.17534000   0.22029400
       7   N5        -0.41148400   2.59934300   0.01252200
       8   O7        -1.27861300   0.01651900  -0.00729000
       9   O8         1.66939400   3.51781400   0.36448300
      10   H9        -1.05341300  -2.35625400  -1.00929100
      11   H10       -0.69810100  -2.64908300   0.70863700
      12   H11        0.65104100  -2.63879200  -0.48629300
      13   H12        1.74268200  -0.90255000   0.18787700
      14   H13        2.15464400   1.22267700   1.31717600
      15   H14        2.43983100   1.23453700  -0.42643600
      16   H15       -0.93545900   1.69957200   0.00429900
      17   H16       -0.38782100   4.67608200   0.14081400
      18   H17       -1.65310500   4.01881100  -0.96524500
      19   H18       -1.88223500   3.90666400   0.81305900
      -----------------------------------------------------
      Nuclear repulsion energy =  457.14575974
 
++    Wave function specifications:
      -----------------------------
 
      Number of closed shell electrons          58
      Number of electrons in active shells      12
      Max number of holes in RAS1 space          0
      Max nr of electrons in RAS3 space          0
      Number of inactive orbitals               29
      Number of active orbitals                  8
      Number of secondary orbitals             172
      Spin quantum number                      0.0
      State symmetry                             1
--
 
++    Orbital specifications:
      -----------------------
 
      Symmetry species                           1
                                                 a
      Frozen orbitals                            0
      Inactive orbitals                         29
      Active orbitals                            8
      RAS1 orbitals                              0
      RAS2 orbitals                              8
      RAS3 orbitals                              0
      Secondary orbitals                       172
      Deleted orbitals                           3
      Number of basis functions                212
--
 
++    CI expansion specifications:
      ----------------------------
 
      Number of CSFs                           336
      Number of determinants                   406
      Number of root(s) required                 7
      Root chosen for geometry opt.              7
      CI roots used                              1     2     3     4     5     6     7
      weights                                0.143 0.143 0.143 0.143 0.143 0.143 0.143
      highest root included in the CI            7
      max. size of the explicit Hamiltonian    200
--
 
++    Optimization specifications:
      ----------------------------
 
      RASSCF algorithm: Conventional
      Maximum number of macro iterations        64
      Maximum number of SX iterations           25
      Threshold for RASSCF energy            0.100E-07
      Threshold for max MO rotation          0.100E+00
      Threshold for max BLB element          0.100E-03
      Level shift parameter                  0.300E+00
      Make Quasi-Newton update
--
 
      The MO-coefficients are taken from the file:
      /home/pcaah4/diamide_project/cas/ras12i11/ras_orb/orca_geometry_optimisation_0_0_BP86_def2-SVP_def2J_scf_cas1_ras12i11.RasOrb                                                                                                                                   
      Title: RASSCF average (pseudo-natural) orbitals                                      
 
      Total molecular charge    0.00
 
      ************************************************************************************************************************
      *                                                                                                                      *
      *                                            Wave function control section                                             *
      *                                                                                                                      *
      ************************************************************************************************************************
 
 
                                         RASSCF iterations: Energy and convergence statistics
                                         ----------------------------------------------------
 
      Iter CI   SX   CI       RASSCF       Energy    max ROT     max BLB   max BLB  Level Ln srch  Step   QN   Walltime
          iter iter root      energy       change     param      element    value   shift minimum  type update hh:mm:ss
 Nr of preliminary CI iterations:   4
        1   1   11    0  -453.68790323    0.00E+00  -0.60E-01   33  40 1 -0.18E-01*  0.21   0.00    SX    NO    0:00:13
        2   3   10    0  -453.69180409   -0.39E-02* -0.33E-01   33  40 1 -0.63E-02*  0.21   0.00    SX    NO    0:00:06
        3   3   11    0  -453.69252561   -0.72E-03* -0.19E-01   33  40 1 -0.39E-02*  0.21   0.00    SX    NO    0:00:07
        4   4   10    0  -453.69273766   -0.21E-03* -0.11E-01   33  40 1 -0.13E-02*  0.21   0.00    SX    NO    0:00:06
        5   4   10    0  -453.69280625   -0.69E-04* -0.16E-01   33  40 1 -0.67E-03*  0.21   2.50    LS   YES    0:00:06
        6   4   10    0  -453.69284243   -0.36E-04* -0.20E-02   31  38 1  0.60E-03*  0.21   1.00    QN   YES    0:00:06
        7   4    9    0  -453.69284909   -0.67E-05*  0.16E-02   33  40 1  0.38E-03*  0.21   1.06    QN   YES    0:00:06
        8   3    8    0  -453.69285087   -0.18E-05*  0.15E-02   33  40 1  0.16E-03*  0.21   1.56    QN   YES    0:00:06
        9   4    8    0  -453.69285134   -0.48E-06*  0.21E-03   33  40 1 -0.49E-04   0.21   0.81    QN   YES    0:00:06
       10   3    7    0  -453.69285141   -0.73E-07*  0.16E-03   33  40 1 -0.26E-04   0.21   1.25    QN   YES    0:00:06
       11   1    7    0  -453.69285143   -0.20E-07*  0.13E-03   37  41 1  0.11E-04   0.21   1.31    QN   YES    0:00:06
       12   1    6    0  -453.69285144   -0.59E-08  -0.85E-04   37  41 1  0.65E-05   0.21   1.29    QN   YES    0:00:06
      Convergence after 12 iterations
       13   1    6    0  -453.69285144   -0.18E-08  -0.85E-04   37  41 1  0.35E-05   0.21   1.29    QN   YES    0:00:07
 
      ************************************************************************************************************************
                                                      Wave function printout:
                       occupation of active orbitals, and spin coupling of open shells (u,d: Spin up or down)
      ************************************************************************************************************************
 
      Note: transformation to natural orbitals
      has been made, which may change the order of the CSFs.
 
      printout of CI-coefficients larger than  0.05 for root  1
      energy=    -453.939550
      conf/sym  11111111     Coeff  Weight
             1  22222200   0.96154 0.92457
             2  22222ud0  -0.11446 0.01310
             3  2222u2d0  -0.08664 0.00751
             4  22222020  -0.09708 0.00942
             5  2222ud20  -0.05119 0.00262
             6  22220220  -0.08787 0.00772
            84  u222220d   0.12308 0.01515
           175  20222202  -0.07887 0.00622
           195  02222202  -0.07778 0.00605
 
      printout of CI-coefficients larger than  0.05 for root  2
      energy=    -453.721237
      conf/sym  11111111     Coeff  Weight
            21  222u22d0   0.95202 0.90635
            22  222u2d20   0.13108 0.01718
            23  222ud220   0.15160 0.02298
            24  222u220d   0.13278 0.01763
           132  u22d22ud   0.06397 0.00409
           213  u22u22dd   0.10835 0.01174
           262  202u22d2  -0.07908 0.00625
           270  022u22d2  -0.07831 0.00613
 
      printout of CI-coefficients larger than  0.05 for root  3
      energy=    -453.708729
      conf/sym  11111111     Coeff  Weight
            24  222u220d  -0.07580 0.00575
            44  22u2220d   0.94826 0.89919
            45  22u22dud  -0.07662 0.00587
            47  22u22udd  -0.12541 0.01573
            48  22u2u2dd  -0.06631 0.00440
            49  22u2202d  -0.08786 0.00772
            51  22u2ud2d  -0.05102 0.00260
            52  22u2022d  -0.08988 0.00808
           155  2ud22202   0.15460 0.02390
           165  u2d22202  -0.11571 0.01339
 
      printout of CI-coefficients larger than  0.05 for root  4
      energy=    -453.633875
      conf/sym  11111111     Coeff  Weight
             1  22222200  -0.06989 0.00488
             2  22222ud0  -0.42048 0.17680
             3  2222u2d0   0.06035 0.00364
             4  22222020   0.09407 0.00885
             5  2222ud20  -0.11650 0.01357
             7  22222u0d  -0.35913 0.12898
             9  222220ud   0.06555 0.00430
            10  2222udud  -0.05637 0.00318
            12  2222uudd  -0.05112 0.00261
            24  222u220d  -0.06728 0.00453
            64  2u22220d  -0.75301 0.56703
            65  2u222dud   0.06622 0.00438
            67  2u222udd   0.06748 0.00455
            68  2u22u2dd   0.07314 0.00535
            69  2u22202d   0.08182 0.00669
            72  2u22022d   0.06864 0.00471
            87  u2222udd  -0.05725 0.00328
           185  ud222202   0.17187 0.02954
 
      printout of CI-coefficients larger than  0.05 for root  5
      energy=    -453.629853
      conf/sym  11111111     Coeff  Weight
             7  22222u0d   0.86689 0.75150
            10  2222udud   0.14792 0.02188
            12  2222uudd   0.16587 0.02751
            14  22220u2d   0.11556 0.01335
            24  222u220d  -0.06645 0.00442
            64  2u22220d  -0.38515 0.14834
            93  u2222d02  -0.06901 0.00476
           185  ud222202   0.08994 0.00809
 
      printout of CI-coefficients larger than  0.05 for root  6
      energy=    -453.610335
      conf/sym  11111111     Coeff  Weight
             1  22222200  -0.05825 0.00339
             2  22222ud0  -0.55297 0.30578
             4  22222020   0.07405 0.00548
             5  2222ud20  -0.16023 0.02567
             7  22222u0d   0.08570 0.00734
            21  222u22d0   0.08596 0.00739
            24  222u220d  -0.65132 0.42422
            25  222u2dud  -0.12940 0.01674
            27  222u2udd  -0.19229 0.03698
            31  222uud2d  -0.05221 0.00273
            32  222u022d   0.06048 0.00366
            44  22u2220d  -0.05348 0.00286
            64  2u22220d   0.34634 0.11995
            87  u2222udd  -0.05558 0.00309
           135  u22d2202   0.05123 0.00262
           185  ud222202  -0.08252 0.00681
 
      printout of CI-coefficients larger than  0.05 for root  7
      energy=    -453.606381
      conf/sym  11111111     Coeff  Weight
             1  22222200   0.07256 0.00527
             2  22222ud0   0.60605 0.36730
             4  22222020  -0.09399 0.00883
             5  2222ud20   0.17341 0.03007
             7  22222u0d  -0.13312 0.01772
            21  222u22d0   0.09530 0.00908
            24  222u220d  -0.64111 0.41103
            25  222u2dud  -0.12263 0.01504
            27  222u2udd  -0.18233 0.03325
            32  222u022d   0.05831 0.00340
            44  22u2220d  -0.05907 0.00349
            64  2u22220d  -0.23703 0.05618
            87  u2222udd   0.06428 0.00413
           135  u22d2202   0.05157 0.00266
           176  20222ud2  -0.05371 0.00288
           185  ud222202   0.05843 0.00341
 
      Natural orbitals and occupation numbers for root  1
      sym 1:   1.974347   1.992763   1.999907   1.999848   1.993227   1.958523   0.048644   0.032740
 
      Natural orbitals and occupation numbers for root  2
      sym 1:   1.973083   1.993325   1.998355   1.002844   1.999648   1.999465   0.997851   0.035429
 
      Natural orbitals and occupation numbers for root  3
      sym 1:   1.999878   1.999553   1.003438   1.997320   1.994684   1.955760   0.051710   0.997657
 
      Natural orbitals and occupation numbers for root  4
      sym 1:   1.968162   1.170378   1.999741   1.999486   1.948095   1.811940   0.232484   0.869714
 
      Natural orbitals and occupation numbers for root  5
      sym 1:   1.994396   1.985793   1.999839   1.999219   1.920135   1.087651   0.085083   0.927884
 
      Natural orbitals and occupation numbers for root  6
      sym 1:   1.988387   1.965688   1.999630   1.405984   1.955209   1.653339   0.396112   0.635650
 
      Natural orbitals and occupation numbers for root  7
      sym 1:   1.988509   1.973167   1.999635   1.390066   1.959134   1.669443   0.636671   0.383375
 
      ************************************************************************************************************************
      *                                                                                                                      *
      *                                                    Final results                                                     *
      *                                                                                                                      *
      ************************************************************************************************************************
 
 
++    Wave function specifications:
      -----------------------------
 
      Number of closed shell electrons          58
      Number of electrons in active shells      12
      Max number of holes in RAS1 space          0
      Max nr of electrons in RAS3 space          0
      Number of inactive orbitals               29
      Number of active orbitals                  8
      Number of secondary orbitals             172
      Spin quantum number                      0.0
      State symmetry                             1
--
 
++    Orbital specifications:
      -----------------------
 
      Symmetry species                           1
                                                 a
      Frozen orbitals                            0
      Inactive orbitals                         29
      Active orbitals                            8
      RAS1 orbitals                              0
      RAS2 orbitals                              8
      RAS3 orbitals                              0
      Secondary orbitals                       172
      Deleted orbitals                           3
      Number of basis functions                212
--
 
++    CI expansion specifications:
      ----------------------------
 
      Number of CSFs                           336
      Number of determinants                   406
      Number of root(s) required                 7
      CI roots used                              1     2     3     4     5     6     7
      weights                                0.143 0.143 0.143 0.143 0.143 0.143 0.143
      highest root included in the CI            7
      Root passed to geometry opt.               7
--
 
++    Final optimization conditions:
      ------------------------------
 
      Average CI energy                            -453.69285144
      RASSCF energy for state  7                   -453.60638063
      Super-CI energy                                -0.00000000
      RASSCF energy change                            0.00000000
      Max change in MO coefficients               0.783E-04
      Max non-diagonal density matrix element    -0.849E-04
      Maximum BLB matrix element                  0.348E-05
      (orbital pair  37,  41 in symmetry   1)
      Norm of electronic gradient            0.173E+00
--
 
 
      Final state energy(ies):
      ------------------------
 
::    RASSCF root number  1 Total energy:   -453.93955017
::    RASSCF root number  2 Total energy:   -453.72123701
::    RASSCF root number  3 Total energy:   -453.70872901
::    RASSCF root number  4 Total energy:   -453.63387480
::    RASSCF root number  5 Total energy:   -453.62985321
::    RASSCF root number  6 Total energy:   -453.61033527
::    RASSCF root number  7 Total energy:   -453.60638063
 
++    Molecular orbitals:
      -------------------
 
      Pseudonatural active orbitals and approximate occupation numbers
 
 
 
 
      Molecular orbitals for symmetry species 1: a  
 
 
      Orbital                 1         2         3         4         5         6         7         8         9        10
      Energy           -20.5990  -20.5248  -15.6212  -15.5969  -11.3439  -11.3042  -11.2856  -11.2839  -11.2261   -1.4233
      Occ. No.           2.0000    2.0000    2.0000    2.0000    2.0000    2.0000    2.0000    2.0000    2.0000    2.0000
 
     1 C1     1s        -0.0002    0.0003    0.0001    0.0001   -0.0000   -0.0009    1.0000   -0.0000   -0.0051   -0.0002
     2 C1     2s        -0.0011    0.0007    0.0004    0.0004   -0.0000   -0.0018    0.0022   -0.0005   -0.0004    0.0260
     3 C1     3s        -0.0008   -0.0006    0.0002    0.0001   -0.0001   -0.0013   -0.0002   -0.0003   -0.0007    0.0095
     4 C1     4s        -0.0002   -0.0004    0.0000    0.0001   -0.0000   -0.0003    0.0013   -0.0001   -0.0002    0.0032
     5 C1     2px        0.0000   -0.0019   -0.0000    0.0012   -0.0003   -0.0010    0.0010   -0.0002    0.0000    0.0071
     6 C1     3px        0.0000   -0.0011   -0.0000    0.0009   -0.0004   -0.0010    0.0007   -0.0003    0.0001    0.0129
     7 C1     4px       -0.0000    0.0003   -0.0000   -0.0001   -0.0000   -0.0001    0.0002   -0.0001    0.0001    0.0025
     8 C1     2py        0.0003    0.0020   -0.0000    0.0007   -0.0008   -0.0007    0.0011   -0.0000   -0.0008    0.0170
     9 C1     3py        0.0004    0.0012   -0.0001    0.0004   -0.0009   -0.0010    0.0009   -0.0000   -0.0000    0.0191
    10 C1     4py        0.0001   -0.0003   -0.0001   -0.0002   -0.0001   -0.0003    0.0007   -0.0000    0.0003    0.0062
    11 C1     2pz        0.0000    0.0001    0.0000    0.0001   -0.0001   -0.0002    0.0003   -0.0001   -0.0001    0.0019
    12 C1     3pz        0.0000    0.0001    0.0000    0.0001   -0.0001   -0.0002    0.0001   -0.0001   -0.0000    0.0021
    13 C1     4pz        0.0000   -0.0000   -0.0000   -0.0000   -0.0000   -0.0000    0.0001   -0.0000    0.0000    0.0007
    14 C1     3d2-       0.0000    0.0001    0.0000   -0.0001   -0.0000   -0.0000   -0.0002    0.0000   -0.0000   -0.0007
    15 C1     3d1-      -0.0000    0.0000    0.0000   -0.0000    0.0000   -0.0000    0.0000   -0.0000   -0.0000    0.0001
    16 C1     3d0        0.0000   -0.0000   -0.0000    0.0001    0.0000   -0.0000   -0.0003   -0.0000    0.0001   -0.0011
    17 C1     3d1+       0.0000    0.0000    0.0000   -0.0001   -0.0000    0.0000    0.0001    0.0000   -0.0000    0.0001
    18 C1     3d2+      -0.0000   -0.0001    0.0000   -0.0002   -0.0000    0.0000    0.0004    0.0000   -0.0001    0.0005
    19 C3     1s         0.0002    0.0001    0.0000    0.0005    0.0068    0.9996    0.0006    0.0000    0.0000   -0.0140
    20 C3     2s         0.0011    0.0004    0.0002    0.0025    0.0004   -0.0008   -0.0004    0.0008    0.0003    0.0050
    21 C3     3s         0.0007    0.0002    0.0001    0.0012   -0.0000   -0.0022   -0.0003    0.0004    0.0002   -0.0395
    22 C3     4s         0.0001    0.0000   -0.0000    0.0001    0.0000    0.0007   -0.0001    0.0000   -0.0000   -0.0047
    23 C3     2px       -0.0003   -0.0004    0.0002   -0.0006    0.0000    0.0001    0.0006   -0.0002    0.0001   -0.0011
    24 C3     3px       -0.0001   -0.0003    0.0002   -0.0001    0.0003    0.0000    0.0007   -0.0002    0.0002    0.0063
    25 C3     4px        0.0001    0.0000    0.0000    0.0003    0.0000   -0.0007    0.0001   -0.0000    0.0001   -0.0043
    26 C3     2py       -0.0009    0.0001    0.0005   -0.0006   -0.0001   -0.0005    0.0005   -0.0002   -0.0000    0.0312
    27 C3     3py       -0.0011    0.0001    0.0003    0.0001   -0.0008   -0.0006    0.0005   -0.0006    0.0002    0.0077
    28 C3     4py       -0.0003    0.0000   -0.0002    0.0003   -0.0003   -0.0006    0.0000   -0.0002    0.0001    0.0090
    29 C3     2pz       -0.0000    0.0001    0.0001   -0.0002   -0.0000   -0.0000    0.0000   -0.0001    0.0001   -0.0006
    30 C3     3pz       -0.0000    0.0001    0.0001   -0.0000    0.0000   -0.0000    0.0001   -0.0001    0.0002    0.0004
    31 C3     4pz        0.0000    0.0000    0.0000    0.0001    0.0000   -0.0001    0.0000    0.0000    0.0000   -0.0006
    32 C3     3d2-       0.0000    0.0000    0.0000    0.0000   -0.0001   -0.0001    0.0000   -0.0001    0.0000   -0.0025
    33 C3     3d1-       0.0000    0.0000    0.0000    0.0000   -0.0000   -0.0000   -0.0000   -0.0000    0.0000   -0.0003
    34 C3     3d0       -0.0001   -0.0000   -0.0001    0.0000    0.0001    0.0001    0.0000   -0.0000   -0.0000   -0.0000
    35 C3     3d1+       0.0000    0.0000    0.0000    0.0000   -0.0000   -0.0000   -0.0000   -0.0000    0.0000   -0.0011
    36 C3     3d2+       0.0001   -0.0000   -0.0001    0.0001    0.0000   -0.0000    0.0001   -0.0000   -0.0000   -0.0062
    37 C4     1s         0.0004    0.0000    0.0002   -0.0002    1.0000   -0.0068   -0.0000    0.0002    0.0000   -0.0394
    38 C4     2s         0.0013    0.0001    0.0008   -0.0014    0.0025    0.0005   -0.0003    0.0002    0.0001    0.3543
    39 C4     3s        -0.0002    0.0001    0.0001   -0.0010    0.0000    0.0001   -0.0002    0.0001    0.0001   -0.0075
    40 C4     4s        -0.0003    0.0000   -0.0000   -0.0003    0.0013    0.0000   -0.0001   -0.0001    0.0000    0.0029
    41 C4     2px        0.0020   -0.0003   -0.0017    0.0002   -0.0005    0.0001   -0.0001    0.0002   -0.0002    0.0409
    42 C4     3px        0.0016   -0.0001   -0.0012   -0.0001   -0.0004    0.0005   -0.0001    0.0008   -0.0003   -0.0493
    43 C4     4px       -0.0001    0.0001    0.0002   -0.0002   -0.0000    0.0003   -0.0000    0.0004   -0.0001    0.0101
    44 C4     2py        0.0027   -0.0004    0.0006    0.0011    0.0007   -0.0008    0.0002    0.0000   -0.0000    0.0963
    45 C4     3py        0.0018   -0.0003    0.0004    0.0012    0.0004   -0.0000    0.0004   -0.0005    0.0001   -0.0564
    46 C4     4py       -0.0003    0.0000   -0.0001    0.0001    0.0004    0.0003    0.0002   -0.0004    0.0001    0.0226
    47 C4     2pz        0.0003   -0.0001   -0.0002    0.0001   -0.0001    0.0000   -0.0000    0.0000   -0.0001    0.0091
    48 C4     3pz        0.0003   -0.0001   -0.0002   -0.0000   -0.0000    0.0001   -0.0000    0.0001   -0.0001   -0.0076
    49 C4     4pz       -0.0000   -0.0000    0.0000   -0.0000   -0.0000    0.0001   -0.0000    0.0000   -0.0000    0.0019
    50 C4     3d2-      -0.0001   -0.0000   -0.0001    0.0000    0.0004   -0.0000   -0.0000   -0.0000   -0.0000    0.0336
    51 C4     3d1-      -0.0000    0.0000   -0.0000   -0.0000    0.0001   -0.0000   -0.0000    0.0000    0.0000    0.0060
    52 C4     3d0       -0.0000    0.0000    0.0001    0.0000   -0.0004    0.0001    0.0000   -0.0001   -0.0000   -0.0271
    53 C4     3d1+       0.0000   -0.0000   -0.0001    0.0000    0.0002   -0.0000   -0.0000    0.0000   -0.0000    0.0076
    54 C4     3d2+       0.0000    0.0000   -0.0002    0.0001    0.0002   -0.0000    0.0000    0.0001   -0.0000   -0.0024
    55 C6     1s         0.0001   -0.0001    0.0005   -0.0001   -0.0001    0.0002   -0.0001    0.9996    0.0000   -0.0100
    56 C6     2s         0.0009   -0.0006    0.0022   -0.0006    0.0004    0.0009   -0.0003   -0.0005   -0.0000    0.0064
    57 C6     3s         0.0007   -0.0004    0.0008   -0.0005    0.0002    0.0007   -0.0004   -0.0020   -0.0001   -0.0213
    58 C6     4s         0.0002   -0.0001   -0.0000   -0.0002   -0.0001    0.0002   -0.0001    0.0008   -0.0000   -0.0021
    59 C6     2px        0.0005   -0.0003    0.0003   -0.0001   -0.0002    0.0003   -0.0002   -0.0001   -0.0000    0.0116
    60 C6     3px        0.0004   -0.0002   -0.0002   -0.0001   -0.0005    0.0002   -0.0003   -0.0001   -0.0000   -0.0033
    61 C6     4px       -0.0001    0.0000   -0.0002   -0.0000   -0.0002   -0.0001   -0.0001    0.0004   -0.0000    0.0031
    62 C6     2py       -0.0001    0.0001   -0.0005    0.0002    0.0000   -0.0003    0.0001   -0.0001    0.0001   -0.0116
    63 C6     3py       -0.0001    0.0001    0.0001    0.0002    0.0000   -0.0002    0.0001    0.0003    0.0001    0.0040
    64 C6     4py       -0.0000    0.0000    0.0002   -0.0000    0.0000    0.0000    0.0000   -0.0006   -0.0000   -0.0030
    65 C6     2pz       -0.0001   -0.0000   -0.0000    0.0000   -0.0000   -0.0000   -0.0001   -0.0000   -0.0000    0.0035
    66 C6     3pz       -0.0000   -0.0000   -0.0001   -0.0000   -0.0001   -0.0000   -0.0001    0.0000   -0.0000    0.0022
    67 C6     4pz        0.0000    0.0000   -0.0000   -0.0000   -0.0000   -0.0000   -0.0000    0.0000    0.0000    0.0001
    68 C6     3d2-      -0.0000   -0.0000   -0.0000    0.0000   -0.0001   -0.0000   -0.0000    0.0000    0.0000   -0.0032
    69 C6     3d1-       0.0000   -0.0000   -0.0000    0.0000   -0.0000    0.0000   -0.0000   -0.0000    0.0000   -0.0003
    70 C6     3d0       -0.0000    0.0000    0.0001   -0.0000   -0.0000   -0.0000   -0.0000    0.0001    0.0000   -0.0022
    71 C6     3d1+       0.0000   -0.0000   -0.0000    0.0000    0.0000    0.0000    0.0000    0.0000    0.0000    0.0001
    72 C6     3d2+      -0.0000   -0.0000    0.0001   -0.0000    0.0001   -0.0000    0.0000    0.0001    0.0000   -0.0011
    73 C19    1s         0.0000    0.0001   -0.0000    0.0000   -0.0001    0.0001    0.0051    0.0000    1.0000   -0.0004
    74 C19    2s         0.0003    0.0008   -0.0003    0.0003   -0.0005    0.0007    0.0009    0.0001    0.0020    0.0021
    75 C19    3s         0.0003    0.0004   -0.0003    0.0003   -0.0004    0.0004    0.0003   -0.0000   -0.0005    0.0027
    76 C19    4s         0.0001    0.0000   -0.0001    0.0000   -0.0001    0.0000    0.0001   -0.0000    0.0012    0.0021
    77 C19    2px        0.0001    0.0006    0.0001   -0.0002    0.0001    0.0003   -0.0002    0.0001    0.0001   -0.0037
    78 C19    3px        0.0001    0.0004    0.0001   -0.0001    0.0001    0.0003   -0.0002    0.0001   -0.0000   -0.0042
    79 C19    4px       -0.0000   -0.0001    0.0000    0.0000    0.0000    0.0000   -0.0000    0.0000    0.0001   -0.0004
    80 C19    2py        0.0001    0.0001   -0.0001    0.0003   -0.0002    0.0001    0.0003   -0.0001   -0.0005    0.0033
    81 C19    3py        0.0001   -0.0000   -0.0001    0.0002   -0.0002   -0.0000   -0.0003   -0.0001   -0.0001    0.0026
    82 C19    4py       -0.0000   -0.0002    0.0000   -0.0001    0.0000   -0.0001   -0.0002   -0.0000    0.0003    0.0006
    83 C19    2pz        0.0000   -0.0000   -0.0001    0.0002   -0.0001    0.0002    0.0002    0.0000   -0.0000    0.0002
    84 C19    3pz        0.0000   -0.0001   -0.0001    0.0002   -0.0001    0.0001    0.0001    0.0000   -0.0000    0.0003
    85 C19    4pz       -0.0000   -0.0000   -0.0000   -0.0000    0.0000   -0.0000   -0.0000   -0.0000    0.0001    0.0002
    86 C19    3d2-      -0.0000    0.0001   -0.0000   -0.0000    0.0000    0.0000   -0.0000   -0.0000   -0.0000   -0.0001
    87 C19    3d1-       0.0000    0.0000    0.0000    0.0000   -0.0000   -0.0000   -0.0000   -0.0000   -0.0000   -0.0000
    88 C19    3d0       -0.0000   -0.0001   -0.0000   -0.0001    0.0000   -0.0000    0.0001    0.0000    0.0001    0.0002
    89 C19    3d1+      -0.0000    0.0000   -0.0000   -0.0000   -0.0000   -0.0000   -0.0000   -0.0000   -0.0000    0.0001
    90 C19    3d2+      -0.0000    0.0000    0.0000   -0.0000    0.0000   -0.0000   -0.0001   -0.0000    0.0001    0.0000
    91 N2     1s        -0.0001    0.0001    0.0000    0.9998    0.0001    0.0002   -0.0002   -0.0000    0.0001   -0.0011
    92 N2     2s        -0.0005    0.0005    0.0003    0.0002    0.0005    0.0024   -0.0001   -0.0002    0.0004    0.0211
    93 N2     3s        -0.0003    0.0003    0.0003   -0.0013    0.0003    0.0015   -0.0002   -0.0001    0.0003   -0.0031
    94 N2     4s        -0.0001    0.0001    0.0001    0.0005    0.0001    0.0004    0.0001   -0.0000    0.0001   -0.0015
    95 N2     2px       -0.0004    0.0006    0.0002    0.0003   -0.0002   -0.0005   -0.0001   -0.0003   -0.0003    0.0033
    96 N2     3px       -0.0006    0.0007    0.0001   -0.0000   -0.0003   -0.0007   -0.0000   -0.0005   -0.0002    0.0086
    97 N2     4px       -0.0001    0.0000   -0.0001   -0.0001   -0.0001    0.0001   -0.0002   -0.0001    0.0001    0.0021
    98 N2     2py       -0.0001   -0.0011   -0.0001   -0.0004    0.0001    0.0011    0.0007   -0.0000   -0.0003    0.0059
    99 N2     3py        0.0000   -0.0013   -0.0002    0.0005    0.0001    0.0010    0.0007   -0.0001   -0.0002   -0.0015
   100 N2     4py        0.0001    0.0000   -0.0001    0.0006   -0.0000    0.0001   -0.0002   -0.0000    0.0001   -0.0013
   101 N2     2pz       -0.0001   -0.0001   -0.0000   -0.0001   -0.0000   -0.0000    0.0001   -0.0000   -0.0001    0.0011
   102 N2     3pz       -0.0001   -0.0001   -0.0000    0.0001   -0.0001   -0.0001    0.0000   -0.0000   -0.0001    0.0020
   103 N2     4pz       -0.0000   -0.0000   -0.0000   -0.0001   -0.0000    0.0000   -0.0001   -0.0000    0.0000    0.0003
   104 N2     3d2-       0.0000    0.0000    0.0000   -0.0001    0.0000   -0.0001   -0.0000    0.0000   -0.0000    0.0000
   105 N2     3d1-      -0.0000    0.0000    0.0000    0.0000    0.0000   -0.0000   -0.0001    0.0000    0.0000   -0.0000
   106 N2     3d0       -0.0000   -0.0000    0.0000    0.0001   -0.0000    0.0000    0.0001   -0.0000   -0.0001   -0.0004
   107 N2     3d1+       0.0000    0.0000   -0.0000   -0.0000    0.0000   -0.0000   -0.0000   -0.0000    0.0000    0.0000
   108 N2     3d2+       0.0000   -0.0001   -0.0000    0.0001   -0.0000   -0.0000    0.0001   -0.0000    0.0000   -0.0004
   109 N5     1s         0.0001   -0.0001    0.9998    0.0001   -0.0003   -0.0001    0.0000    0.0001   -0.0000   -0.0180
   110 N5     2s         0.0006   -0.0004   -0.0002    0.0006   -0.0004   -0.0004    0.0001    0.0019   -0.0001    0.1080
   111 N5     3s         0.0005   -0.0003   -0.0015    0.0005   -0.0004   -0.0002    0.0001    0.0012   -0.0001   -0.0465
   112 N5     4s         0.0001   -0.0001    0.0005    0.0001    0.0000   -0.0000    0.0000    0.0004   -0.0000   -0.0109
   113 N5     2px       -0.0002   -0.0002   -0.0001   -0.0000    0.0003    0.0000   -0.0002   -0.0009   -0.0001    0.0266
   114 N5     3px       -0.0003   -0.0002   -0.0001   -0.0002    0.0002    0.0001   -0.0002   -0.0007   -0.0001   -0.0210
   115 N5     4px       -0.0001   -0.0000    0.0004   -0.0001    0.0003    0.0000   -0.0000    0.0001   -0.0000    0.0062
   116 N5     2py       -0.0017    0.0007   -0.0011    0.0002   -0.0001   -0.0004    0.0003    0.0008   -0.0000    0.0450
   117 N5     3py       -0.0021    0.0010   -0.0010    0.0003   -0.0004   -0.0005    0.0005    0.0011   -0.0001    0.0294
   118 N5     4py       -0.0001    0.0000    0.0004    0.0000   -0.0002   -0.0000    0.0001    0.0004   -0.0000   -0.0038
   119 N5     2pz       -0.0000    0.0000    0.0001    0.0000    0.0000   -0.0000    0.0000   -0.0000    0.0000    0.0059
   120 N5     3pz       -0.0000    0.0000   -0.0001    0.0000    0.0000    0.0000    0.0000    0.0000    0.0000   -0.0055
   121 N5     4pz       -0.0000    0.0000    0.0002   -0.0000    0.0001    0.0000    0.0000    0.0000    0.0000    0.0009
   122 N5     3d2-      -0.0001    0.0000    0.0002   -0.0000    0.0001    0.0000    0.0000    0.0000   -0.0000    0.0030
   123 N5     3d1-      -0.0000    0.0000   -0.0000   -0.0000    0.0000    0.0000    0.0000   -0.0000    0.0000    0.0009
   124 N5     3d0       -0.0000    0.0000   -0.0000    0.0000    0.0001   -0.0000   -0.0000    0.0001   -0.0000   -0.0023
   125 N5     3d1+      -0.0000   -0.0000    0.0000    0.0000   -0.0000    0.0000    0.0000   -0.0000    0.0000    0.0015
   126 N5     3d2+      -0.0000    0.0000    0.0000    0.0000    0.0001   -0.0000    0.0000   -0.0000    0.0000    0.0045
   127 O7     1s         0.0000    0.9998   -0.0000    0.0000   -0.0000   -0.0000   -0.0002    0.0000    0.0001   -0.0009
   128 O7     2s        -0.0000   -0.0011   -0.0003    0.0002   -0.0000   -0.0002    0.0006    0.0002    0.0004    0.0245
   129 O7     3s        -0.0001   -0.0012   -0.0002    0.0001   -0.0000   -0.0001    0.0001    0.0001    0.0003   -0.0011
   130 O7     4s        -0.0001    0.0002   -0.0001    0.0000   -0.0000   -0.0000    0.0001    0.0001    0.0001   -0.0006
   131 O7     2px        0.0000    0.0002   -0.0001   -0.0002   -0.0000   -0.0000    0.0007    0.0001    0.0002    0.0041
   132 O7     3px       -0.0000   -0.0005   -0.0001   -0.0002   -0.0000    0.0000    0.0001    0.0001    0.0002   -0.0032
   133 O7     4px       -0.0000    0.0012    0.0000   -0.0001   -0.0000    0.0000    0.0001    0.0000   -0.0000   -0.0007
   134 O7     2py       -0.0002   -0.0003   -0.0003   -0.0004    0.0001    0.0002   -0.0003    0.0000   -0.0002   -0.0006
   135 O7     3py       -0.0003    0.0000   -0.0003   -0.0004    0.0002    0.0003   -0.0003    0.0001   -0.0002   -0.0002
   136 O7     4py       -0.0001   -0.0006   -0.0000    0.0000    0.0000    0.0001   -0.0002    0.0000   -0.0000   -0.0005
   137 O7     2pz        0.0000   -0.0000   -0.0000   -0.0001   -0.0000    0.0000    0.0001    0.0000    0.0000    0.0002
   138 O7     3pz        0.0000   -0.0000   -0.0000   -0.0001   -0.0000    0.0000   -0.0001    0.0000    0.0000   -0.0001
   139 O7     4pz        0.0000    0.0000   -0.0000   -0.0000   -0.0000    0.0000   -0.0000   -0.0000    0.0000   -0.0000
   140 O7     3d2-      -0.0000    0.0001   -0.0000   -0.0000    0.0000    0.0000   -0.0002    0.0000   -0.0000   -0.0004
   141 O7     3d1-       0.0000    0.0000   -0.0000    0.0000   -0.0000   -0.0000   -0.0000   -0.0000    0.0000   -0.0000
   142 O7     3d0       -0.0000    0.0000    0.0000   -0.0000    0.0000    0.0000   -0.0001   -0.0000   -0.0000   -0.0005
   143 O7     3d1+       0.0000    0.0000   -0.0000   -0.0000   -0.0000   -0.0000    0.0000   -0.0000    0.0000    0.0000
   144 O7     3d2+      -0.0000   -0.0000    0.0000   -0.0001    0.0000   -0.0000    0.0001    0.0000   -0.0000    0.0002
   145 O8     1s         0.9997    0.0000    0.0000   -0.0000   -0.0002    0.0001    0.0000   -0.0000    0.0000   -0.0238
   146 O8     2s        -0.0015    0.0003    0.0001   -0.0002    0.0004    0.0006    0.0001   -0.0003    0.0001    0.6905
   147 O8     3s        -0.0014    0.0002    0.0001   -0.0001    0.0000    0.0004    0.0000   -0.0002    0.0001   -0.0343
   148 O8     4s         0.0001    0.0000    0.0000   -0.0000    0.0001    0.0001   -0.0000   -0.0000    0.0000   -0.0142
   149 O8     2px       -0.0002   -0.0000    0.0003    0.0000   -0.0005   -0.0001   -0.0001    0.0001   -0.0000   -0.0929
   150 O8     3px        0.0003   -0.0000    0.0004    0.0000   -0.0001   -0.0001   -0.0001    0.0000   -0.0000    0.0299
   151 O8     4px       -0.0009    0.0000    0.0001   -0.0000   -0.0001    0.0001   -0.0000   -0.0000   -0.0000    0.0021
   152 O8     2py       -0.0002   -0.0001   -0.0002   -0.0001   -0.0005   -0.0003   -0.0001   -0.0000   -0.0000   -0.1123
   153 O8     3py        0.0004   -0.0000   -0.0001   -0.0002   -0.0003   -0.0002   -0.0001   -0.0000   -0.0000    0.0347
   154 O8     4py       -0.0011    0.0000    0.0001   -0.0001   -0.0003    0.0000   -0.0000   -0.0000    0.0000    0.0001
   155 O8     2pz       -0.0000    0.0000    0.0001    0.0000   -0.0001   -0.0000   -0.0000    0.0000    0.0000   -0.0161
   156 O8     3pz        0.0001    0.0000    0.0001    0.0000   -0.0000   -0.0000   -0.0000    0.0000    0.0000    0.0049
   157 O8     4pz       -0.0002    0.0000    0.0000   -0.0000   -0.0000    0.0000   -0.0000    0.0000    0.0000    0.0002
   158 O8     3d2-      -0.0001    0.0000   -0.0000   -0.0000    0.0002    0.0000    0.0000   -0.0000    0.0000    0.0184
   159 O8     3d1-      -0.0000    0.0000   -0.0000   -0.0000    0.0000    0.0000    0.0000   -0.0000    0.0000    0.0032
   160 O8     3d0       -0.0000   -0.0000   -0.0001   -0.0000   -0.0001   -0.0001   -0.0000   -0.0000   -0.0000   -0.0103
   161 O8     3d1+       0.0000    0.0000    0.0000    0.0000    0.0000    0.0000    0.0000   -0.0000    0.0000    0.0025
   162 O8     3d2+       0.0000   -0.0000   -0.0001    0.0000   -0.0000   -0.0000    0.0000   -0.0000    0.0000   -0.0037
   163 H9     1s         0.0002    0.0001    0.0000    0.0002   -0.0001   -0.0001    0.0000   -0.0000    0.0003    0.0039
   164 H9     2s         0.0001    0.0001    0.0000    0.0001   -0.0001   -0.0001   -0.0000   -0.0000   -0.0003    0.0026
   165 H9     2px        0.0000    0.0000   -0.0000    0.0001   -0.0000   -0.0000    0.0000   -0.0000   -0.0001    0.0004
   166 H9     2py        0.0000   -0.0001   -0.0000    0.0000   -0.0000   -0.0000    0.0000   -0.0000    0.0000    0.0003
   167 H9     2pz        0.0000    0.0000    0.0000   -0.0000   -0.0000   -0.0000    0.0000   -0.0000   -0.0001    0.0002
   168 H10    1s         0.0001    0.0002    0.0002   -0.0001   -0.0001   -0.0004   -0.0003   -0.0001    0.0002    0.0053
   169 H10    2s         0.0001    0.0001    0.0001   -0.0001   -0.0001   -0.0003   -0.0001   -0.0001   -0.0003    0.0036
   170 H10    2px       -0.0000    0.0000   -0.0000    0.0000   -0.0000   -0.0000   -0.0000   -0.0000   -0.0000    0.0003
   171 H10    2py        0.0000   -0.0000    0.0000   -0.0000   -0.0000   -0.0000    0.0000   -0.0000   -0.0000    0.0005
   172 H10    2pz       -0.0000   -0.0000   -0.0000   -0.0000    0.0000    0.0000    0.0000    0.0000    0.0001   -0.0003
   173 H11    1s        -0.0001   -0.0003   -0.0001    0.0002   -0.0002   -0.0003    0.0001   -0.0001    0.0001    0.0065
   174 H11    2s        -0.0000   -0.0002   -0.0001    0.0002   -0.0001   -0.0002    0.0000   -0.0000   -0.0004    0.0043
   175 H11    2px        0.0000   -0.0000    0.0000   -0.0000    0.0000    0.0000   -0.0000    0.0000    0.0001   -0.0005
   176 H11    2py       -0.0000   -0.0000   -0.0000   -0.0000   -0.0000   -0.0000    0.0000   -0.0000   -0.0000    0.0002
   177 H11    2pz       -0.0000   -0.0000    0.0000   -0.0000   -0.0000   -0.0000    0.0000   -0.0000   -0.0000    0.0002
   178 H12    1s         0.0001   -0.0009   -0.0003   -0.0002   -0.0001    0.0005    0.0006    0.0002   -0.0002    0.0042
   179 H12    2s         0.0001   -0.0005   -0.0002   -0.0002   -0.0000    0.0003    0.0002    0.0001   -0.0001   -0.0004
   180 H12    2px        0.0000    0.0000    0.0000    0.0003    0.0000    0.0000   -0.0002   -0.0000   -0.0000   -0.0005
   181 H12    2py       -0.0000   -0.0000   -0.0000   -0.0003   -0.0000    0.0001   -0.0000    0.0000   -0.0000    0.0010
   182 H12    2pz        0.0000   -0.0000   -0.0000   -0.0000   -0.0000    0.0000   -0.0000    0.0000   -0.0000    0.0000
   183 H13    1s        -0.0004    0.0002    0.0002   -0.0004   -0.0002    0.0008   -0.0003   -0.0002   -0.0001    0.0252
   184 H13    2s        -0.0002    0.0001    0.0001   -0.0002   -0.0001    0.0000   -0.0003   -0.0001   -0.0001    0.0069
   185 H13    2px        0.0000   -0.0000   -0.0000    0.0000   -0.0000   -0.0000    0.0000    0.0000   -0.0000   -0.0013
   186 H13    2py       -0.0001   -0.0000   -0.0000    0.0000    0.0001   -0.0000    0.0000   -0.0000    0.0000    0.0015
   187 H13    2pz        0.0000   -0.0000    0.0000   -0.0000   -0.0000   -0.0000    0.0001    0.0000    0.0000   -0.0020
   188 H14    1s        -0.0004    0.0002    0.0002   -0.0005   -0.0002    0.0007   -0.0004   -0.0003    0.0000    0.0247
   189 H14    2s        -0.0002    0.0001    0.0002   -0.0002   -0.0001    0.0000   -0.0004   -0.0002    0.0000    0.0065
   190 H14    2px        0.0000   -0.0000   -0.0000    0.0000   -0.0000   -0.0000    0.0000    0.0000   -0.0000   -0.0018
   191 H14    2py       -0.0001   -0.0000   -0.0000    0.0000    0.0001   -0.0000    0.0000   -0.0000    0.0000    0.0014
   192 H14    2pz       -0.0000    0.0000   -0.0000    0.0000    0.0000    0.0000   -0.0001   -0.0000   -0.0000    0.0015
   193 H15    1s        -0.0010    0.0011   -0.0003    0.0003    0.0001   -0.0005    0.0000   -0.0007    0.0001    0.0344
   194 H15    2s        -0.0005    0.0007   -0.0002    0.0002   -0.0001   -0.0003    0.0000   -0.0004    0.0001   -0.0018
   195 H15    2px       -0.0000    0.0001   -0.0002    0.0000    0.0002    0.0000    0.0000   -0.0001    0.0000    0.0032
   196 H15    2py       -0.0001   -0.0002   -0.0004    0.0000    0.0000   -0.0000   -0.0001   -0.0000    0.0000    0.0045
   197 H15    2pz        0.0000    0.0000    0.0000    0.0000    0.0000    0.0000    0.0000   -0.0000   -0.0000    0.0002
   198 H16    1s        -0.0002    0.0001   -0.0004   -0.0002   -0.0001   -0.0000   -0.0001    0.0010   -0.0001    0.0132
   199 H16    2s        -0.0001    0.0001   -0.0002   -0.0001    0.0000    0.0000   -0.0001    0.0001   -0.0000   -0.0020
   200 H16    2px        0.0000   -0.0000    0.0000    0.0000    0.0000    0.0000   -0.0000   -0.0001    0.0000    0.0002
   201 H16    2py        0.0000   -0.0000    0.0000    0.0000    0.0000    0.0000    0.0000   -0.0001    0.0000   -0.0013
   202 H16    2pz        0.0000   -0.0000    0.0000    0.0000    0.0000    0.0000    0.0000   -0.0000    0.0000   -0.0002
   203 H17    1s         0.0003   -0.0002   -0.0006   -0.0000   -0.0003    0.0000   -0.0002    0.0006   -0.0000    0.0095
   204 H17    2s         0.0002   -0.0001   -0.0003   -0.0000   -0.0002    0.0000   -0.0001   -0.0001   -0.0000    0.0016
   205 H17    2px        0.0000    0.0000   -0.0001    0.0000   -0.0000    0.0000    0.0000    0.0000   -0.0000    0.0007
   206 H17    2py       -0.0000    0.0000    0.0000   -0.0000    0.0000    0.0000    0.0000   -0.0000   -0.0000   -0.0004
   207 H17    2pz        0.0000   -0.0000   -0.0000   -0.0000   -0.0000    0.0000   -0.0000   -0.0000   -0.0000    0.0008
   208 H18    1s         0.0005   -0.0002   -0.0006   -0.0000   -0.0003    0.0001   -0.0001    0.0006   -0.0000    0.0060
   209 H18    2s         0.0003   -0.0002   -0.0003   -0.0000   -0.0002    0.0001   -0.0001   -0.0001   -0.0000   -0.0005
   210 H18    2px        0.0000   -0.0000   -0.0001    0.0000   -0.0000    0.0000   -0.0000    0.0000   -0.0000    0.0006
   211 H18    2py       -0.0000    0.0000    0.0000   -0.0000    0.0000    0.0000   -0.0000   -0.0000    0.0000   -0.0004
   212 H18    2pz       -0.0000    0.0000    0.0000    0.0000    0.0000   -0.0000    0.0000    0.0000    0.0000   -0.0005
 
 
      Orbital                11        12        13        14        15        16        17        18        19        20
      Energy            -1.3628   -1.2503   -1.2232   -1.0176   -0.9666   -0.9323   -0.8171   -0.7769   -0.7106   -0.6924
      Occ. No.           2.0000    2.0000    2.0000    2.0000    2.0000    2.0000    2.0000    2.0000    2.0000    2.0000
 
     1 C1     1s        -0.0393    0.0056   -0.0086   -0.0124   -0.0096    0.0014    0.0104   -0.0116   -0.0056   -0.0075
     2 C1     2s         0.3498   -0.0057    0.1184    0.2251    0.1419    0.0000   -0.2332    0.2858    0.1622    0.1925
     3 C1     3s        -0.0071    0.0159   -0.0013   -0.0045   -0.0147   -0.0011    0.0028   -0.0009   -0.0073   -0.0120
     4 C1     4s         0.0024    0.0041   -0.0001   -0.0022   -0.0029    0.0009    0.0024   -0.0015   -0.0025   -0.0052
     5 C1     2px       -0.0725    0.0318    0.1518    0.0657   -0.0148   -0.0720   -0.0715    0.1244   -0.0928   -0.0660
     6 C1     3px        0.0426   -0.0042   -0.0437   -0.0561   -0.0410    0.0426   -0.0139   -0.0423    0.0384    0.0343
     7 C1     4px       -0.0225    0.0067    0.0310    0.0014   -0.0064   -0.0061   -0.0081    0.0064   -0.0080   -0.0040
     8 C1     2py        0.0714    0.0198    0.0165   -0.0909   -0.1124   -0.0780   -0.0344    0.0792    0.0544   -0.0908
     9 C1     3py       -0.0383    0.0399    0.0294   -0.0234    0.0327    0.0649    0.0380    0.0128   -0.0266    0.0164
    10 C1     4py        0.0184    0.0077    0.0036   -0.0193   -0.0148   -0.0044    0.0012    0.0124   -0.0004   -0.0019
    11 C1     2pz        0.0038    0.0044    0.0153   -0.0005   -0.0171   -0.0190   -0.0174    0.0273    0.0034   -0.0175
    12 C1     3pz       -0.0042    0.0037   -0.0043   -0.0068   -0.0034    0.0116    0.0009   -0.0039    0.0021    0.0046
    13 C1     4pz       -0.0002    0.0013    0.0033   -0.0015   -0.0035   -0.0020   -0.0019    0.0020   -0.0001   -0.0006
    14 C1     3d2-      -0.0272    0.0068    0.0266    0.0087    0.0025   -0.0063   -0.0039    0.0161    0.0035   -0.0148
    15 C1     3d1-       0.0013    0.0003    0.0028    0.0028    0.0026    0.0008   -0.0019    0.0040    0.0028   -0.0006
    16 C1     3d0       -0.0273    0.0023   -0.0054   -0.0093   -0.0051    0.0020    0.0093   -0.0095   -0.0047   -0.0053
    17 C1     3d1+       0.0028    0.0003    0.0058    0.0039    0.0002   -0.0036   -0.0036    0.0049   -0.0001   -0.0007
    18 C1     3d2+       0.0180   -0.0016    0.0093    0.0025   -0.0110   -0.0162   -0.0083   -0.0010   -0.0078    0.0025
    19 C3     1s        -0.0077   -0.0080   -0.0319    0.0431    0.0034   -0.0276   -0.0023   -0.0020   -0.0045   -0.0061
    20 C3     2s         0.0220    0.0359    0.1713   -0.3388   -0.0268    0.3257    0.0491    0.0970    0.1144    0.0413
    21 C3     3s        -0.0132   -0.0118   -0.0568    0.0816    0.0071   -0.0360   -0.0010    0.0024   -0.0018   -0.0199
    22 C3     4s        -0.0012    0.0005   -0.0120    0.0197    0.0025   -0.0083   -0.0008   -0.0011   -0.0018   -0.0055
    23 C3     2px       -0.0174   -0.0383   -0.0460    0.0058   -0.0317    0.0419    0.0634   -0.0348    0.0029    0.2403
    24 C3     3px       -0.0034   -0.0025    0.0089   -0.0243   -0.0173   -0.0021   -0.0066   -0.0030    0.0032   -0.0246
    25 C3     4px       -0.0014    0.0055    0.0082   -0.0168   -0.0080    0.0159    0.0033    0.0028    0.0015    0.0072
    26 C3     2py       -0.0286    0.0029   -0.1067   -0.0405    0.0327    0.0357   -0.1595    0.1943   -0.1929    0.0457
    27 C3     3py       -0.0141    0.0202   -0.0167    0.0040   -0.0730   -0.0277   -0.0042   -0.0153    0.0462   -0.0258
    28 C3     4py       -0.0077    0.0102   -0.0132   -0.0098   -0.0042    0.0024   -0.0113    0.0071    0.0020   -0.0015
    29 C3     2pz       -0.0097   -0.0063   -0.0121   -0.0038   -0.0090    0.0037    0.0042    0.0067    0.0148    0.0280
    30 C3     3pz       -0.0072   -0.0005   -0.0015   -0.0091   -0.0079   -0.0043   -0.0027   -0.0014    0.0006   -0.0036
    31 C3     4pz       -0.0008    0.0008    0.0003   -0.0036   -0.0015    0.0022   -0.0000    0.0012    0.0013    0.0008
    32 C3     3d2-       0.0030   -0.0022    0.0142    0.0090   -0.0127   -0.0068    0.0125   -0.0077    0.0218   -0.0067
    33 C3     3d1-       0.0005   -0.0002    0.0031    0.0012   -0.0023   -0.0010    0.0025   -0.0023    0.0024   -0.0008
    34 C3     3d0       -0.0027   -0.0028   -0.0115    0.0070    0.0009    0.0003    0.0009    0.0016    0.0005    0.0177
    35 C3     3d1+       0.0002    0.0011    0.0014   -0.0006    0.0001   -0.0010   -0.0012    0.0014    0.0018   -0.0048
    36 C3     3d2+      -0.0017    0.0014   -0.0146    0.0075    0.0045   -0.0033   -0.0050    0.0103    0.0088    0.0061
    37 C4     1s         0.0019   -0.0094    0.0044    0.0099   -0.0107    0.0043    0.0168    0.0029    0.0056    0.0007
    38 C4     2s         0.0026    0.1569    0.0330   -0.2352    0.2129    0.0371   -0.3448   -0.0861   -0.2307   -0.0700
    39 C4     3s         0.0048    0.0049    0.0190    0.0036   -0.0034    0.0145    0.0269   -0.0068    0.0060   -0.0086
    40 C4     4s         0.0017    0.0025    0.0054    0.0031   -0.0020    0.0032    0.0087   -0.0031    0.0025   -0.0003
    41 C4     2px       -0.0050   -0.1825    0.0366   -0.0114   -0.0378    0.1029    0.0560    0.1551   -0.1912    0.1404
    42 C4     3px        0.0129    0.0118    0.0070   -0.0112    0.0861   -0.0532    0.0046   -0.0629    0.0670   -0.0090
    43 C4     4px       -0.0008   -0.0387    0.0084   -0.0035    0.0028    0.0051    0.0085    0.0056   -0.0120    0.0139
    44 C4     2py       -0.0139   -0.0202   -0.0427    0.1505   -0.0843   -0.0544   -0.0210   -0.1452   -0.0066    0.1086
    45 C4     3py        0.0015    0.0579   -0.0090   -0.0123   -0.0495    0.0637   -0.0244    0.0538   -0.0038   -0.0478
    46 C4     4py       -0.0052   -0.0010   -0.0075    0.0142   -0.0150    0.0031   -0.0057   -0.0053   -0.0061    0.0022
    47 C4     2pz        0.0032   -0.0256    0.0068    0.0036   -0.0065    0.0187    0.0123    0.0265   -0.0315    0.0244
    48 C4     3pz        0.0072    0.0044    0.0034    0.0025    0.0138   -0.0039    0.0014   -0.0091    0.0089   -0.0018
    49 C4     4pz        0.0006   -0.0058    0.0016    0.0004   -0.0002    0.0015    0.0016    0.0012   -0.0024    0.0022
    50 C4     3d2-      -0.0024   -0.0176   -0.0011    0.0120   -0.0003   -0.0147    0.0130    0.0003   -0.0174   -0.0064
    51 C4     3d1-      -0.0006   -0.0030   -0.0001    0.0017   -0.0001   -0.0023    0.0020   -0.0002   -0.0034   -0.0008
    52 C4     3d0        0.0005   -0.0066    0.0004    0.0094   -0.0087    0.0001    0.0116    0.0028    0.0061    0.0011
    53 C4     3d1+       0.0000    0.0056   -0.0013   -0.0027    0.0051   -0.0027   -0.0044   -0.0033    0.0006   -0.0007
    54 C4     3d2+       0.0013    0.0263   -0.0071    0.0003    0.0135   -0.0142   -0.0024   -0.0122    0.0103    0.0002
    55 C6     1s         0.0007   -0.0337    0.0088   -0.0270    0.0383   -0.0299    0.0080   -0.0041    0.0058    0.0078
    56 C6     2s         0.0187    0.1505   -0.0175    0.1977   -0.3256    0.2780   -0.1313   -0.0042   -0.0297   -0.0759
    57 C6     3s         0.0102   -0.0567    0.0255   -0.0434    0.0638   -0.0452    0.0156   -0.0142    0.0156    0.0247
    58 C6     4s         0.0035   -0.0086    0.0065   -0.0088    0.0144   -0.0089    0.0056   -0.0030    0.0029    0.0077
    59 C6     2px        0.0058    0.0549   -0.0098    0.0152    0.0096   -0.0196   -0.0333   -0.1033    0.1431    0.1309
    60 C6     3px        0.0047   -0.0123    0.0064   -0.0088    0.0138   -0.0023   -0.0026    0.0057   -0.0149   -0.0179
    61 C6     4px        0.0008   -0.0013    0.0027   -0.0063    0.0121   -0.0071    0.0002   -0.0071    0.0059    0.0080
    62 C6     2py       -0.0098   -0.0917    0.0096   -0.0249    0.0024    0.0193   -0.1322   -0.0482   -0.0320   -0.2619
    63 C6     3py       -0.0045    0.0137   -0.0113    0.0122   -0.0107   -0.0014   -0.0003   -0.0010    0.0127    0.0374
    64 C6     4py        0.0001   -0.0020   -0.0005    0.0084   -0.0133    0.0121   -0.0114   -0.0034   -0.0009   -0.0116
    65 C6     2pz        0.0003    0.0021   -0.0007   -0.0011    0.0051   -0.0023   -0.0081   -0.0107    0.0090   -0.0070
    66 C6     3pz        0.0002   -0.0006    0.0000   -0.0019    0.0040   -0.0008    0.0002    0.0018   -0.0010    0.0010
    67 C6     4pz       -0.0001   -0.0001    0.0002   -0.0008    0.0009   -0.0006   -0.0003   -0.0007    0.0004    0.0001
    68 C6     3d2-      -0.0011   -0.0183    0.0032   -0.0043   -0.0002    0.0033   -0.0073    0.0026   -0.0088   -0.0254
    69 C6     3d1-      -0.0001   -0.0009    0.0000    0.0003   -0.0007    0.0004   -0.0001   -0.0001    0.0006    0.0001
    70 C6     3d0       -0.0006   -0.0114    0.0027   -0.0049    0.0024    0.0010   -0.0030    0.0050   -0.0110   -0.0166
    71 C6     3d1+      -0.0001    0.0003   -0.0002    0.0003   -0.0002   -0.0002   -0.0016   -0.0022    0.0021    0.0002
    72 C6     3d2+      -0.0006   -0.0109    0.0021   -0.0037    0.0029    0.0003   -0.0150   -0.0083   -0.0007   -0.0169
    73 C19    1s        -0.0150    0.0007   -0.0106   -0.0339   -0.0494   -0.0406   -0.0143    0.0086    0.0005    0.0082
    74 C19    2s        -0.0054   -0.0012   -0.0039    0.1678    0.3029    0.2634    0.0970   -0.0454    0.0086   -0.0754
    75 C19    3s        -0.0387    0.0073   -0.0319   -0.0678   -0.0917   -0.0748   -0.0290    0.0262   -0.0011    0.0138
    76 C19    4s        -0.0033    0.0035   -0.0045   -0.0138   -0.0198   -0.0163   -0.0071    0.0078   -0.0011    0.0035
    77 C19    2px       -0.0153    0.0038    0.0161    0.0329    0.0155   -0.0157   -0.0075    0.0258   -0.0655   -0.0059
    78 C19    3px       -0.0035   -0.0005   -0.0045    0.0161    0.0069   -0.0059    0.0043    0.0012    0.0039   -0.0031
    79 C19    4px        0.0053   -0.0008   -0.0004    0.0007   -0.0046   -0.0071    0.0003   -0.0015   -0.0052    0.0020
    80 C19    2py        0.0196    0.0053    0.0174    0.0438    0.0312    0.0023   -0.0625    0.0623    0.0247    0.1692
    81 C19    3py       -0.0087    0.0087   -0.0031   -0.0155   -0.0236   -0.0127    0.0064   -0.0054   -0.0087   -0.0213
    82 C19    4py        0.0071    0.0004    0.0008   -0.0069   -0.0169   -0.0165   -0.0106    0.0086    0.0020    0.0079
    83 C19    2pz       -0.0018   -0.0014   -0.0005    0.0057    0.0023   -0.0112   -0.0108    0.0100   -0.0023    0.0234
    84 C19    3pz       -0.0045   -0.0011   -0.0050   -0.0041   -0.0055   -0.0114    0.0010   -0.0046   -0.0049   -0.0009
    85 C19    4pz        0.0014   -0.0000    0.0002   -0.0007   -0.0021   -0.0026   -0.0013    0.0011   -0.0002    0.0014
    86 C19    3d2-      -0.0036    0.0008    0.0059    0.0036    0.0014   -0.0025   -0.0025    0.0039   -0.0004    0.0017
    87 C19    3d1-       0.0002    0.0001    0.0013    0.0031    0.0032    0.0015   -0.0015    0.0020   -0.0003    0.0037
    88 C19    3d0        0.0009   -0.0001   -0.0007   -0.0053   -0.0055   -0.0027    0.0021   -0.0025    0.0024   -0.0065
    89 C19    3d1+      -0.0002    0.0001    0.0008    0.0002    0.0003    0.0005    0.0002   -0.0005    0.0017    0.0011
    90 C19    3d2+      -0.0054    0.0008   -0.0021   -0.0081   -0.0076   -0.0031    0.0059   -0.0054   -0.0046   -0.0144
    91 N2     1s        -0.0194   -0.0050   -0.0408   -0.0051    0.0006    0.0011   -0.0017    0.0029    0.0011   -0.0042
    92 N2     2s         0.1312    0.0577    0.5767    0.0896   -0.1441   -0.2105    0.0323   -0.0988   -0.0282   -0.1277
    93 N2     3s        -0.0490   -0.0110   -0.0744   -0.0030   -0.0092   -0.0153   -0.0029    0.0040   -0.0007   -0.0202
    94 N2     4s        -0.0119   -0.0035   -0.0252   -0.0001    0.0004   -0.0013   -0.0015    0.0023   -0.0003   -0.0023
    95 N2     2px       -0.0368    0.0124   -0.0118   -0.0855   -0.0769    0.0616    0.1912   -0.3588   -0.0835    0.0770
    96 N2     3px        0.0097    0.0138   -0.0066    0.0369   -0.0250   -0.0445   -0.0727    0.0836    0.0153   -0.0165
    97 N2     4px       -0.0049    0.0036    0.0027   -0.0023   -0.0095   -0.0050   -0.0013   -0.0027   -0.0037   -0.0013
    98 N2     2py        0.0127   -0.0019   -0.0327   -0.1430   -0.0610    0.0726    0.0338    0.0053    0.2985   -0.1793
    99 N2     3py        0.0071   -0.0159   -0.0469    0.0497   -0.0136   -0.0630   -0.0439   -0.0048   -0.0556    0.0422
   100 N2     4py       -0.0107   -0.0007   -0.0136   -0.0025   -0.0033   -0.0052   -0.0075    0.0039   -0.0028    0.0037
   101 N2     2pz        0.0023    0.0002   -0.0117   -0.0190   -0.0111    0.0155    0.0244   -0.0329    0.0306   -0.0072
   102 N2     3pz        0.0086    0.0020    0.0022    0.0107   -0.0014   -0.0066   -0.0092    0.0069   -0.0060    0.0029
   103 N2     4pz       -0.0009    0.0006   -0.0004   -0.0002   -0.0010   -0.0004   -0.0005    0.0001   -0.0011    0.0001
   104 N2     3d2-       0.0014    0.0014    0.0120    0.0003    0.0017    0.0036   -0.0033    0.0121    0.0151   -0.0040
   105 N2     3d1-      -0.0005    0.0005    0.0037    0.0009    0.0001   -0.0001    0.0003   -0.0000   -0.0003    0.0003
   106 N2     3d0       -0.0031   -0.0017   -0.0161   -0.0005    0.0033    0.0030   -0.0011    0.0015    0.0002    0.0010
   107 N2     3d1+       0.0012    0.0005    0.0042    0.0019   -0.0000   -0.0018   -0.0024    0.0046    0.0014   -0.0006
   108 N2     3d2+       0.0059   -0.0003    0.0011    0.0087   -0.0008   -0.0092   -0.0089    0.0109   -0.0026    0.0057
   109 N5     1s        -0.0025   -0.0407    0.0052   -0.0002   -0.0001   -0.0007    0.0008    0.0022    0.0015    0.0020
   110 N5     2s         0.0349    0.5874   -0.1095    0.0280    0.1221   -0.1841    0.2223    0.0475    0.1013    0.1573
   111 N5     3s        -0.0034   -0.0759    0.0076   -0.0041    0.0185   -0.0195    0.0120    0.0070    0.0106    0.0139
   112 N5     4s        -0.0011   -0.0255    0.0037   -0.0028    0.0044   -0.0023    0.0000    0.0009    0.0003    0.0010
   113 N5     2px        0.0065    0.0329    0.0148   -0.0875    0.1553   -0.0712   -0.2884   -0.2735    0.1271   -0.1886
   114 N5     3px        0.0159   -0.0134    0.0200    0.0266   -0.0411    0.0409    0.0746    0.0473   -0.0191    0.0463
   115 N5     4px        0.0029   -0.0026    0.0051   -0.0055    0.0037    0.0021    0.0002    0.0001   -0.0023    0.0051
   116 N5     2py       -0.0189   -0.0043   -0.0118    0.0954   -0.1011    0.0938   -0.1587   -0.1923    0.1585    0.2650
   117 N5     3py       -0.0116   -0.0385   -0.0065   -0.0459    0.0862   -0.0568    0.0504    0.0384   -0.0449   -0.0424
   118 N5     4py       -0.0014   -0.0068   -0.0029   -0.0031    0.0087   -0.0065    0.0009    0.0030   -0.0028   -0.0044
   119 N5     2pz        0.0001    0.0163   -0.0014   -0.0112    0.0198   -0.0130   -0.0338   -0.0348    0.0144   -0.0235
   120 N5     3pz       -0.0013   -0.0076    0.0019    0.0003   -0.0057    0.0021    0.0081    0.0040   -0.0009    0.0065
   121 N5     4pz       -0.0003   -0.0004    0.0004   -0.0014    0.0003   -0.0001   -0.0001   -0.0004   -0.0001    0.0007
   122 N5     3d2-       0.0001   -0.0070   -0.0004   -0.0019    0.0059   -0.0093    0.0064    0.0003   -0.0056   -0.0065
   123 N5     3d1-      -0.0002   -0.0006   -0.0001    0.0009   -0.0006   -0.0001   -0.0006   -0.0017    0.0006    0.0013
   124 N5     3d0       -0.0014   -0.0171    0.0032   -0.0013   -0.0009    0.0032   -0.0022    0.0003   -0.0019   -0.0014
   125 N5     3d1+       0.0002    0.0051   -0.0007   -0.0014    0.0031   -0.0024   -0.0040   -0.0040    0.0019   -0.0027
   126 N5     3d2+      -0.0006    0.0059   -0.0005   -0.0069    0.0122   -0.0069   -0.0156   -0.0129    0.0028   -0.0122
   127 O7     1s        -0.0229    0.0019    0.0027   -0.0030   -0.0031   -0.0016    0.0059   -0.0078   -0.0123   -0.0087
   128 O7     2s         0.6877   -0.0976   -0.3138   -0.1695   -0.1474   -0.0227    0.1418   -0.2427   -0.2450   -0.1452
   129 O7     3s        -0.0265   -0.0018   -0.0136   -0.0181   -0.0158   -0.0101    0.0192   -0.0288   -0.0396   -0.0261
   130 O7     4s        -0.0133   -0.0007   -0.0011   -0.0033   -0.0026   -0.0034    0.0028   -0.0058   -0.0078   -0.0049
   131 O7     2px        0.1235   -0.0158   -0.0233    0.0098    0.0001   -0.0238   -0.1069    0.1314    0.2105    0.1085
   132 O7     3px       -0.0362   -0.0023   -0.0027   -0.0062   -0.0041   -0.0072    0.0107   -0.0166   -0.0204   -0.0104
   133 O7     4px       -0.0033   -0.0022    0.0001    0.0000    0.0009   -0.0005   -0.0010   -0.0039   -0.0013   -0.0006
   134 O7     2py       -0.0595    0.0231    0.0290   -0.0119   -0.0221   -0.0679    0.0837    0.0281   -0.1695   -0.1565
   135 O7     3py        0.0240   -0.0035   -0.0066    0.0117    0.0137   -0.0131   -0.0040    0.0059    0.0134    0.0198
   136 O7     4py       -0.0014   -0.0008   -0.0026    0.0016    0.0028   -0.0020    0.0002    0.0006    0.0040    0.0044
   137 O7     2pz        0.0070    0.0004    0.0037    0.0021   -0.0013   -0.0070   -0.0069    0.0157    0.0083   -0.0073
   138 O7     3pz        0.0007    0.0005    0.0010    0.0011    0.0011    0.0002    0.0005   -0.0006   -0.0007    0.0008
   139 O7     4pz        0.0001    0.0003    0.0002    0.0001    0.0002    0.0003    0.0002   -0.0003   -0.0001    0.0001
   140 O7     3d2-      -0.0150    0.0027    0.0058    0.0000   -0.0009   -0.0035    0.0055   -0.0002   -0.0116   -0.0097
   141 O7     3d1-      -0.0005    0.0000   -0.0005   -0.0004   -0.0000    0.0004    0.0006   -0.0007   -0.0003   -0.0001
   142 O7     3d0       -0.0113    0.0008    0.0049    0.0014    0.0007    0.0003    0.0012   -0.0026   -0.0055   -0.0033
   143 O7     3d1+       0.0007   -0.0000    0.0001   -0.0001   -0.0005   -0.0007   -0.0005    0.0009    0.0004   -0.0005
   144 O7     3d2+       0.0077   -0.0015    0.0009    0.0001   -0.0028   -0.0038   -0.0068    0.0064    0.0067    0.0007
   145 O8     1s         0.0008    0.0023   -0.0001    0.0028   -0.0032   -0.0020    0.0136    0.0039    0.0186   -0.0084
   146 O8     2s        -0.0600   -0.3094   -0.0134    0.1808   -0.1209   -0.0808    0.3377    0.0901    0.3106   -0.1464
   147 O8     3s        -0.0013   -0.0107   -0.0007    0.0142   -0.0118   -0.0094    0.0438    0.0111    0.0532   -0.0243
   148 O8     4s         0.0001   -0.0006   -0.0000    0.0024   -0.0016   -0.0024    0.0084    0.0019    0.0110   -0.0054
   149 O8     2px        0.0085    0.0071    0.0094   -0.0009   -0.0269    0.0243    0.1471    0.1180    0.1732   -0.1047
   150 O8     3px        0.0021    0.0055    0.0019    0.0010    0.0057    0.0024   -0.0204   -0.0139   -0.0187    0.0064
   151 O8     4px        0.0009    0.0009    0.0002    0.0009    0.0022   -0.0003   -0.0016   -0.0018   -0.0025    0.0003
   152 O8     2py        0.0093    0.0380   -0.0030    0.0361   -0.0193   -0.0401    0.1527    0.0061    0.3257   -0.1591
   153 O8     3py       -0.0005   -0.0032    0.0019   -0.0135    0.0117    0.0013   -0.0236    0.0003   -0.0343    0.0181
   154 O8     4py       -0.0002   -0.0027    0.0004   -0.0007   -0.0000    0.0004   -0.0020    0.0006   -0.0044    0.0036
   155 O8     2pz        0.0009    0.0026    0.0011    0.0001   -0.0043    0.0023    0.0263    0.0185    0.0328   -0.0181
   156 O8     3pz       -0.0007    0.0001   -0.0001   -0.0007    0.0011   -0.0002   -0.0037   -0.0025   -0.0034    0.0013
   157 O8     4pz       -0.0002   -0.0001   -0.0001   -0.0001    0.0005   -0.0002   -0.0003   -0.0004   -0.0004    0.0001
   158 O8     3d2-      -0.0015   -0.0040   -0.0008    0.0001    0.0017   -0.0011   -0.0099   -0.0057   -0.0150    0.0079
   159 O8     3d1-      -0.0003   -0.0009   -0.0001   -0.0000    0.0003   -0.0001   -0.0018   -0.0009   -0.0027    0.0014
   160 O8     3d0        0.0009    0.0044    0.0001   -0.0008    0.0002   -0.0007    0.0043    0.0017    0.0089   -0.0053
   161 O8     3d1+      -0.0002   -0.0006   -0.0002    0.0007    0.0002   -0.0007   -0.0013   -0.0018   -0.0011    0.0010
[...]
AIVX     1  Mu1.0001  In1.025 Se1.042               0.19468008     -0.00364894      0.00611630     -0.00002232
AIVX     1  Mu1.0001  In1.026 Se1.042               0.11581378     -0.00120221      0.00312632     -0.00000376
AIVX     1  Mu1.0001  In1.027 Se1.042               0.16771045      0.00016334     -0.00069204     -0.00000011
AIVX     1  Mu1.0001  In1.028 Se1.042               0.12042711     -0.00075136      0.00177712     -0.00000134
AIVX     1  Mu1.0001  In1.029 Se1.042               0.10477084      0.00026417     -0.00014126     -0.00000004
AIVX     1  Mu1.0001  In1.021 Se1.043               0.26498952     -0.00024900      0.00105035     -0.00000026
AIVX     1  Mu1.0001  In1.022 Se1.043               0.21727065     -0.00343461      0.00605138     -0.00002078
AIVX     1  Mu1.0001  In1.023 Se1.043               0.22852001      0.00004574     -0.00007344     -0.00000000
AIVX     1  Mu1.0001  In1.024 Se1.043               0.24218394     -0.00056497      0.00112455     -0.00000064
AIVX     1  Mu1.0001  In1.025 Se1.043               0.20452621      0.00078677     -0.00218718     -0.00000172
AIVX     1  Mu1.0001  In1.026 Se1.043               0.12565991      0.00035752     -0.00048821     -0.00000017
AIVX     1  Mu1.0001  In1.027 Se1.043               0.17755658     -0.00269257      0.00406175     -0.00001094
AIVX     1  Mu1.0001  In1.028 Se1.043               0.13027323      0.00017225     -0.00034126     -0.00000006
AIVX     1  Mu1.0001  In1.029 Se1.043               0.11461696      0.00013752     -0.00016580     -0.00000002
AIVX     1  Mu1.0001  In1.021 Se1.044               0.27847211      0.00018443     -0.00036914     -0.00000007
AIVX     1  Mu1.0001  In1.022 Se1.044               0.23075323     -0.00034486      0.00064970     -0.00000022
AIVX     1  Mu1.0001  In1.023 Se1.044               0.24200260     -0.00103212      0.00191548     -0.00000198
AIVX     1  Mu1.0001  In1.024 Se1.044               0.25566652      0.00405894     -0.00789172     -0.00003203
AIVX     1  Mu1.0001  In1.025 Se1.044               0.21800880     -0.00002853      0.00013359     -0.00000000
AIVX     1  Mu1.0001  In1.026 Se1.044               0.13914250      0.00030231     -0.00064695     -0.00000020
AIVX     1  Mu1.0001  In1.027 Se1.044               0.19103917     -0.00009803      0.00022104     -0.00000002
AIVX     1  Mu1.0001  In1.028 Se1.044               0.14375582     -0.00073781      0.00153025     -0.00000113
AIVX     1  Mu1.0001  In1.029 Se1.044               0.12809955     -0.00015025      0.00024079     -0.00000004
AIVX     1  Mu1.0001  In1.021 Se1.045               0.28941917      0.00078161     -0.00079100     -0.00000062
AIVX     1  Mu1.0001  In1.022 Se1.045               0.24170030     -0.00099899      0.00109122     -0.00000109
AIVX     1  Mu1.0001  In1.023 Se1.045               0.25294966     -0.00000533     -0.00001034      0.00000000
AIVX     1  Mu1.0001  In1.024 Se1.045               0.26661359      0.00002959      0.00017753      0.00000001
AIVX     1  Mu1.0001  In1.025 Se1.045               0.22895586      0.00040862     -0.00182725     -0.00000075
AIVX     1  Mu1.0001  In1.026 Se1.045               0.15008956      0.00120323     -0.00196579     -0.00000237
AIVX     1  Mu1.0001  In1.027 Se1.045               0.20198623     -0.00086705      0.00092862     -0.00000081
AIVX     1  Mu1.0001  In1.028 Se1.045               0.15470289      0.00077620     -0.00154142     -0.00000120
AIVX     1  Mu1.0001  In1.029 Se1.045               0.13904662     -0.00062388      0.00202156     -0.00000126
AIVX     1  Mu1.0001  In1.022 Se1.046               0.26621031      0.00073508     -0.00137485     -0.00000101
AIVX     1  Mu1.0001  In1.023 Se1.046               0.27745967      0.00073433     -0.00096272     -0.00000071
AIVX     1  Mu1.0001  In1.024 Se1.046               0.29112360     -0.00085673      0.00215230     -0.00000184
AIVX     1  Mu1.0001  In1.025 Se1.046               0.25346587      0.00082037     -0.00200763     -0.00000165
AIVX     1  Mu1.0001  In1.026 Se1.046               0.17459957     -0.00109653      0.00261918     -0.00000287
AIVX     1  Mu1.0001  In1.027 Se1.046               0.22649624      0.00005687     -0.00069405     -0.00000004
AIVX     1  Mu1.0001  In1.028 Se1.046               0.17921290     -0.00082291      0.00176443     -0.00000145
AIVX     1  Mu1.0001  In1.029 Se1.046               0.16355663     -0.00092579      0.00224199     -0.00000208
AIVX     1  Mu1.0001  In1.022 Se1.047               0.26288746     -0.00110270      0.00166397     -0.00000183
AIVX     1  Mu1.0001  In1.023 Se1.047               0.27413683      0.00050926     -0.00054697     -0.00000028
AIVX     1  Mu1.0001  In1.024 Se1.047               0.28780076     -0.00154141      0.00341247     -0.00000526
AIVX     1  Mu1.0001  In1.025 Se1.047               0.25014303     -0.00122581      0.00115439     -0.00000142
AIVX     1  Mu1.0001  In1.026 Se1.047               0.17127673      0.00135994     -0.00236733     -0.00000322
AIVX     1  Mu1.0001  In1.027 Se1.047               0.22317340     -0.00061186      0.00028131     -0.00000017
AIVX     1  Mu1.0001  In1.028 Se1.047               0.17589005     -0.00003774      0.00021863     -0.00000001
AIVX     1  Mu1.0001  In1.029 Se1.047               0.16023378      0.00064197     -0.00081018     -0.00000052
AIVX     1  Mu1.0001  In1.022 Se1.048               0.29386682     -0.00510427      0.00781212     -0.00003988
AIVX     1  Mu1.0001  In1.025 Se1.048               0.28112238      0.00249594     -0.00450685     -0.00001125
AIVX     1  Mu1.0001  In1.026 Se1.048               0.20225608      0.00053953     -0.00070326     -0.00000038
AIVX     1  Mu1.0001  In1.027 Se1.048               0.25415275     -0.00506983      0.00784669     -0.00003978
AIVX     1  Mu1.0001  In1.028 Se1.048               0.20686940      0.00053185     -0.00089247     -0.00000047
AIVX     1  Mu1.0001  In1.029 Se1.048               0.19121313     -0.00106114      0.00225506     -0.00000239
AIVX     1  Mu1.0001  In1.022 Se1.049               0.29977249      0.00178942     -0.00291934     -0.00000522
AIVX     1  Mu1.0001  In1.025 Se1.049               0.28702806     -0.00171528      0.00236277     -0.00000405
AIVX     1  Mu1.0001  In1.026 Se1.049               0.20816176      0.00050850     -0.00090516     -0.00000046
AIVX     1  Mu1.0001  In1.027 Se1.049               0.26005843      0.00003985     -0.00013922     -0.00000001
AIVX     1  Mu1.0001  In1.028 Se1.049               0.21277508      0.00002487     -0.00005962     -0.00000000
AIVX     1  Mu1.0001  In1.029 Se1.049               0.19711881      0.00178026     -0.00319163     -0.00000568
AIVX     1  Mu1.0001  In1.025 Se1.050               0.29597336      0.00014607      0.00008372      0.00000001
AIVX     1  Mu1.0001  In1.026 Se1.050               0.21710706      0.00017951     -0.00071509     -0.00000013
AIVX     1  Mu1.0001  In1.027 Se1.050               0.26900373     -0.00006957      0.00034742     -0.00000002
AIVX     1  Mu1.0001  In1.028 Se1.050               0.22172038     -0.00076733      0.00173396     -0.00000133
AIVX     1  Mu1.0001  In1.029 Se1.050               0.20606412     -0.00053395      0.00085410     -0.00000046
AIVX     1  Mu1.0001  In1.026 Se1.051               0.23382500      0.00004282     -0.00018219     -0.00000001
AIVX     1  Mu1.0001  In1.027 Se1.051               0.28572167     -0.00042629      0.00086570     -0.00000037
AIVX     1  Mu1.0001  In1.028 Se1.051               0.23843833     -0.00060454      0.00113714     -0.00000069
AIVX     1  Mu1.0001  In1.029 Se1.051               0.22278206     -0.00030250      0.00044236     -0.00000013
AIVX     1  Mu1.0001  In1.026 Se1.052               0.25740076      0.00062820     -0.00066386     -0.00000042
AIVX     1  Mu1.0001  In1.028 Se1.052               0.26201409      0.00034993     -0.00051365     -0.00000018
AIVX     1  Mu1.0001  In1.029 Se1.052               0.24635782      0.00069674     -0.00068605     -0.00000048
AIVX     1  Mu1.0001  In1.026 Se1.053               0.26192109      0.00053787     -0.00062289     -0.00000034
AIVX     1  Mu1.0001  In1.028 Se1.053               0.26653442      0.00013359     -0.00011849     -0.00000002
AIVX     1  Mu1.0001  In1.029 Se1.053               0.25087815      0.00149543     -0.00235300     -0.00000352
AIVX     1  Mu1.0001  In1.026 Se1.054               0.28721201      0.00017249     -0.00010543     -0.00000002
AIVX     1  Mu1.0001  In1.028 Se1.054               0.29182534      0.00006605     -0.00002178     -0.00000000
AIVX     1  Mu1.0001  In1.029 Se1.054               0.27616907      0.00038367     -0.00031055     -0.00000012
AIVX     1  Mu1.0001  In1.026 Se1.055               0.29346432     -0.00067020      0.00104111     -0.00000070
AIVX     1  Mu1.0001  In1.028 Se1.055               0.29807764     -0.00156022      0.00249603     -0.00000389
AIVX     1  Mu1.0001  In1.029 Se1.055               0.28242137     -0.00049198      0.00069130     -0.00000034
--
 
   (Skipping property calculation,
    use PROP keyword to activate)
--
 
  Total CASPT2 energies:
::    CASPT2 Root  1     Total energy:   -455.37109836
::    CASPT2 Root  2     Total energy:   -455.15128276
::    CASPT2 Root  3     Total energy:   -455.15514503
::    CASPT2 Root  4     Total energy:   -455.13135545
::    CASPT2 Root  5     Total energy:   -455.09182270
::    CASPT2 Root  6     Total energy:   -455.10672092
::    CASPT2 Root  7     Total energy:   -455.10658369
 
++ Multi-State CASPT2 section:
********************************************************************************
  MULTI-STATE CASPT2 SECTION
--------------------------------------------------------------------------------
 
  Output diagonal energies have been shifted. Add   -455.000000000000     
 
  Effective Hamiltonian matrix (Symmetric):
 
                1               2               3               4               5
   1        -0.37109836
   2         0.00008955     -0.15128276
   3        -0.00023251      0.00128895     -0.15514503
   4         0.01578779      0.00017653     -0.00022626     -0.13135545
   5         0.00112047      0.00039567      0.00000388     -0.00852025     -0.09182270
   6         0.01746104     -0.00057923     -0.00085521     -0.00308575      0.00604829
   7        -0.01921983     -0.00013843     -0.00050497      0.00808081     -0.00472843
 
                6               7
   6        -0.10672092
   7         0.02294108     -0.10658369
 
       Total MS-CASPT2 energies:
::    MS-CASPT2 Root  1     Total energy:   -455.37498565
::    MS-CASPT2 Root  2     Total energy:   -455.15554852
::    MS-CASPT2 Root  3     Total energy:   -455.15091166
::    MS-CASPT2 Root  4     Total energy:   -455.13521255
::    MS-CASPT2 Root  5     Total energy:   -455.12592126
::    MS-CASPT2 Root  6     Total energy:   -455.08801098
::    MS-CASPT2 Root  7     Total energy:   -455.08341828
 
       Eigenvectors:
            0.99192527      0.00070357      0.00150295      0.11552730     -0.05093034
           -0.00048061     -0.28822797      0.95732760      0.00143624      0.01933887
            0.00088365      0.95738765      0.28804387     -0.01472285      0.00590291
           -0.06792526      0.01257926     -0.00612143      0.82876276      0.50344631
           -0.00310719      0.00227686     -0.00968762      0.06598382      0.30825363
           -0.07204391      0.01294693      0.02022438      0.34351262     -0.60461066
            0.07917966      0.00141271     -0.00346174     -0.42098945      0.53194430
 
            0.01182007     -0.00115255
            0.00433957     -0.00730618
            0.00023150     -0.01368162
           -0.22401481      0.06857049
            0.94837470      0.03320520
            0.14808047      0.69910674
           -0.16827470      0.71077660
 
--
 
  THE ORIGINAL CI ARRAYS ARE NOW MIXED AS LINEAR
  COMBINATIONS, GIVEN BY THE EIGENVECTORS.
  A NEW JOBIPH FILE NAMED 'JOBMIX' IS PREPARED.
********************************************************************************
 
++ Mixed CI coefficients:
  The CI coefficients for the MIXED state nr.   1
--------------------------------------------------------------------------------
 CI COEFFICIENTS LARGER THAN  0.50D-01
  Occupation of active orbitals, and spin coupling
  of open shells. (u,d: Spin up or down).
  SGUGA info is (Midvert:IsyUp:UpperWalk/LowerWalk)
        Conf  SGUGA info        Occupation    Coefficient         Weight
           1  ( 1:1:   1/   1)   22222200        0.968398       0.937794
           3  ( 1:1:   3/   1)   2222u2d0       -0.090256       0.008146
           4  ( 1:1:   4/   1)   22222020       -0.115453       0.013329
           6  ( 1:1:   6/   1)   22220220       -0.077521       0.006009
          84  ( 2:1:   4/   4)   u222220d        0.122787       0.015077
         175  ( 3:1:   5/   8)   20222202       -0.079109       0.006258
         195  ( 3:1:   5/  10)   02222202       -0.077986       0.006082
 
  The CI coefficients for the MIXED state nr.   2
--------------------------------------------------------------------------------
 CI COEFFICIENTS LARGER THAN  0.50D-01
  Occupation of active orbitals, and spin coupling
  of open shells. (u,d: Spin up or down).
  SGUGA info is (Midvert:IsyUp:UpperWalk/LowerWalk)
        Conf  SGUGA info        Occupation    Coefficient         Weight
          21  ( 2:1:   1/   1)   222u22d0       -0.228053       0.052008
          24  ( 2:1:   4/   1)   222u220d       -0.121169       0.014682
          44  ( 2:1:   4/   2)   22u2220d        0.917391       0.841606
          45  ( 2:1:   5/   2)   22u22dud       -0.074454       0.005543
          47  ( 2:1:   7/   2)   22u22udd       -0.121293       0.014712
          48  ( 2:1:   8/   2)   22u2u2dd       -0.064185       0.004120
          49  ( 2:1:   9/   2)   22u2202d       -0.085027       0.007230
          52  ( 2:1:  12/   2)   22u2022d       -0.086956       0.007561
         155  ( 3:1:   5/   6)   2ud22202        0.149786       0.022436
         165  ( 3:1:   5/   7)   u2d22202       -0.112039       0.012553
 
  The CI coefficients for the MIXED state nr.   3
--------------------------------------------------------------------------------
 CI COEFFICIENTS LARGER THAN  0.50D-01
  Occupation of active orbitals, and spin coupling
  of open shells. (u,d: Spin up or down).
  SGUGA info is (Midvert:IsyUp:UpperWalk/LowerWalk)
        Conf  SGUGA info        Occupation    Coefficient         Weight
          21  ( 2:1:   1/   1)   222u22d0        0.926218       0.857879
          22  ( 2:1:   2/   1)   222u2d20        0.127596       0.016281
          23  ( 2:1:   3/   1)   222ud220        0.147263       0.021686
          24  ( 2:1:   4/   1)   222u220d        0.095393       0.009100
          44  ( 2:1:   4/   2)   22u2220d        0.237594       0.056451
         132  ( 3:1:   2/   4)   u22d22ud        0.062292       0.003880
         213  ( 4:1:   1/   3)   u22u22dd        0.105079       0.011042
         262  ( 5:1:   2/   7)   202u22d2       -0.076637       0.005873
         270  ( 5:1:   2/   9)   022u22d2       -0.076100       0.005791
 
  The CI coefficients for the MIXED state nr.   4
--------------------------------------------------------------------------------
 CI COEFFICIENTS LARGER THAN  0.50D-01
  Occupation of active orbitals, and spin coupling
  of open shells. (u,d: Spin up or down).
  SGUGA info is (Midvert:IsyUp:UpperWalk/LowerWalk)
        Conf  SGUGA info        Occupation    Coefficient         Weight
           2  ( 1:1:   2/   1)   22222ud0       -0.809141       0.654708
           4  ( 1:1:   4/   1)   22222020        0.131585       0.017315
           5  ( 1:1:   5/   1)   2222ud20       -0.231037       0.053378
           6  ( 1:1:   6/   1)   22220220       -0.077263       0.005970
           7  ( 1:1:   7/   1)   22222u0d       -0.158008       0.024967
           9  ( 1:1:   9/   1)   222220ud        0.057990       0.003363
          64  ( 2:1:   4/   3)   2u22220d       -0.432188       0.186786
          85  ( 2:1:   5/   4)   u2222dud       -0.055714       0.003104
          87  ( 2:1:   7/   4)   u2222udd       -0.094453       0.008921
         176  ( 3:1:   6/   8)   20222ud2        0.063515       0.004034
         185  ( 3:1:   5/   9)   ud222202        0.099561       0.009912
         196  ( 3:1:   6/  10)   02222ud2        0.069290       0.004801
 
  The CI coefficients for the MIXED state nr.   5
--------------------------------------------------------------------------------
 CI COEFFICIENTS LARGER THAN  0.50D-01
  Occupation of active orbitals, and spin coupling
  of open shells. (u,d: Spin up or down).
  SGUGA info is (Midvert:IsyUp:UpperWalk/LowerWalk)
        Conf  SGUGA info        Occupation    Coefficient         Weight
           2  ( 1:1:   2/   1)   22222ud0        0.440075       0.193666
           5  ( 1:1:   5/   1)   2222ud20        0.130646       0.017068
          64  ( 2:1:   4/   3)   2u22220d       -0.832693       0.693377
          65  ( 2:1:   5/   3)   2u222dud        0.060331       0.003640
          67  ( 2:1:   7/   3)   2u222udd        0.081789       0.006689
          68  ( 2:1:   8/   3)   2u22u2dd        0.070596       0.004984
          69  ( 2:1:   9/   3)   2u22202d        0.090434       0.008178
          72  ( 2:1:  12/   3)   2u22022d        0.073776       0.005443
         185  ( 3:1:   5/   9)   ud222202        0.193404       0.037405
 
  The CI coefficients for the MIXED state nr.   6
--------------------------------------------------------------------------------
 CI COEFFICIENTS LARGER THAN  0.50D-01
  Occupation of active orbitals, and spin coupling
  of open shells. (u,d: Spin up or down).
  SGUGA info is (Midvert:IsyUp:UpperWalk/LowerWalk)
        Conf  SGUGA info        Occupation    Coefficient         Weight
           2  ( 1:1:   2/   1)   22222ud0       -0.123776       0.015320
           7  ( 1:1:   7/   1)   22222u0d        0.937284       0.878502
          10  ( 1:1:  10/   1)   2222udud        0.154990       0.024022
          12  ( 1:1:  12/   1)   2222uudd        0.178135       0.031732
          14  ( 1:1:  14/   1)   22220u2d        0.125416       0.015729
          64  ( 2:1:   4/   3)   2u22220d       -0.105529       0.011136
          65  ( 2:1:   5/   3)   2u222dud       -0.062319       0.003884
          93  ( 2:1:  13/   4)   u2222d02       -0.075887       0.005759
 
  The CI coefficients for the MIXED state nr.   7
--------------------------------------------------------------------------------
 CI COEFFICIENTS LARGER THAN  0.50D-01
  Occupation of active orbitals, and spin coupling
  of open shells. (u,d: Spin up or down).
  SGUGA info is (Midvert:IsyUp:UpperWalk/LowerWalk)
        Conf  SGUGA info        Occupation    Coefficient         Weight
          21  ( 2:1:   1/   1)   222u22d0        0.120911       0.014620
          24  ( 2:1:   4/   1)   222u220d       -0.917791       0.842340
          25  ( 2:1:   5/   1)   222u2dud       -0.178937       0.032019
          27  ( 2:1:   7/   1)   222u2udd       -0.265966       0.070738
          31  ( 2:1:  11/   1)   222uud2d       -0.071650       0.005134
          32  ( 2:1:  12/   1)   222u022d        0.084326       0.007111
          44  ( 2:1:   4/   2)   22u2220d       -0.091188       0.008315
         125  ( 3:1:   5/   3)   2u2d2202        0.051064       0.002608
         135  ( 3:1:   5/   4)   u22d2202        0.072956       0.005323
 
--
 
--- Stop Module: caspt2 at Tue Jun 10 17:00:05 2025 /rc=_RC_ALL_IS_WELL_ ---
*** files: xmldump
    saved to directory /home/pcaah4/diamide_project
--- Module caspt2 spent 6 minutes 55 seconds ---

.##################.
.# Happy landing! #.
.##################.

    Timing: Wall=666.93 User=579.40 System=77.83
******************************************************
*** WorkDir at /srv/COMMUNAL_SCRATCH/12369 cleaned ***
******************************************************
