   This run of MOLCAS is using the pymolcas driver

                             OPE
                             OPE          NMOL  CASOP  ENMOLC A   SO
                 OPE        NMOLC        AS  OP EN  MO LC     AS  OP
                OPENM       OL CA        SO  PE NM  OL CA     SOP EN
                OP EN      MO   LC       AS  OP ENMOL  CASO   PENMOL
                OP  EN     MO   LC       AS  OP EN     MO     LC ASO
               OP   E  NMOL  C  AS       OP  EN MO     LC     AS  OP
               OP  E   NMO   LC AS        OPEN  MO     LCASOP EN   M
               O  PEN   MO  LCA  SO
            OPE   NMO   L   CAS    OP
        OPENMOL  CASOP     ENMOL   CASOPE
     OPENMOLCA   SOPENMOLCASOPEN   MOLCASOPE
    OPENMOLCAS   OP           EN   MOL    CAS
    OPENMOLCAS       OP  ENM        O     LCA
    OPENMOLCAS    OPEN  MOLCASO     P  E  NMO
    OPENMOLCAS     OP               E  N  MOL
    OPENMOLCA   SO           PENM   O  L  CAS    OPEN    MO    LCAS
    OPENMOLCA   SOP           ENM   O  L  CAS   OP  EN  MOLC  AS   O
    OPENMOLCA   SOPE           NM      O  LCA   S      OP  EN MO
    OPENMOLC                AS         O  PEN   M      OL  CA  SOPE
    OPENMO        LCASOPE  NMOL        C  ASO   P      ENMOLC     AS
    OPE     NMO      LCA  SO     P     E   NM   OL  CA SO  PE N   MO
          OPENMOLCA            SOPE   NMO        LCAS  O    P  ENMO
     OPENMOLCASOPENMOLCASOPENMOLCASOPENMOLCA
        OPENMOLCASOPENMOLCASOPENMOLCASOPE
            OPENMOLCASOPENMOLCASOPENM
               OPENMOLCASOPENMOLCA        version: v23.06
                   OPENMOLCASO
                       OPE                tag:

 OpenMolcas is free software; you can redistribute it and/or modify it
 under the terms of the GNU Lesser General Public License version 2.1.
 OpenMolcas is distributed in the hope that it will be useful, but it
 is provided "as is" and without any express or implied warranties.
 For more details see the full text of the license in the file
 LICENSE or in <http://www.gnu.org/licenses/>.

                 Copyright (C) The OpenMolcas Authors
           For the author list and the recommended citation,
                   consult the file CONTRIBUTORS.md

           *************************************************
           * pymolcas version py2.24                       *
           *   build 4567b286dd94b1984b333a4ddf893180      *
           *   (after the EMIL interpreter by V. Veryazov) *
           *************************************************

configuration info
------------------
Host name: loginchem01.nottingham.ac.uk (Linux)
C Compiler ID: Intel
C flags: -std=gnu99 -gcc-sys -qopenmp
Fortran Compiler ID: Intel
Fortran flags: -fpp -i8 -heap-arrays -qopenmp
Definitions: _MOLCAS_;_I8_;_LINUX_
Parallel: OFF (GA=OFF)


   ----------------------------------------------------------------------------------------------------
  |
  |              Project: orca_geometry_optimisation_240_120_BP86_def2-SVP_def2J_scf_cas1_ras12i11_cas8
  |       Submitted from: /home/pcaah4/diamide_project
  |         Scratch area: /srv/COMMUNAL_SCRATCH/12399
  |      Save outputs to: /home/pcaah4/diamide_project
  |               Molcas: /software/chemistry/openmolcas/openmolcas-23.06-openmp
  |
  | Scratch area is empty
  |
  |       MOLCAS_DRIVER = /software/chemistry/openmolcas/openmolcas-23.06-openmp/sbin/pymolcas
  | MOLCAS_KEEP_WORKDIR = NO
  |       MOLCAS_NPROCS = 1
  |       MOLCAS_SOURCE = /software/chemistry/openmolcas/openmolcas-23.06-openmp
  |    MOLCAS_STRUCTURE = 0
  |
   ----------------------------------------------------------------------------------------------------

++ ---------   Input file   ---------

&SEWARD
TITLE
orca_geometry_optimisation_240_120_BP86_def2-SVP_def2J_scf_cas1_ras12i11
MULTIPOLES
2
SDIPOLE
ANGMOM
0 0 0
BASIS SET
C.ANO-S...4S3P1D.
C1           -0.011831   -0.027483    0.029299 /Angstrom
C3            2.085982    1.284478   -0.014567 /Angstrom
C4            3.007057    1.277522   -1.245125 /Angstrom
C6            3.523809    2.386265   -3.396782 /Angstrom
C19          -0.601021   -1.433473    0.037001 /Angstrom
END OF BASIS
BASIS SET
N.ANO-S...4S3P1D.
N2            1.363908    0.028738    0.064073 /Angstrom
N5            2.764193    2.261262   -2.166373 /Angstrom
END OF BASIS
BASIS SET
O.ANO-S...4S3P1D.
O7           -0.717571    0.981166    0.009155 /Angstrom
O8            3.870076    0.407652   -1.377484 /Angstrom
END OF BASIS
BASIS SET
H.ANO-S...2S1P.
H9           -1.256261   -1.538576    0.924564 /Angstrom
H10          -1.246746   -1.553040   -0.855598 /Angstrom
H11           0.156083   -2.241919    0.048876 /Angstrom
H12           1.921204   -0.824225   -0.020438 /Angstrom
H13           1.318956    2.084455   -0.033961 /Angstrom
H14           2.728009    1.431757    0.882659 /Angstrom
H15           1.997396    2.911054   -1.986934 /Angstrom
H16           2.874371    2.274065   -4.290979 /Angstrom
H17           4.045678    3.364853   -3.460270 /Angstrom
H18           4.276953    1.575567   -3.397682 /Angstrom
END OF BASIS
END OF INPUT

&RASSCF
TITLE
orca_geometry_optimisation_240_120_BP86_def2-SVP_def2J_scf_cas1_ras12i11
LUMORB
SPIN
1
SYMMETRY
1
NACTEL
12  0  0
INACTIVE
29
DELETED  ! delete Rydberg orbitals from an initial CAS(12,11) if done
3
FROZEN
0
RAS2
8
ITERATIONS
64 25
CIROOT
7 7
1 2 3 4 5 6 7
1 1 1 1 1 1 1
LEVSHFT
0.3
CIMX
20
FILEorb = /home/pcaah4/diamide_project/cas/ras12i11/ras_orb/orca_geometry_optimisation_240_120_BP86_def2-SVP_def2J_scf_cas1_ras12i11.RasOrb
ALTEr
2
 1 36 40
 1 37 43
END OF INPUT

&RASSI
NROF JOBIPH
    1 7
    1 2 3 5 4 6 7
TOFILE
TRDI
TDMN
1.0D-6
END OF INPUT

&CASPT2
TITLE
orca_geometry_optimisation_240_120_BP86_def2-SVP_def2J_scf_cas1_ras12i11
MULTISTATE
7 1 2 3 4 5 6 7
SHIFT
0.35
MAXITER
50
END OF INPUT

-- ----------------------------------

--- Start Module: seward at Tue Jun 10 18:09:35 2025 ---
 
()()()()()()()()()()()()()()()()()()()()()()()()()()()()()()()()()()()()()()()()()()()()()()()()()()

                                              &SEWARD

                                   only a single process is used
                       available to each process: 2.0 GB of memory, 1 thread
                                            pid: 3122139
()()()()()()()()()()()()()()()()()()()()()()()()()()()()()()()()()()()()()()()()()()()()()()()()()()
 
               SEWARD will generate:
                  Multipole Moment integrals up to order  2
                  Kinetic Energy integrals
                  Nuclear Attraction integrals (point charge)
                  One-Electron Hamiltonian integrals
                  Velocity integrals
                  Orbital angular momentum around ( 0.0000  0.0000  0.0000 )
                  Velocity quadrupole around ( 3.2140  1.5061 -1.7244 )
                  Two-Electron Repulsion integrals
 
 Title:
            orca_geometry_optimisation_240_120_BP86_def2-SVP_def2J_scf_cas1_ras12i11    
 
 
                   Integrals are discarded if absolute value <: 0.10E-13
                   Integral cutoff threshold is set to       <: 0.10E-15
 
++    Symmetry information:
      ---------------------
 
                    Character Table for C1 
 
                             E  
                    a        1  x, y, xy, Rz, z, xz, Ry, yz, Rx, I
--
 
 
++    Basis set information:
      ----------------------
 
 
      Basis set label: C.ANO-S...4S3P1D......
 
      Electronic valence basis set:
      ------------------
      Associated Effective Charge   6.000000 au
      Associated Actual Charge      6.000000 au
      Nuclear Model: Point charge
 
      Shell  nPrim  nBasis  Cartesian Spherical Contaminant
         s      10       4        X                  
         p       6       3        X                  
         d       3       1                 X         
 
 
      Basis set label: N.ANO-S...4S3P1D......
 
      Electronic valence basis set:
      ------------------
      Associated Effective Charge   7.000000 au
      Associated Actual Charge      7.000000 au
      Nuclear Model: Point charge
 
      Shell  nPrim  nBasis  Cartesian Spherical Contaminant
         s      10       4        X                  
         p       6       3        X                  
         d       3       1                 X         
 
 
      Basis set label: O.ANO-S...4S3P1D......
 
      Electronic valence basis set:
      ------------------
      Associated Effective Charge   8.000000 au
      Associated Actual Charge      8.000000 au
      Nuclear Model: Point charge
 
      Shell  nPrim  nBasis  Cartesian Spherical Contaminant
         s      10       4        X                  
         p       6       3        X                  
         d       3       1                 X         
 
 
      Basis set label: H.ANO-S...2S1P......
 
      Electronic valence basis set:
      ------------------
      Associated Effective Charge   1.000000 au
      Associated Actual Charge      1.000000 au
      Nuclear Model: Point charge
 
      Shell  nPrim  nBasis  Cartesian Spherical Contaminant
         s       7       2        X                  
         p       3       1        X                  
--
 
 
++    Molecular structure info:
      -------------------------
 
                    ************************************************ 
                    **** Cartesian Coordinates / Bohr, Angstrom **** 
                    ************************************************ 
 
     Center  Label                x              y              z                     x              y              z
        1      C1              -0.022357      -0.051935       0.055367             -0.011831      -0.027483       0.029299
        2      C3               3.941935       2.427312      -0.027528              2.085982       1.284478      -0.014567
        3      C4               5.682514       2.414167      -2.352945              3.007057       1.277522      -1.245125
        4      C6               6.659034       4.509387      -6.418988              3.523809       2.386265      -3.396782
        5      C19             -1.135765      -2.708871       0.069922             -0.601021      -1.433473       0.037001
        6      N2               2.577413       0.054307       0.121080              1.363908       0.028738       0.064073
        7      N5               5.223568       4.273166      -4.093852              2.764193       2.261262      -2.166373
        8      O7              -1.356013       1.854135       0.017300             -0.717571       0.981166       0.009155
        9      O8               7.313384       0.770351      -2.603068              3.870076       0.407652      -1.377484
       10      H9              -2.373989      -2.907487       1.747173             -1.256261      -1.538576       0.924564
       11      H10             -2.356008      -2.934820      -1.616846             -1.246746      -1.553040      -0.855598
       12      H11              0.294954      -4.236613       0.092362              0.156083      -2.241919       0.048876
       13      H12              3.630549      -1.557560      -0.038622              1.921204      -0.824225      -0.020438
       14      H13              2.492466       3.939049      -0.064177              1.318956       2.084455      -0.033961
       15      H14              5.155190       2.705629       1.667984              2.728009       1.431757       0.882659
       16      H15              3.774531       5.501095      -3.754761              1.997396       2.911054      -1.986934
       17      H16              5.431774       4.297360      -8.108775              2.874371       2.274065      -4.290979
       18      H17              7.645223       6.358651      -6.538963              4.045678       3.364853      -3.460270
       19      H18              8.082270       2.977390      -6.420688              4.276953       1.575567      -3.397682
 
                    ************************************************* 
                    **** InterNuclear Distances / Bohr, Angstrom **** 
                    ************************************************* 
 
     Atom centers         Bohr        Angstrom
   16 H15       7 N5      1.929378        1.020983
   13 H12       6 N2      1.932024        1.022383
   19 H18       4 C6      2.091081        1.106552
   12 H11       5 C19     2.093193        1.107670
   11 H10       5 C19     2.094095        1.108147
   10 H9        5 C19     2.094235        1.108221
   14 H13       2 C3      2.094673        1.108453
   17 H16       4 C6      2.099167        1.110832
   18 H17       4 C6      2.099223        1.110861
   15 H14       2 C3      2.103380        1.113061
    8 O7        1 C1      2.326626        1.231198
    9 O8        3 C4      2.329040        1.232475
    7 N5        3 C4      2.587907        1.369462
    6 N2        1 C1      2.602770        1.377326
    6 N2        2 C3      2.741379        1.450675
    7 N5        4 C6      2.742740        1.451395
    5 C19       1 C1      2.880833        1.524471
    3 C4        2 C3      2.904713        1.537108
   11 H10      10 H9      3.364178        1.780246
   15 H14      14 H13     3.407610        1.803230
   18 H17      17 H16     3.407725        1.803290
   19 H18      17 H16     3.408385        1.803639
   12 H11      10 H9      3.410019        1.804504
   19 H18      18 H17     3.411440        1.805256
   12 H11      11 H10     3.412281        1.805701
   14 H13       6 N2      3.890085        2.058544
   16 H15       3 C4      3.890323        2.058670
   19 H18       7 N5      3.907094        2.067545
   13 H12       1 C1      3.952147        2.091386
   13 H12       2 C3      3.997034        2.115139
   15 H14       6 N2      4.008410        2.121159
   17 H16       7 N5      4.020391        2.127499
   18 H17       7 N5      4.023957        2.129386
   16 H15       4 C6      4.049931        2.143131
   15 H14       3 C4      4.065820        2.151539
   10 H9        1 C1      4.067746        2.152558
   11 H10       1 C1      4.068568        2.152994
   12 H11       1 C1      4.196854        2.220879
   16 H15      14 H13     4.207623        2.226578
   14 H13       3 C4      4.211904        2.228844
   13 H12      12 H11     4.280266        2.265019
    8 O7        6 N2      4.326891        2.289692
    9 O8        7 N5      4.342751        2.298085
   14 H13       8 O7      4.377704        2.316581
   19 H18       9 O8      4.476208        2.368707
    9 O8        2 C3      4.554733        2.410261
    8 O7        5 C19     4.568622        2.417611
    6 N2        3 C4      4.618593        2.444054
    6 N2        5 C19     4.628764        2.449437
    7 N5        2 C3      4.645939        2.458525
    2 C3        1 C1      4.676446        2.474669
    4 C6        3 C4      4.677204        2.475070
   14 H13       1 C1      4.718748        2.497054
   19 H18       3 C4      4.756320        2.516936
   17 H16      16 H15     4.811743        2.546265
   16 H15       2 C3      4.834091        2.558091
   15 H14      13 H12     4.838575        2.560463
   18 H17      16 H15     4.844526        2.563613
   12 H11       6 N2      4.860292        2.571956
   14 H13       7 N5      4.879429        2.582083
   13 H12       5 C19     4.904595        2.595400
   13 H12       3 C4      5.034010        2.663884
   13 H12       9 O8      5.055573        2.675294
   11 H10       8 O7      5.157957        2.729473
   15 H14       9 O8      5.161878        2.731548
   10 H9        8 O7      5.167377        2.734458
    8 O7        2 C3      5.329051        2.820012
    9 O8        4 C6      5.382362        2.848223
    9 O8        6 N2      5.510274        2.915912
   14 H13      13 H12     5.613252        2.970405
   19 H18      16 H15     5.659758        2.995015
--
 
 
            Nuclear Potential Energy            450.39258367 au
 
 
      Basis set specifications :
      Symmetry species         a  
      Basis functions          212
 
 
      Input file to MOLDEN was generated!
 
--- Stop Module: seward at Tue Jun 10 18:11:23 2025 /rc=_RC_ALL_IS_WELL_ ---
*** files: orca_geometry_optimisation_240_120_BP86_def2-SVP_def2J_scf_cas1_ras12i11_cas8.GssOrb
           orca_geometry_optimisation_240_120_BP86_def2-SVP_def2J_scf_cas1_ras12i11_cas8.guessorb.molden xmldump
    saved to directory /home/pcaah4/diamide_project
--- Module seward spent 1 minute 48 seconds ---

*** symbolic link created: INPORB -> orca_geometry_optimisation_240_120_BP86_def2-SVP_def2J_scf_cas1_ras12i11_cas8.GssOrb
--- Start Module: rasscf at Tue Jun 10 18:11:24 2025 ---
 
()()()()()()()()()()()()()()()()()()()()()()()()()()()()()()()()()()()()()()()()()()()()()()()()()()

                                              &RASSCF

                                   only a single process is used
                       available to each process: 2.0 GB of memory, 1 thread
                                            pid: 3122170
()()()()()()()()()()()()()()()()()()()()()()()()()()()()()()()()()()()()()()()()()()()()()()()()()()
 
 
      Header of the ONEINT file:
      --------------------------
      orca_geometry_optimisation_240_120_BP86_def2-SVP_def2J_scf_cas1_ras12i11
      Integrals generated by Gateway/Seward, Tue Jun 10 18:09:35 2025
 
 
      OrdInt status: non-squared
 
 
      Cartesian coordinates in Angstrom:
      -----------------------------------------------------
      No.  Label        X            Y            Z        
      -----------------------------------------------------
       1   C1        -0.01183100  -0.02748300   0.02929900
       2   C3         2.08598200   1.28447800  -0.01456700
       3   C4         3.00705700   1.27752200  -1.24512500
       4   C6         3.52380900   2.38626500  -3.39678200
       5   C19       -0.60102100  -1.43347300   0.03700100
       6   N2         1.36390800   0.02873800   0.06407300
       7   N5         2.76419300   2.26126200  -2.16637300
       8   O7        -0.71757100   0.98116600   0.00915500
       9   O8         3.87007600   0.40765200  -1.37748400
      10   H9        -1.25626100  -1.53857600   0.92456400
      11   H10       -1.24674600  -1.55304000  -0.85559800
      12   H11        0.15608300  -2.24191900   0.04887600
      13   H12        1.92120400  -0.82422500  -0.02043800
      14   H13        1.31895600   2.08445500  -0.03396100
      15   H14        2.72800900   1.43175700   0.88265900
      16   H15        1.99739600   2.91105400  -1.98693400
      17   H16        2.87437100   2.27406500  -4.29097900
      18   H17        4.04567800   3.36485300  -3.46027000
      19   H18        4.27695300   1.57556700  -3.39768200
      -----------------------------------------------------
      Nuclear repulsion energy =  450.39258367
 
++    Wave function specifications:
      -----------------------------
 
      Number of closed shell electrons          58
      Number of electrons in active shells      12
      Max number of holes in RAS1 space          0
      Max nr of electrons in RAS3 space          0
      Number of inactive orbitals               29
      Number of active orbitals                  8
      Number of secondary orbitals             172
      Spin quantum number                      0.0
      State symmetry                             1
--
 
++    Orbital specifications:
      -----------------------
 
      Symmetry species                           1
                                                 a
      Frozen orbitals                            0
      Inactive orbitals                         29
      Active orbitals                            8
      RAS1 orbitals                              0
      RAS2 orbitals                              8
      RAS3 orbitals                              0
      Secondary orbitals                       172
      Deleted orbitals                           3
      Number of basis functions                212
--
 
++    CI expansion specifications:
      ----------------------------
 
      Number of CSFs                           336
      Number of determinants                   406
      Number of root(s) required                 7
      Root chosen for geometry opt.              7
      CI roots used                              1     2     3     4     5     6     7
      weights                                0.143 0.143 0.143 0.143 0.143 0.143 0.143
      highest root included in the CI            7
      max. size of the explicit Hamiltonian    200
--
 
++    Optimization specifications:
      ----------------------------
 
      RASSCF algorithm: Conventional
      Maximum number of macro iterations        64
      Maximum number of SX iterations           25
      Threshold for RASSCF energy            0.100E-07
      Threshold for max MO rotation          0.100E+00
      Threshold for max BLB element          0.100E-03
      Level shift parameter                  0.300E+00
      Make Quasi-Newton update
--
 
      The MO-coefficients are taken from the file:
      /home/pcaah4/diamide_project/cas/ras12i11/ras_orb/orca_geometry_optimisation_240_120_BP86_def2-SVP_def2J_scf_cas1_ras12i11.RasOrb                                                                                                                               
      Title: RASSCF average (pseudo-natural) orbitals                                      
 
      Total molecular charge    0.00
 
      Molecular orbitals exchanged:
        In symmetry  1 :  36  40
        In symmetry  1 :  37  43
 
 
      ************************************************************************************************************************
      *                                                                                                                      *
      *                                            Wave function control section                                             *
      *                                                                                                                      *
      ************************************************************************************************************************
 
 
                                         RASSCF iterations: Energy and convergence statistics
                                         ----------------------------------------------------
 
      Iter CI   SX   CI       RASSCF       Energy    max ROT     max BLB   max BLB  Level Ln srch  Step   QN   Walltime
          iter iter root      energy       change     param      element    value   shift minimum  type update hh:mm:ss
 Nr of preliminary CI iterations:   4
        1   1   25    0  -453.61436645    0.00E+00   0.68E-01   34  39 1 -0.28E-01*  0.23   0.00    SX    NO    0:00:14
        2   5   22    0  -453.62896598   -0.15E-01* -0.31E-01   34  39 1 -0.27E-01*  0.22   0.00    SX    NO    0:00:06
        3   5   22    0  -453.63458005   -0.56E-02*  0.30E-01   34  39 1 -0.17E-01*  0.22   0.00    SX    NO    0:00:06
        4   4   11    0  -453.63882520   -0.42E-02*  0.35E-01   34  39 1 -0.81E-02*  0.22   0.00    SX    NO    0:00:06
        5   3   27    0  -453.64165852   -0.28E-02*  0.21E+00*  36  39 1  0.91E-02*  0.22   2.50    QN   YES    0:00:06
        6   5   27    0  -453.65415459   -0.12E-01* -0.63E-01   34  39 1  0.29E-01*  0.23   1.12    QN   YES    0:00:07
        7   3   29    0  -453.65574459   -0.16E-02*  0.76E-01   34  39 1  0.36E-01*  0.23   1.85    QN   YES    0:00:07
        8   3   31    0  -453.65708471   -0.13E-02*  0.60E-01   34  39 1  0.37E-01*  0.22   1.25    QN   YES    0:00:07
        9   3   33    0  -453.65737886   -0.29E-03* -0.40E-01   34  39 1  0.34E-01*  0.22   0.82    QN   YES    0:00:07
       10   4   35    0  -453.65728711    0.92E-04*  0.87E-01   34  39 1  0.33E-01*  0.22  -0.07    SX   YES    0:00:07
       11   5   21    0  -453.66691002   -0.96E-02*  0.25E+00*  36  39 1  0.26E-01*  0.22   2.50    QN   YES    0:00:07
       12   5   24    0  -453.68227953   -0.15E-01* -0.13E+00*  34  39 1  0.12E-01*  0.22   1.48    QN   YES    0:00:06
       13   3   13    0  -453.68630432   -0.40E-02* -0.10E+00   37  39 1  0.46E-02*  0.21   1.67    QN   YES    0:00:06
       14   3   13    0  -453.68794775   -0.16E-02* -0.71E-01   37  42 1  0.34E-02*  0.21   1.75    QN   YES    0:00:06
       15   3   12    0  -453.68887645   -0.93E-03* -0.57E-01   34  39 1 -0.32E-02*  0.21   1.81    QN   YES    0:00:06
       16   3   12    0  -453.68952548   -0.65E-03*  0.50E-01   34  39 1 -0.35E-02*  0.21   2.01    QN   YES    0:00:06
       17   3   12    0  -453.69012749   -0.60E-03* -0.60E-01   34  39 1 -0.27E-02*  0.20   1.99    QN   YES    0:00:06
       18   3   12    0  -453.69067474   -0.55E-03* -0.86E-01   32  40 1 -0.23E-02*  0.20   2.16    QN   YES    0:00:07
       19   4   12    0  -453.69116870   -0.49E-03* -0.78E-01   31  39 1 -0.23E-02*  0.20   2.31    LS   YES    0:00:07
       20   4   12    0  -453.69138442   -0.22E-03* -0.54E-01   30  39 1  0.27E-02*  0.20   1.50    QN   YES    0:00:06
       21   4   12    0  -453.69167058   -0.29E-03* -0.60E-01   30  39 1  0.24E-02*  0.19   2.50    LS   YES    0:00:06
       22   4   12    0  -453.69186248   -0.19E-03*  0.79E-01   34  39 1  0.24E-02*  0.19   1.89    QN   YES    0:00:07
       23   4   12    0  -453.69211136   -0.25E-03*  0.10E+00*  37  39 1  0.24E-02*  0.19   2.39    QN   YES    0:00:07
       24   5   12    0  -453.69241338   -0.30E-03*  0.11E+00*  37  39 1  0.27E-02*  0.19   2.14    QN   YES    0:00:06
       25   5   12    0  -453.69272740   -0.31E-03* -0.94E-01   37  39 1  0.31E-02*  0.18   1.88    QN   YES    0:00:06
       26   4   13    0  -453.69311874   -0.39E-03* -0.11E+00*  37  39 1  0.35E-02*  0.18   1.83    QN   YES    0:00:06
       27   5   12    0  -453.69374164   -0.62E-03*  0.17E+00*  34  39 1 -0.44E-02*  0.18   2.03    QN   YES    0:00:06
       28   5   20    0  -453.69480466   -0.11E-02*  0.17E+00*  34  39 1 -0.61E-02*  0.18   1.53    QN   YES    0:00:06
       29   5   12    0  -453.69610593   -0.13E-02*  0.14E+00*  34  39 1 -0.75E-02*  0.18   1.25    QN   YES    0:00:06
       30   4   12    0  -453.69811161   -0.20E-02*  0.16E+00*  37  44 1 -0.73E-02*  0.18   2.03    QN   YES    0:00:06
       31   4   15    0  -453.70092141   -0.28E-02* -0.16E+00*  37  44 1 -0.71E-02*  0.18   1.11    QN   YES    0:00:06
       32   5   11    0  -453.70316434   -0.22E-02*  0.92E-01   37  44 1 -0.65E-02*  0.18   0.95    QN   YES    0:00:06
       33   3   14    0  -453.70519073   -0.20E-02* -0.83E-01   30  39 1  0.46E-02*  0.18   1.51    QN   YES    0:00:06
       34   5   13    0  -453.70674786   -0.16E-02*  0.70E-01   34  39 1  0.59E-02*  0.18   1.01    QN   YES    0:00:06
       35   6   12    0  -453.70723863   -0.49E-03*  0.35E-01   34  39 1  0.41E-02*  0.18   0.76    QN   YES    0:00:06
       36   4   11    0  -453.70761624   -0.38E-03*  0.16E-01   34  39 1  0.11E-02*  0.18   1.00    QN   YES    0:00:06
       37   4   11    0  -453.70770109   -0.85E-04* -0.65E-02   31  39 1  0.70E-03*  0.18   0.98    QN   YES    0:00:06
       38   3   10    0  -453.70771681   -0.16E-04* -0.47E-02   31  39 1  0.23E-03*  0.18   1.24    QN   YES    0:00:06
       39   4    9    0  -453.70772100   -0.42E-05* -0.14E-02   34  39 1 -0.12E-03*  0.18   1.04    QN   YES    0:00:06
       40   4    9    0  -453.70772171   -0.71E-06* -0.11E-02   31  39 1 -0.51E-04   0.18   1.15    QN   YES    0:00:07
       41   4    8    0  -453.70772188   -0.17E-06* -0.33E-03   31  39 1 -0.28E-04   0.18   1.27    QN   YES    0:00:07
       42   1    7    0  -453.70772192   -0.38E-07*  0.11E-03   34  39 1  0.11E-04   0.18   1.19    QN   YES    0:00:07
       43   3    6    0  -453.70772193   -0.91E-08  -0.86E-04   34  39 1  0.52E-05   0.18   1.23    QN   YES    0:00:07
      Convergence after 43 iterations
       44   3    6    0  -453.70772193   -0.28E-08  -0.86E-04   31  39 1  0.19E-05   0.18   1.23    QN   YES    0:00:07
 
      ************************************************************************************************************************
                                                      Wave function printout:
                       occupation of active orbitals, and spin coupling of open shells (u,d: Spin up or down)
      ************************************************************************************************************************
 
      Note: transformation to natural orbitals
      has been made, which may change the order of the CSFs.
 
      printout of CI-coefficients larger than  0.05 for root  1
      energy=    -453.959181
      conf/sym  11111111     Coeff  Weight
             1  22222200   0.96162 0.92471
             2  22222ud0  -0.14619 0.02137
             4  22222020  -0.07739 0.00599
            17  22220202  -0.08556 0.00732
            61  2u2222d0  -0.07722 0.00596
            62  2u222d20  -0.06271 0.00393
            84  u222220d  -0.09497 0.00902
           171  20222220  -0.09679 0.00937
           195  02222202  -0.07671 0.00588
 
      printout of CI-coefficients larger than  0.05 for root  2
      energy=    -453.747041
      conf/sym  11111111     Coeff  Weight
            41  22u222d0  -0.95488 0.91180
            42  22u22d20  -0.09179 0.00843
            44  22u2220d  -0.11802 0.01393
            58  22u202d2  -0.08280 0.00686
           111  22ud2220  -0.05763 0.00332
           151  2ud22220  -0.18200 0.03313
           225  u2u222dd   0.07813 0.00610
           302  02u222d2   0.07704 0.00593
 
      printout of CI-coefficients larger than  0.05 for root  3
      energy=    -453.735272
      conf/sym  11111111     Coeff  Weight
             7  22222u0d  -0.26769 0.07166
             8  2222u20d   0.07139 0.00510
            24  222u220d   0.90693 0.82252
            25  222u2dud  -0.06709 0.00450
            27  222u2udd  -0.11697 0.01368
            29  222u202d  -0.07873 0.00620
            34  222ud202   0.16640 0.02769
            44  22u2220d  -0.05258 0.00276
           135  u22d2202   0.11949 0.01428
           207  2u2u22dd   0.06326 0.00400
           208  2u2u2d2d   0.05156 0.00266
           261  202u222d   0.09113 0.00830
 
      printout of CI-coefficients larger than  0.05 for root  4
      energy=    -453.644474
      conf/sym  11111111     Coeff  Weight
             1  22222200   0.06911 0.00478
             2  22222ud0   0.32769 0.10738
             4  22222020  -0.06936 0.00481
             7  22222u0d   0.22472 0.05050
             8  2222u20d   0.84671 0.71692
            10  2222udud  -0.05156 0.00266
            12  2222uudd  -0.08881 0.00789
            13  2222u02d  -0.07145 0.00511
            17  22220202  -0.05675 0.00322
            62  2u222d20   0.08577 0.00736
            68  2u22u2dd   0.06336 0.00401
            84  u222220d  -0.09183 0.00843
            94  u222d202   0.20395 0.04160
           174  2022u22d   0.08405 0.00706
 
      printout of CI-coefficients larger than  0.05 for root  5
      energy=    -453.639959
      conf/sym  11111111     Coeff  Weight
             2  22222ud0  -0.31855 0.10147
             4  22222020   0.07244 0.00525
             7  22222u0d  -0.78040 0.60902
             8  2222u20d   0.34033 0.11582
            24  222u220d  -0.25593 0.06550
            62  2u222d20  -0.08590 0.00738
            65  2u222dud  -0.12470 0.01555
            67  2u222udd  -0.16513 0.02727
            94  u222d202   0.11082 0.01228
           173  20222u2d  -0.10528 0.01108
 
      printout of CI-coefficients larger than  0.05 for root  6
      energy=    -453.618425
      conf/sym  11111111     Coeff  Weight
             1  22222200   0.10904 0.01189
             2  22222ud0   0.76762 0.58924
             4  22222020  -0.14840 0.02202
             7  22222u0d  -0.41277 0.17038
             8  2222u20d  -0.22079 0.04875
            19  22220ud2  -0.07312 0.00535
            24  222u220d  -0.07585 0.00575
            44  22u2220d   0.19202 0.03687
            47  22u22udd   0.06778 0.00459
            62  2u222d20   0.20224 0.04090
            65  2u222dud  -0.07356 0.00541
            67  2u222udd  -0.11430 0.01307
            87  u2222udd  -0.07152 0.00511
            94  u222d202  -0.05511 0.00304
           171  20222220   0.07826 0.00612
           173  20222u2d  -0.06846 0.00469
           196  02222ud2  -0.05697 0.00325
 
      printout of CI-coefficients larger than  0.05 for root  7
      energy=    -453.609701
      conf/sym  11111111     Coeff  Weight
             2  22222ud0  -0.18415 0.03391
             7  22222u0d   0.06388 0.00408
            24  222u220d   0.06604 0.00436
            41  22u222d0  -0.10184 0.01037
            44  22u2220d   0.86780 0.75308
            45  22u22dud   0.22529 0.05075
            47  22u22udd   0.31015 0.09619
           112  22ud22ud  -0.06745 0.00455
           201  22uu22dd  -0.06888 0.00475
           220  2uu22d2d  -0.07841 0.00615
           293  20u2222d   0.08118 0.00659
 
      Natural orbitals and occupation numbers for root  1
      sym 1:   1.971715   1.995738   1.999832   1.999872   1.993860   1.955060   0.049370   0.034553
 
      Natural orbitals and occupation numbers for root  2
      sym 1:   1.971648   1.999706   1.001628   1.998561   1.994476   1.999632   0.998974   0.035375
 
      Natural orbitals and occupation numbers for root  3
      sym 1:   1.999791   1.993828   1.997995   1.007369   1.998356   1.953772   0.052277   0.996612
 
      Natural orbitals and occupation numbers for root  4
      sym 1:   1.966438   1.959417   1.999664   1.999471   1.153738   1.849485   0.180842   0.890946
 
      Natural orbitals and occupation numbers for root  5
      sym 1:   1.989480   1.919640   1.999228   1.997503   1.946982   1.070808   0.117685   0.958675
 
      Natural orbitals and occupation numbers for root  6
      sym 1:   1.986300   1.926824   1.990327   1.997572   1.949369   1.068516   0.948732   0.132360
 
      Natural orbitals and occupation numbers for root  7
      sym 1:   1.999288   1.985832   1.146717   1.997607   1.992603   1.904137   0.114401   0.859413
 
      ************************************************************************************************************************
      *                                                                                                                      *
      *                                                    Final results                                                     *
      *                                                                                                                      *
      ************************************************************************************************************************
 
 
++    Wave function specifications:
      -----------------------------
 
      Number of closed shell electrons          58
      Number of electrons in active shells      12
      Max number of holes in RAS1 space          0
      Max nr of electrons in RAS3 space          0
      Number of inactive orbitals               29
      Number of active orbitals                  8
      Number of secondary orbitals             172
      Spin quantum number                      0.0
      State symmetry                             1
--
 
++    Orbital specifications:
      -----------------------
 
      Symmetry species                           1
                                                 a
      Frozen orbitals                            0
      Inactive orbitals                         29
      Active orbitals                            8
      RAS1 orbitals                              0
      RAS2 orbitals                              8
      RAS3 orbitals                              0
      Secondary orbitals                       172
      Deleted orbitals                           3
      Number of basis functions                212
--
 
++    CI expansion specifications:
      ----------------------------
 
      Number of CSFs                           336
      Number of determinants                   406
      Number of root(s) required                 7
      CI roots used                              1     2     3     4     5     6     7
      weights                                0.143 0.143 0.143 0.143 0.143 0.143 0.143
      highest root included in the CI            7
      Root passed to geometry opt.               7
--
 
++    Final optimization conditions:
      ------------------------------
 
      Average CI energy                            -453.70772193
      RASSCF energy for state  7                   -453.60970056
      Super-CI energy                                -0.00000000
      RASSCF energy change                            0.00000000
      Max change in MO coefficients               0.123E-03
      Max non-diagonal density matrix element    -0.863E-04
      Maximum BLB matrix element                  0.194E-05
      (orbital pair  31,  39 in symmetry   1)
      Norm of electronic gradient            0.375E+00
--
 
 
      Final state energy(ies):
      ------------------------
 
::    RASSCF root number  1 Total energy:   -453.95918126
::    RASSCF root number  2 Total energy:   -453.74704065
::    RASSCF root number  3 Total energy:   -453.73527224
::    RASSCF root number  4 Total energy:   -453.64447441
::    RASSCF root number  5 Total energy:   -453.63995948
::    RASSCF root number  6 Total energy:   -453.61842493
::    RASSCF root number  7 Total energy:   -453.60970056
 
++    Molecular orbitals:
      -------------------
 
      Pseudonatural active orbitals and approximate occupation numbers
 
 
 
 
      Molecular orbitals for symmetry species 1: a  
 
 
      Orbital                 1         2         3         4         5         6         7         8         9        10
      Energy           -20.5997  -20.5181  -15.6354  -15.5802  -11.3418  -11.2874  -11.2857  -11.2602  -11.2585   -1.4243
      Occ. No.           2.0000    2.0000    2.0000    2.0000    2.0000    2.0000    2.0000    2.0000    2.0000    2.0000
 
     1 C1     1s         0.0003    0.0001   -0.0003   -0.0000    1.0000    0.0001    0.0001   -0.0000    0.0037   -0.0392
     2 C1     2s         0.0005    0.0006   -0.0012   -0.0002    0.0021   -0.0007    0.0005   -0.0002    0.0004    0.3529
     3 C1     3s        -0.0007    0.0004   -0.0005   -0.0002   -0.0002   -0.0007    0.0004   -0.0002    0.0007   -0.0055
     4 C1     4s        -0.0004    0.0001   -0.0001   -0.0001    0.0012   -0.0003    0.0001   -0.0001    0.0002    0.0034
     5 C1     2px       -0.0013    0.0001   -0.0017   -0.0005    0.0013    0.0001    0.0005   -0.0002    0.0004   -0.0464
     6 C1     3px       -0.0009   -0.0001   -0.0012   -0.0006    0.0014   -0.0003    0.0006   -0.0003   -0.0001    0.0306
     7 C1     4px        0.0001   -0.0001    0.0001   -0.0001    0.0004   -0.0003    0.0000   -0.0001   -0.0002   -0.0138
     8 C1     2py        0.0028   -0.0001   -0.0001   -0.0001    0.0010    0.0001    0.0004   -0.0003    0.0006    0.0961
     9 C1     3py        0.0019   -0.0001   -0.0001   -0.0002    0.0009   -0.0004    0.0004   -0.0003   -0.0001   -0.0659
    10 C1     4py       -0.0004   -0.0000   -0.0000   -0.0001    0.0007   -0.0004   -0.0000   -0.0001   -0.0003    0.0230
    11 C1     2pz       -0.0000   -0.0003   -0.0001   -0.0000    0.0001    0.0000   -0.0002    0.0000   -0.0000   -0.0016
    12 C1     3pz       -0.0000   -0.0004   -0.0001   -0.0000    0.0000    0.0000   -0.0001    0.0000    0.0000   -0.0014
    13 C1     4pz        0.0000   -0.0001   -0.0000   -0.0000    0.0000   -0.0000   -0.0000    0.0000    0.0000   -0.0007
    14 C1     3d2-       0.0002    0.0000   -0.0001    0.0000   -0.0004    0.0000    0.0000   -0.0000   -0.0000   -0.0337
    15 C1     3d1-       0.0000   -0.0000   -0.0000    0.0000   -0.0000   -0.0000   -0.0000    0.0000   -0.0000   -0.0009
    16 C1     3d0       -0.0000   -0.0000   -0.0001    0.0000   -0.0004   -0.0001   -0.0000    0.0000   -0.0001   -0.0281
    17 C1     3d1+      -0.0000   -0.0000    0.0000   -0.0000    0.0000    0.0000   -0.0000   -0.0000    0.0000    0.0008
    18 C1     3d2+       0.0001    0.0000    0.0002    0.0000   -0.0000    0.0000    0.0000    0.0000    0.0000   -0.0083
    19 C3     1s         0.0001    0.0001   -0.0003    0.0001   -0.0001    0.9837    0.1766    0.0000   -0.0001   -0.0097
    20 C3     2s         0.0005    0.0006   -0.0014    0.0007    0.0004   -0.0016    0.0003    0.0005   -0.0009    0.0150
    21 C3     3s         0.0003    0.0003   -0.0007    0.0005    0.0003   -0.0028    0.0001    0.0003   -0.0005   -0.0203
    22 C3     4s         0.0000   -0.0000   -0.0001    0.0001   -0.0000    0.0007    0.0002    0.0000   -0.0001   -0.0024
    23 C3     2px        0.0000   -0.0007    0.0005    0.0003    0.0006   -0.0007   -0.0001   -0.0001   -0.0003   -0.0205
    24 C3     3px        0.0002   -0.0006    0.0001    0.0003    0.0009   -0.0008    0.0004   -0.0004   -0.0004   -0.0075
    25 C3     4px        0.0001   -0.0000   -0.0001   -0.0000    0.0003   -0.0005    0.0001   -0.0002   -0.0001   -0.0045
    26 C3     2py       -0.0001    0.0009    0.0004   -0.0006    0.0004   -0.0001   -0.0001    0.0002    0.0002   -0.0182
    27 C3     3py       -0.0001    0.0009   -0.0001   -0.0005    0.0005    0.0001    0.0001    0.0002    0.0000   -0.0030
    28 C3     4py        0.0000    0.0000   -0.0002    0.0001    0.0001   -0.0008   -0.0000    0.0000   -0.0001   -0.0040
    29 C3     2pz        0.0003   -0.0006    0.0004    0.0004   -0.0007    0.0001    0.0001   -0.0004   -0.0000    0.0021
    30 C3     3pz        0.0002   -0.0004    0.0006    0.0005   -0.0009   -0.0001   -0.0003   -0.0004   -0.0001    0.0055
    31 C3     4pz       -0.0000    0.0002    0.0001    0.0001   -0.0001   -0.0002   -0.0001    0.0000   -0.0000    0.0019
    32 C3     3d2-       0.0000    0.0000    0.0000   -0.0001    0.0000   -0.0001   -0.0000    0.0000   -0.0000    0.0035
    33 C3     3d1-      -0.0000   -0.0001    0.0000   -0.0000   -0.0000    0.0000   -0.0001    0.0000    0.0000    0.0000
    34 C3     3d0       -0.0000    0.0000   -0.0001   -0.0000   -0.0001    0.0000   -0.0000    0.0001    0.0000   -0.0023
    35 C3     3d1+       0.0000   -0.0000    0.0000   -0.0000   -0.0000    0.0001   -0.0000   -0.0001   -0.0000   -0.0009
    36 C3     3d2+      -0.0000   -0.0001   -0.0001   -0.0000    0.0000    0.0001   -0.0000    0.0000    0.0000   -0.0009
    37 C4     1s         0.0001    0.0003    0.0000    0.0003   -0.0002    0.1766   -0.9843    0.0003    0.0001    0.0003
    38 C4     2s         0.0004    0.0009    0.0003    0.0011   -0.0017    0.0012   -0.0025   -0.0005    0.0007    0.0330
    39 C4     3s         0.0002   -0.0004    0.0002    0.0005   -0.0013    0.0002   -0.0002   -0.0004    0.0005    0.0116
    40 C4     4s         0.0000   -0.0003    0.0001    0.0001   -0.0004    0.0003   -0.0014   -0.0002    0.0002    0.0040
    41 C4     2px       -0.0001    0.0023   -0.0001   -0.0002    0.0002   -0.0006    0.0001    0.0002   -0.0002   -0.0029
    42 C4     3px       -0.0000    0.0014   -0.0000   -0.0002    0.0002   -0.0001    0.0001   -0.0001   -0.0003   -0.0050
    43 C4     4px        0.0001   -0.0003    0.0000    0.0000    0.0000    0.0002   -0.0001   -0.0002   -0.0001   -0.0017
    44 C4     2py       -0.0001   -0.0024    0.0001    0.0010   -0.0000    0.0002   -0.0006   -0.0003   -0.0001   -0.0058
    45 C4     3py       -0.0001   -0.0018    0.0001    0.0007   -0.0001    0.0004   -0.0003   -0.0005   -0.0001   -0.0007
    46 C4     4py       -0.0000    0.0002   -0.0001   -0.0001   -0.0001    0.0002    0.0000   -0.0001    0.0000    0.0000
    47 C4     2pz       -0.0002   -0.0004   -0.0004   -0.0012   -0.0001    0.0012    0.0007    0.0002    0.0003    0.0054
    48 C4     3pz       -0.0004   -0.0001   -0.0006   -0.0009   -0.0001    0.0008    0.0004    0.0009    0.0003    0.0059
    49 C4     4pz       -0.0002    0.0001   -0.0001    0.0001    0.0000   -0.0001    0.0003    0.0005    0.0000    0.0020
    50 C4     3d2-       0.0000    0.0001   -0.0000    0.0001    0.0000   -0.0000    0.0004   -0.0000   -0.0000   -0.0017
    51 C4     3d1-      -0.0000   -0.0001   -0.0000    0.0002    0.0000    0.0000    0.0002   -0.0001   -0.0000   -0.0008
    52 C4     3d0        0.0000    0.0001    0.0000    0.0000    0.0000   -0.0000    0.0002    0.0000    0.0000   -0.0006
    53 C4     3d1+      -0.0000   -0.0000    0.0000   -0.0001    0.0000   -0.0000   -0.0000   -0.0000   -0.0000   -0.0006
    54 C4     3d2+       0.0000   -0.0000    0.0001    0.0001    0.0000    0.0000    0.0001   -0.0000   -0.0000    0.0000
    55 C6     1s        -0.0000    0.0001    0.0001    0.0003   -0.0001   -0.0000    0.0004    0.9997   -0.0000    0.0008
    56 C6     2s        -0.0001    0.0006    0.0007    0.0014   -0.0006   -0.0001    0.0004    0.0001   -0.0001    0.0093
    57 C6     3s        -0.0001    0.0004    0.0005    0.0003   -0.0005   -0.0001    0.0004   -0.0016   -0.0000    0.0077
    58 C6     4s        -0.0001    0.0001    0.0001   -0.0001   -0.0002   -0.0001    0.0002    0.0009    0.0000    0.0028
    59 C6     2px        0.0000    0.0000   -0.0001   -0.0003    0.0001   -0.0002   -0.0001   -0.0001   -0.0000   -0.0032
    60 C6     3px        0.0000   -0.0000   -0.0000    0.0001    0.0001   -0.0002   -0.0000    0.0002   -0.0000   -0.0025
    61 C6     4px       -0.0000   -0.0000    0.0000    0.0001    0.0000    0.0000    0.0000   -0.0003    0.0000    0.0001
    62 C6     2py        0.0000   -0.0001    0.0002    0.0001   -0.0002   -0.0001   -0.0003    0.0001    0.0000    0.0015
    63 C6     3py        0.0001   -0.0001    0.0002    0.0002   -0.0001   -0.0001   -0.0004   -0.0000    0.0000    0.0013
    64 C6     4py        0.0000    0.0001    0.0000    0.0001    0.0000   -0.0000   -0.0001   -0.0001   -0.0000   -0.0003
    65 C6     2pz       -0.0001    0.0003    0.0002    0.0004   -0.0003   -0.0001    0.0004   -0.0000    0.0000    0.0059
    66 C6     3pz       -0.0001    0.0003    0.0002   -0.0002   -0.0003   -0.0001    0.0005   -0.0002    0.0000    0.0059
    67 C6     4pz       -0.0000    0.0000    0.0000   -0.0002   -0.0000   -0.0001    0.0001    0.0006    0.0000    0.0010
    68 C6     3d2-      -0.0000   -0.0000    0.0000    0.0001   -0.0000    0.0000   -0.0000    0.0000    0.0000    0.0003
    69 C6     3d1-       0.0000   -0.0000    0.0000    0.0000   -0.0000   -0.0000    0.0001   -0.0000   -0.0000   -0.0000
    70 C6     3d0       -0.0000    0.0000    0.0000   -0.0000    0.0000    0.0000   -0.0000   -0.0000    0.0000    0.0002
    71 C6     3d1+       0.0000   -0.0000   -0.0000    0.0001    0.0000   -0.0000   -0.0000    0.0001    0.0000   -0.0003
    72 C6     3d2+      -0.0000    0.0000   -0.0000   -0.0000    0.0000    0.0000    0.0000   -0.0000    0.0000    0.0001
    73 C19    1s         0.0002   -0.0000    0.0000   -0.0000    0.0037    0.0002    0.0000   -0.0000   -1.0000   -0.0146
    74 C19    2s         0.0011   -0.0001    0.0002   -0.0001    0.0006    0.0009    0.0000   -0.0002   -0.0019   -0.0128
    75 C19    3s         0.0007   -0.0001    0.0001   -0.0002    0.0003    0.0005    0.0000   -0.0002    0.0005   -0.0396
    76 C19    4s         0.0001   -0.0000    0.0000   -0.0001    0.0001    0.0000    0.0000   -0.0001   -0.0012   -0.0037
    77 C19    2px        0.0008    0.0001    0.0004    0.0000   -0.0002    0.0002   -0.0000   -0.0000    0.0002   -0.0107
    78 C19    3px        0.0005    0.0001    0.0003    0.0001   -0.0003    0.0002   -0.0001    0.0000    0.0001   -0.0075
    79 C19    4px       -0.0002    0.0000   -0.0000    0.0000   -0.0000   -0.0000   -0.0000    0.0000   -0.0002    0.0076
    80 C19    2py       -0.0001   -0.0001   -0.0003   -0.0002    0.0004    0.0003    0.0001   -0.0001    0.0003    0.0211
    81 C19    3py       -0.0002   -0.0001   -0.0003   -0.0002   -0.0001    0.0001    0.0001   -0.0001    0.0000   -0.0062
    82 C19    4py       -0.0001    0.0000    0.0001   -0.0000   -0.0001   -0.0001    0.0000   -0.0000   -0.0004    0.0058
    83 C19    2pz       -0.0001   -0.0001   -0.0000   -0.0001    0.0001    0.0001    0.0000   -0.0001   -0.0000   -0.0004
    84 C19    3pz       -0.0000   -0.0000   -0.0000   -0.0001    0.0001    0.0001    0.0000   -0.0001   -0.0000   -0.0001
    85 C19    4pz        0.0000    0.0000    0.0000   -0.0000    0.0000   -0.0000    0.0000   -0.0000    0.0000    0.0000
    86 C19    3d2-       0.0001   -0.0000    0.0000   -0.0000    0.0000    0.0001   -0.0000   -0.0000    0.0001    0.0002
    87 C19    3d1-       0.0000    0.0000    0.0000   -0.0000    0.0000   -0.0000   -0.0000    0.0000   -0.0000    0.0000
    88 C19    3d0       -0.0001   -0.0000    0.0001    0.0000    0.0001   -0.0000   -0.0000    0.0000   -0.0001    0.0014
    89 C19    3d1+       0.0000    0.0000    0.0000    0.0000   -0.0000   -0.0000    0.0000    0.0000    0.0000   -0.0000
    90 C19    3d2+       0.0001   -0.0000    0.0000    0.0000   -0.0001   -0.0000   -0.0000    0.0000   -0.0001   -0.0070
    91 N2     1s         0.0001   -0.0000   -0.9999   -0.0000   -0.0002    0.0001   -0.0001    0.0000   -0.0001   -0.0177
    92 N2     2s         0.0005   -0.0003   -0.0002   -0.0001   -0.0002    0.0015   -0.0005    0.0001   -0.0006    0.1157
    93 N2     3s         0.0004   -0.0002    0.0013   -0.0000   -0.0004    0.0008   -0.0005    0.0001   -0.0004   -0.0472
    94 N2     4s         0.0001   -0.0000   -0.0004   -0.0000    0.0000    0.0002   -0.0001    0.0000   -0.0001   -0.0112
    95 N2     2px        0.0002    0.0002   -0.0006   -0.0004   -0.0001    0.0008    0.0000   -0.0001    0.0004   -0.0323
    96 N2     3px        0.0001    0.0002   -0.0006   -0.0005    0.0002    0.0007   -0.0000   -0.0001    0.0003    0.0134
    97 N2     4px       -0.0000   -0.0000    0.0002   -0.0000   -0.0002   -0.0000    0.0000   -0.0000   -0.0001   -0.0060
    98 N2     2py       -0.0015    0.0000    0.0007   -0.0002    0.0003    0.0009   -0.0002   -0.0000    0.0003    0.0360
    99 N2     3py       -0.0018    0.0000    0.0001   -0.0003    0.0003    0.0010   -0.0003   -0.0001    0.0003    0.0149
   100 N2     4py       -0.0000    0.0000   -0.0004   -0.0001   -0.0000    0.0002    0.0001   -0.0000   -0.0001   -0.0060
   101 N2     2pz       -0.0000    0.0004    0.0000   -0.0000    0.0001   -0.0001   -0.0001    0.0001    0.0001    0.0005
   102 N2     3pz        0.0000    0.0006   -0.0000   -0.0000    0.0000   -0.0002    0.0000    0.0001    0.0001    0.0040
   103 N2     4pz        0.0000    0.0001    0.0002    0.0000   -0.0000   -0.0001   -0.0001    0.0000   -0.0000   -0.0001
   104 N2     3d2-       0.0001   -0.0000    0.0002   -0.0000   -0.0001   -0.0000   -0.0000   -0.0000    0.0000   -0.0027
   105 N2     3d1-       0.0000    0.0000   -0.0000   -0.0000    0.0000    0.0000    0.0000    0.0000   -0.0000   -0.0005
   106 N2     3d0       -0.0000    0.0000    0.0000    0.0000    0.0001    0.0001    0.0000   -0.0000    0.0001   -0.0026
   107 N2     3d1+      -0.0000    0.0000    0.0000   -0.0000   -0.0000   -0.0000    0.0000    0.0000    0.0000    0.0002
   108 N2     3d2+      -0.0001   -0.0000    0.0000   -0.0000    0.0001   -0.0000   -0.0000   -0.0000   -0.0000    0.0049
   109 N5     1s         0.0000    0.0001   -0.0001    0.9999    0.0001   -0.0000    0.0003    0.0001   -0.0000   -0.0016
   110 N5     2s         0.0001    0.0009   -0.0003    0.0006    0.0005    0.0001    0.0003    0.0017   -0.0001    0.0001
   111 N5     3s         0.0001    0.0006   -0.0002   -0.0010    0.0004    0.0001    0.0004    0.0010   -0.0001   -0.0053
   112 N5     4s         0.0000    0.0001   -0.0000    0.0006    0.0001    0.0000   -0.0000    0.0004   -0.0000   -0.0012
   113 N5     2px       -0.0000   -0.0011   -0.0004   -0.0008    0.0003    0.0002   -0.0003    0.0004    0.0001   -0.0032
   114 N5     3px       -0.0000   -0.0013   -0.0006   -0.0004    0.0006    0.0003   -0.0002    0.0005    0.0002   -0.0054
   115 N5     4px        0.0000   -0.0000   -0.0000    0.0003    0.0001    0.0001    0.0000    0.0002    0.0000   -0.0011
   116 N5     2py        0.0001    0.0006    0.0000    0.0005    0.0001   -0.0002    0.0002    0.0002   -0.0000   -0.0029
   117 N5     3py        0.0001    0.0007   -0.0001    0.0002    0.0002   -0.0001    0.0001   -0.0001   -0.0000   -0.0025
   118 N5     4py        0.0000    0.0000   -0.0001   -0.0003    0.0001    0.0001    0.0002   -0.0001   -0.0000   -0.0011
   119 N5     2pz        0.0000    0.0008    0.0005    0.0003   -0.0004    0.0000    0.0003   -0.0008   -0.0001    0.0072
   120 N5     3pz        0.0001    0.0010    0.0007    0.0002   -0.0007   -0.0001    0.0003   -0.0007   -0.0000    0.0113
   121 N5     4pz        0.0000    0.0000    0.0001   -0.0001   -0.0002   -0.0001   -0.0002   -0.0001    0.0000    0.0028
   122 N5     3d2-      -0.0000    0.0000   -0.0000   -0.0001    0.0000   -0.0000   -0.0001    0.0000    0.0000   -0.0000
   123 N5     3d1-      -0.0000   -0.0000    0.0000    0.0001    0.0000   -0.0000   -0.0001    0.0001    0.0000   -0.0002
   124 N5     3d0       -0.0000    0.0001   -0.0000   -0.0001   -0.0000   -0.0000    0.0001   -0.0000    0.0000    0.0001
   125 N5     3d1+       0.0000   -0.0001   -0.0000    0.0001    0.0000    0.0000   -0.0001    0.0000   -0.0000   -0.0001
   126 N5     3d2+      -0.0000    0.0000    0.0000   -0.0000    0.0000   -0.0000    0.0000    0.0000    0.0000   -0.0000
   127 O7     1s         0.9997   -0.0000   -0.0000    0.0000   -0.0002   -0.0000   -0.0000    0.0000   -0.0001   -0.0240
   128 O7     2s        -0.0012   -0.0000   -0.0002    0.0000    0.0005   -0.0001   -0.0002    0.0000   -0.0003    0.6913
   129 O7     3s        -0.0011   -0.0000   -0.0002    0.0000    0.0000   -0.0000   -0.0001    0.0000   -0.0003   -0.0345
   130 O7     4s         0.0002   -0.0000   -0.0000    0.0000    0.0000    0.0000   -0.0000    0.0000   -0.0001   -0.0141
   131 O7     2px        0.0002    0.0000    0.0003    0.0001    0.0004   -0.0001   -0.0001    0.0000   -0.0001    0.0900
   132 O7     3px       -0.0002    0.0000    0.0004    0.0001   -0.0001   -0.0001   -0.0001    0.0000   -0.0002   -0.0273
   133 O7     4px        0.0008    0.0000    0.0001    0.0000    0.0001   -0.0000   -0.0000    0.0000    0.0000   -0.0016
   134 O7     2py       -0.0003   -0.0000    0.0002    0.0001   -0.0007   -0.0000   -0.0000   -0.0000    0.0001   -0.1170
   135 O7     3py        0.0004    0.0000    0.0002    0.0001   -0.0004   -0.0001   -0.0001   -0.0000    0.0001    0.0366
   136 O7     4py       -0.0011    0.0000   -0.0001    0.0000   -0.0003   -0.0000   -0.0000    0.0000   -0.0001    0.0001
   137 O7     2pz       -0.0000    0.0000    0.0000   -0.0000    0.0001    0.0000    0.0000   -0.0000    0.0000    0.0047
   138 O7     3pz       -0.0000    0.0001    0.0000   -0.0000    0.0000    0.0000    0.0001   -0.0000    0.0000   -0.0001
   139 O7     4pz        0.0000    0.0000    0.0000    0.0000   -0.0000    0.0000    0.0000   -0.0000    0.0000    0.0002
   140 O7     3d2-       0.0001   -0.0000   -0.0000   -0.0000   -0.0002    0.0000    0.0000   -0.0000    0.0000   -0.0184
   141 O7     3d1-      -0.0000   -0.0000   -0.0000    0.0000   -0.0000    0.0000   -0.0000   -0.0000    0.0000   -0.0007
   142 O7     3d0       -0.0000   -0.0000    0.0001   -0.0000   -0.0001    0.0000   -0.0000    0.0000    0.0000   -0.0107
   143 O7     3d1+      -0.0000    0.0000   -0.0000   -0.0000    0.0000    0.0000   -0.0000   -0.0000    0.0000    0.0004
   144 O7     3d2+       0.0000   -0.0000    0.0001    0.0000   -0.0001   -0.0000   -0.0000    0.0000    0.0000   -0.0055
   145 O8     1s        -0.0000    0.9997    0.0000    0.0000    0.0000    0.0000    0.0002   -0.0000   -0.0000   -0.0015
   146 O8     2s        -0.0000   -0.0015    0.0003    0.0002    0.0003    0.0004   -0.0007   -0.0003   -0.0001    0.0161
   147 O8     3s        -0.0001   -0.0014    0.0002    0.0002    0.0002    0.0002   -0.0001   -0.0002   -0.0001   -0.0039
   148 O8     4s        -0.0000    0.0001    0.0001    0.0000    0.0001    0.0001   -0.0001   -0.0000   -0.0000   -0.0011
   149 O8     2px       -0.0000   -0.0002   -0.0002   -0.0001   -0.0001   -0.0002    0.0005    0.0000    0.0001   -0.0031
   150 O8     3px        0.0000    0.0004   -0.0002   -0.0000   -0.0001   -0.0001    0.0002   -0.0000    0.0001    0.0025
   151 O8     4px        0.0000   -0.0010   -0.0000    0.0001   -0.0000    0.0000    0.0001   -0.0000    0.0000   -0.0000
   152 O8     2py        0.0000    0.0002    0.0000   -0.0001    0.0001    0.0002   -0.0006   -0.0001    0.0000    0.0013
   153 O8     3py        0.0001   -0.0004    0.0000   -0.0002    0.0001    0.0001   -0.0001   -0.0000    0.0000   -0.0019
   154 O8     4py        0.0000    0.0010    0.0000   -0.0001    0.0000   -0.0000   -0.0001    0.0000    0.0000    0.0002
   155 O8     2pz        0.0000   -0.0000    0.0002    0.0003    0.0000   -0.0001    0.0000    0.0000   -0.0000    0.0006
   156 O8     3pz        0.0001   -0.0001    0.0002    0.0003   -0.0001   -0.0001   -0.0001   -0.0000   -0.0001    0.0000
   157 O8     4pz        0.0000    0.0001    0.0001    0.0000   -0.0000   -0.0000   -0.0001   -0.0000   -0.0000    0.0002
   158 O8     3d2-      -0.0000    0.0001   -0.0000   -0.0000    0.0000   -0.0001    0.0002    0.0000    0.0000   -0.0004
   159 O8     3d1-      -0.0000   -0.0001   -0.0000    0.0000    0.0000    0.0000   -0.0000    0.0000   -0.0000    0.0001
   160 O8     3d0       -0.0000    0.0001   -0.0000    0.0000    0.0000   -0.0000    0.0002    0.0000    0.0000   -0.0003
   161 O8     3d1+       0.0000   -0.0000   -0.0000   -0.0001    0.0000   -0.0000   -0.0000   -0.0000    0.0000   -0.0001
   162 O8     3d2+      -0.0000   -0.0000    0.0000    0.0000    0.0000   -0.0000    0.0000    0.0000   -0.0000    0.0001
   163 H9     1s         0.0002    0.0002   -0.0000   -0.0000   -0.0000   -0.0003    0.0002   -0.0000   -0.0003    0.0155
   164 H9     2s         0.0001    0.0001   -0.0000   -0.0000   -0.0000   -0.0002    0.0001   -0.0000    0.0003    0.0043
   165 H9     2px       -0.0000    0.0000   -0.0000   -0.0000    0.0000   -0.0000    0.0000   -0.0000    0.0000    0.0010
   166 H9     2py       -0.0001    0.0000    0.0000   -0.0000    0.0001   -0.0000    0.0000   -0.0000   -0.0000    0.0012
   167 H9     2pz       -0.0000   -0.0000   -0.0000    0.0000   -0.0000    0.0000   -0.0000    0.0000   -0.0001   -0.0007
   168 H10    1s         0.0001   -0.0002   -0.0002   -0.0002    0.0001   -0.0001    0.0001   -0.0001   -0.0003    0.0148
   169 H10    2s         0.0001   -0.0001   -0.0001   -0.0001    0.0001   -0.0000    0.0001   -0.0001    0.0003    0.0036
   170 H10    2px       -0.0000   -0.0000   -0.0000   -0.0000    0.0000   -0.0000    0.0000   -0.0000    0.0000    0.0009
   171 H10    2py       -0.0001   -0.0000    0.0000   -0.0000    0.0001   -0.0000   -0.0000   -0.0000   -0.0000    0.0012
   172 H10    2pz        0.0000   -0.0000    0.0000   -0.0000    0.0000   -0.0000    0.0000   -0.0000    0.0001    0.0007
   173 H11    1s        -0.0004   -0.0001   -0.0005   -0.0002    0.0003   -0.0001    0.0001   -0.0001   -0.0003    0.0212
   174 H11    2s        -0.0002   -0.0000   -0.0004   -0.0002    0.0002   -0.0000    0.0001   -0.0001    0.0002    0.0064
   175 H11    2px       -0.0000    0.0000    0.0001    0.0000   -0.0000    0.0000   -0.0000    0.0000   -0.0001   -0.0003
   176 H11    2py       -0.0000   -0.0000   -0.0000   -0.0000    0.0001    0.0000   -0.0000   -0.0000    0.0000    0.0020
   177 H11    2pz        0.0000    0.0000    0.0000    0.0000   -0.0000   -0.0000   -0.0000    0.0000    0.0000   -0.0000
   178 H12    1s        -0.0011    0.0000    0.0010    0.0002    0.0001   -0.0001   -0.0001   -0.0001    0.0005    0.0377
   179 H12    2s        -0.0006    0.0000    0.0007    0.0001   -0.0000   -0.0000   -0.0001   -0.0001    0.0002   -0.0018
   180 H12    2px        0.0000   -0.0000   -0.0002    0.0000   -0.0001    0.0000    0.0001    0.0000   -0.0000   -0.0043
   181 H12    2py       -0.0000   -0.0000    0.0004    0.0000    0.0000    0.0000    0.0000   -0.0000    0.0000    0.0043
   182 H12    2pz       -0.0000    0.0000    0.0001   -0.0000    0.0000    0.0000   -0.0000   -0.0000   -0.0000    0.0005
   183 H13    1s         0.0003   -0.0008    0.0005    0.0004   -0.0003    0.0007    0.0003   -0.0001   -0.0002    0.0130
   184 H13    2s         0.0003   -0.0005    0.0002    0.0003   -0.0001   -0.0000    0.0001   -0.0001   -0.0001   -0.0035
   185 H13    2px        0.0000   -0.0000   -0.0000    0.0000   -0.0000    0.0000   -0.0000    0.0000    0.0000   -0.0003
   186 H13    2py       -0.0000    0.0000    0.0000   -0.0000    0.0000   -0.0001    0.0000   -0.0000    0.0000   -0.0012
   187 H13    2pz       -0.0000    0.0000   -0.0000    0.0000    0.0000   -0.0000    0.0000   -0.0000    0.0000    0.0002
   188 H14    1s         0.0001    0.0004    0.0003   -0.0002   -0.0001    0.0011    0.0002    0.0000    0.0003    0.0116
   189 H14    2s         0.0001    0.0002    0.0001   -0.0002   -0.0001    0.0003   -0.0000    0.0000    0.0002    0.0026
   190 H14    2px       -0.0000   -0.0001   -0.0000    0.0000    0.0000   -0.0000   -0.0000   -0.0000   -0.0000   -0.0007
   191 H14    2py       -0.0000   -0.0000   -0.0000    0.0000   -0.0000   -0.0001    0.0000   -0.0000   -0.0000   -0.0004
   192 H14    2pz       -0.0000    0.0000   -0.0000    0.0000    0.0000   -0.0000    0.0001    0.0000   -0.0000   -0.0009
   193 H15    1s        -0.0001   -0.0013   -0.0004   -0.0009    0.0002    0.0001   -0.0003   -0.0002    0.0001   -0.0010
   194 H15    2s        -0.0000   -0.0007   -0.0002   -0.0006    0.0001    0.0001   -0.0001   -0.0000    0.0001   -0.0020
   195 H15    2px       -0.0000   -0.0001   -0.0000   -0.0004   -0.0000    0.0000   -0.0001    0.0000    0.0000    0.0004
   196 H15    2py        0.0000    0.0000    0.0000    0.0003    0.0000   -0.0000    0.0001    0.0000   -0.0000   -0.0001
   197 H15    2pz        0.0000   -0.0000   -0.0000    0.0001    0.0000   -0.0000   -0.0001   -0.0000   -0.0000   -0.0005
   198 H16    1s        -0.0000    0.0004    0.0001   -0.0005   -0.0002   -0.0002    0.0003    0.0005    0.0000    0.0039
   199 H16    2s        -0.0000    0.0003    0.0001   -0.0002   -0.0001   -0.0002    0.0003   -0.0001    0.0000    0.0030
   200 H16    2px       -0.0000    0.0000    0.0000    0.0000   -0.0000   -0.0000    0.0000   -0.0000   -0.0000    0.0002
   201 H16    2py       -0.0000   -0.0000   -0.0000    0.0000    0.0000    0.0000    0.0000   -0.0000   -0.0000   -0.0001
   202 H16    2pz       -0.0000    0.0000    0.0000   -0.0000   -0.0000   -0.0000    0.0001    0.0000   -0.0000    0.0002
   203 H17    1s        -0.0001    0.0002   -0.0002   -0.0005    0.0000    0.0001    0.0003    0.0005    0.0000    0.0016
   204 H17    2s        -0.0000    0.0001   -0.0001   -0.0002   -0.0000    0.0001    0.0003   -0.0001    0.0000    0.0013
   205 H17    2px        0.0000   -0.0000    0.0000    0.0000    0.0000    0.0000   -0.0000   -0.0000    0.0000   -0.0001
   206 H17    2py        0.0000   -0.0000    0.0000    0.0000   -0.0000   -0.0000   -0.0001    0.0000   -0.0000   -0.0003
   207 H17    2pz        0.0000    0.0000    0.0000   -0.0000   -0.0000   -0.0000    0.0000    0.0000   -0.0000   -0.0000
   208 H18    1s        -0.0001    0.0000    0.0002   -0.0001   -0.0003    0.0001    0.0000    0.0010    0.0001    0.0061
   209 H18    2s        -0.0001    0.0001    0.0001   -0.0000   -0.0002    0.0001   -0.0001    0.0001    0.0001    0.0039
   210 H18    2px        0.0000   -0.0000   -0.0000   -0.0000    0.0000   -0.0000   -0.0000   -0.0001   -0.0000   -0.0005
   211 H18    2py       -0.0000    0.0000   -0.0000    0.0000   -0.0000    0.0000    0.0000    0.0001    0.0000    0.0004
   212 H18    2pz        0.0000   -0.0000   -0.0000    0.0000    0.0000    0.0000   -0.0000    0.0000    0.0000   -0.0000
 
 
      Orbital                11        12        13        14        15        16        17        18        19        20
      Energy            -1.3594   -1.2546   -1.2107   -1.0295   -0.9705   -0.9143   -0.8175   -0.7755   -0.7175   -0.6943
      Occ. No.           2.0000    2.0000    2.0000    2.0000    2.0000    2.0000    2.0000    2.0000    2.0000    2.0000
 
     1 C1     1s         0.0035   -0.0075    0.0032   -0.0170   -0.0022    0.0072   -0.0139    0.0011    0.0067    0.0034
     2 C1     2s         0.0103    0.1386    0.0011    0.2713   -0.0395   -0.0803    0.3843   -0.0490   -0.2511   -0.0788
     3 C1     3s         0.0168    0.0063    0.0150   -0.0204   -0.0102    0.0150   -0.0038   -0.0024    0.0071    0.0177
     4 C1     4s         0.0053    0.0021    0.0047   -0.0054   -0.0035    0.0055   -0.0026   -0.0003    0.0039    0.0033
     5 C1     2px        0.0330    0.1498    0.0096   -0.0016    0.1046   -0.0921    0.1283   -0.0105    0.1535    0.2634
     6 C1     3px        0.0217   -0.0443    0.0330   -0.0380   -0.0240    0.0336   -0.0289   -0.0137   -0.0681   -0.0633
     7 C1     4px        0.0092    0.0262    0.0040   -0.0066    0.0127   -0.0070    0.0085   -0.0030    0.0059    0.0172
     8 C1     2py        0.0128   -0.0305    0.0275   -0.1567    0.0571    0.0039    0.0557    0.0350    0.0622   -0.1365
     9 C1     3py        0.0296    0.0472    0.0287    0.0182   -0.0530    0.0414   -0.0126    0.0023   -0.0135    0.0580
    10 C1     4py        0.0014   -0.0052    0.0063   -0.0242    0.0064    0.0025    0.0064    0.0033   -0.0029   -0.0081
    11 C1     2pz        0.0032   -0.0037   -0.0028    0.0050    0.0041   -0.0063    0.0101    0.0016    0.0097   -0.0010
    12 C1     3pz        0.0029   -0.0110   -0.0045    0.0024    0.0021   -0.0056    0.0049   -0.0011    0.0023   -0.0023
    13 C1     4pz       -0.0001   -0.0010   -0.0018    0.0019    0.0010   -0.0017    0.0009    0.0004    0.0023   -0.0009
    14 C1     3d2-       0.0029    0.0157   -0.0010    0.0084   -0.0090    0.0059    0.0135    0.0068    0.0179    0.0075
    15 C1     3d1-      -0.0001    0.0001   -0.0000   -0.0000    0.0002   -0.0001    0.0003    0.0003    0.0005    0.0000
    16 C1     3d0        0.0004   -0.0065    0.0005   -0.0116   -0.0005    0.0046   -0.0137    0.0017    0.0058    0.0025
    17 C1     3d1+       0.0002    0.0001    0.0001    0.0007    0.0013   -0.0005    0.0017    0.0008    0.0023   -0.0007
    18 C1     3d2+       0.0024    0.0271   -0.0022    0.0013    0.0156   -0.0129    0.0098   -0.0006    0.0146    0.0173
    19 C3     1s        -0.0160   -0.0288   -0.0042    0.0315    0.0264   -0.0187   -0.0070   -0.0051    0.0007    0.0006
    20 C3     2s         0.0219    0.1780    0.0053   -0.2959   -0.2659    0.3258    0.1044    0.0648   -0.0414    0.0304
    21 C3     3s        -0.0430   -0.0485   -0.0144    0.0515    0.0421   -0.0071   -0.0124   -0.0086    0.0057    0.0003
    22 C3     4s        -0.0062   -0.0111   -0.0015    0.0153    0.0106   -0.0038   -0.0039   -0.0033    0.0030   -0.0016
    23 C3     2px        0.0316   -0.0516    0.0198   -0.0143   -0.0481    0.0357   -0.0590   -0.1079   -0.2571    0.0746
    24 C3     3px        0.0163    0.0125    0.0228   -0.0230    0.0127    0.0428    0.0092    0.0180    0.0290   -0.0112
    25 C3     4px        0.0056   -0.0022    0.0069   -0.0055   -0.0015    0.0065   -0.0024   -0.0069   -0.0054    0.0022
    26 C3     2py       -0.0260   -0.0895    0.0237    0.0051   -0.0413   -0.0305    0.1380   -0.0179   -0.0420    0.2093
    27 C3     3py       -0.0023    0.0135    0.0030   -0.0304    0.0131   -0.0166   -0.0060    0.0064    0.0118   -0.0296
    28 C3     4py        0.0048   -0.0037    0.0027   -0.0095   -0.0069    0.0038    0.0082    0.0064   -0.0018    0.0083
    29 C3     2pz        0.0002    0.0162   -0.0209    0.0096    0.0347    0.0596    0.0082    0.1115    0.0893   -0.1079
    30 C3     3pz        0.0229    0.0276    0.0015   -0.0226   -0.0328    0.0337    0.0114   -0.0188   -0.0148    0.0118
    31 C3     4pz       -0.0061    0.0111   -0.0014   -0.0112   -0.0081    0.0177    0.0022    0.0055   -0.0024   -0.0006
    32 C3     3d2-       0.0028    0.0181    0.0021   -0.0034    0.0052   -0.0015   -0.0050    0.0020    0.0130   -0.0186
    33 C3     3d1-       0.0050   -0.0020   -0.0034    0.0011    0.0005    0.0015   -0.0001   -0.0012   -0.0052    0.0030
    34 C3     3d0       -0.0005   -0.0093    0.0044    0.0014   -0.0092   -0.0031    0.0005   -0.0125   -0.0200    0.0115
    35 C3     3d1+      -0.0032   -0.0027   -0.0002    0.0048    0.0078    0.0019    0.0004    0.0099    0.0077   -0.0070
    36 C3     3d2+       0.0019   -0.0103   -0.0007    0.0015   -0.0059   -0.0009    0.0181   -0.0037   -0.0060    0.0171
    37 C4     1s        -0.0401    0.0064   -0.0060    0.0090    0.0136    0.0084   -0.0017    0.0162    0.0023   -0.0021
    38 C4     2s         0.3611    0.0250    0.1197   -0.0899   -0.2291   -0.0654    0.0280   -0.4086   -0.0710    0.0726
    39 C4     3s        -0.0089    0.0209    0.0064    0.0239    0.0086    0.0172   -0.0028    0.0087    0.0029    0.0008
    40 C4     4s         0.0013    0.0054    0.0018    0.0076    0.0033    0.0052   -0.0010    0.0051    0.0029   -0.0017
    41 C4     2px        0.0766   -0.0409   -0.0528    0.0449    0.1034    0.0201   -0.0018    0.0207    0.0620   -0.0561
    42 C4     3px       -0.0386    0.0146    0.0516   -0.0386    0.0016    0.0371    0.0078   -0.0157   -0.0238    0.0204
    43 C4     4px        0.0219   -0.0063   -0.0056    0.0019    0.0136    0.0078    0.0017   -0.0025   -0.0003    0.0003
    44 C4     2py       -0.0522    0.0006    0.1402   -0.0174   -0.0551   -0.0625    0.0154   -0.0860    0.0523    0.0004
    45 C4     3py        0.0560   -0.0284   -0.0264    0.0069    0.0281    0.0388    0.0118    0.0116   -0.0269    0.0072
    46 C4     4py       -0.0144   -0.0016    0.0274   -0.0012   -0.0042   -0.0038    0.0074   -0.0050    0.0034    0.0003
    47 C4     2pz       -0.0436    0.0144   -0.1071   -0.0438   -0.0706    0.0366   -0.0013    0.0652   -0.1806    0.1017
    48 C4     3pz       -0.0106   -0.0210   -0.0414    0.0330   -0.0189   -0.1269   -0.0169   -0.0077    0.0725   -0.0478
    49 C4     4pz       -0.0111    0.0013   -0.0258   -0.0052   -0.0120   -0.0090   -0.0035    0.0069   -0.0067    0.0009
    50 C4     3d2-      -0.0382    0.0071    0.0084   -0.0014    0.0038    0.0078   -0.0036   -0.0014    0.0025   -0.0077
    51 C4     3d1-      -0.0030   -0.0036   -0.0231    0.0012    0.0068    0.0134    0.0041    0.0154   -0.0099    0.0104
    52 C4     3d0       -0.0170    0.0055    0.0131   -0.0053   -0.0053    0.0048   -0.0007   -0.0135   -0.0001   -0.0038
    53 C4     3d1+      -0.0070   -0.0024    0.0066    0.0072    0.0066   -0.0125   -0.0036    0.0081    0.0060   -0.0040
    54 C4     3d2+      -0.0028    0.0020   -0.0102   -0.0029    0.0012    0.0103    0.0031    0.0036   -0.0034    0.0035
    55 C6     1s        -0.0089    0.0051   -0.0346   -0.0152   -0.0363   -0.0429   -0.0049    0.0081    0.0045   -0.0063
    56 C6     2s         0.0295    0.0303    0.1594    0.0628    0.2387    0.3841    0.0377   -0.1126   -0.0373    0.0424
    57 C6     3s        -0.0131    0.0265   -0.0604   -0.0312   -0.0691   -0.0683   -0.0131    0.0158    0.0115   -0.0183
    58 C6     4s        -0.0005    0.0074   -0.0101   -0.0058   -0.0148   -0.0142   -0.0036    0.0046    0.0029   -0.0047
    59 C6     2px       -0.0092   -0.0052   -0.0550   -0.0120   -0.0110    0.0128    0.0206   -0.1197    0.0194    0.0295
    60 C6     3px        0.0014   -0.0049    0.0089    0.0021    0.0078   -0.0016   -0.0006    0.0058    0.0013   -0.0071
    61 C6     4px       -0.0021   -0.0003   -0.0021    0.0024    0.0058    0.0098    0.0023   -0.0089    0.0014    0.0012
    62 C6     2py       -0.0081    0.0068   -0.0111    0.0002    0.0020    0.0182   -0.0006    0.0851   -0.0902    0.0688
    63 C6     3py       -0.0007    0.0061    0.0038    0.0025    0.0064    0.0139    0.0025   -0.0011    0.0074   -0.0058
    64 C6     4py       -0.0008    0.0002    0.0020    0.0001    0.0033    0.0034   -0.0006    0.0046   -0.0052    0.0035
    65 C6     2pz        0.0218    0.0122    0.0901    0.0155    0.0104   -0.0314   -0.0233    0.0577    0.0828   -0.1244
    66 C6     3pz       -0.0034    0.0145   -0.0188   -0.0066   -0.0216   -0.0049   -0.0002   -0.0030   -0.0125    0.0177
    67 C6     4pz        0.0030    0.0015   -0.0000   -0.0023   -0.0128   -0.0178   -0.0027    0.0070    0.0042   -0.0056
    68 C6     3d2-       0.0002    0.0005    0.0020   -0.0000   -0.0015   -0.0019   -0.0001    0.0013   -0.0020    0.0014
    69 C6     3d1-      -0.0013    0.0003   -0.0022   -0.0008   -0.0007    0.0009   -0.0003    0.0092   -0.0075    0.0055
    70 C6     3d0        0.0031    0.0000    0.0135    0.0025    0.0029   -0.0024   -0.0022    0.0039    0.0065   -0.0098
    71 C6     3d1+      -0.0038   -0.0003   -0.0185   -0.0039   -0.0056    0.0013    0.0030   -0.0133   -0.0057    0.0116
    72 C6     3d2+       0.0009    0.0001    0.0060    0.0012    0.0016   -0.0005   -0.0013    0.0084   -0.0008   -0.0020
    73 C19    1s         0.0009   -0.0098    0.0025   -0.0571    0.0422   -0.0199    0.0129   -0.0033   -0.0094    0.0013
    74 C19    2s         0.0062    0.0019    0.0087    0.3061   -0.2751    0.1513   -0.0765    0.0423    0.0945    0.0046
    75 C19    3s         0.0079   -0.0274    0.0143   -0.1120    0.0781   -0.0339    0.0339   -0.0050   -0.0180    0.0100
    76 C19    4s         0.0032   -0.0033    0.0047   -0.0237    0.0175   -0.0076    0.0094   -0.0018   -0.0054    0.0028
    77 C19    2px        0.0012    0.0244   -0.0018    0.0534    0.0023   -0.0258    0.0421   -0.0238   -0.0558    0.1281
    78 C19    3px       -0.0020   -0.0009   -0.0005    0.0044    0.0037   -0.0019   -0.0026    0.0062    0.0122   -0.0113
    79 C19    4px       -0.0011    0.0005   -0.0008   -0.0079    0.0117   -0.0080    0.0014   -0.0031   -0.0057    0.0028
    80 C19    2py        0.0066    0.0083    0.0070    0.0501   -0.0099   -0.0153    0.0655   -0.0401   -0.2139   -0.0668
    81 C19    3py        0.0077   -0.0036    0.0089   -0.0291    0.0178   -0.0017   -0.0119   -0.0014    0.0230    0.0130
    82 C19    4py        0.0001    0.0008    0.0001   -0.0129    0.0147   -0.0092    0.0130   -0.0028   -0.0086   -0.0020
    83 C19    2pz        0.0035   -0.0021    0.0018   -0.0010    0.0012    0.0013    0.0018   -0.0003    0.0052   -0.0016
    84 C19    3pz        0.0033   -0.0017    0.0023   -0.0015    0.0000    0.0018    0.0002   -0.0014   -0.0014   -0.0003
    85 C19    4pz       -0.0001    0.0003    0.0003   -0.0001   -0.0004    0.0001   -0.0005    0.0003   -0.0002    0.0001
    86 C19    3d2-       0.0006    0.0061   -0.0006    0.0105   -0.0018   -0.0025    0.0074   -0.0031   -0.0135   -0.0013
    87 C19    3d1-      -0.0001    0.0003   -0.0000   -0.0000    0.0001   -0.0000    0.0000    0.0001    0.0003   -0.0002
    88 C19    3d0       -0.0001   -0.0009    0.0001   -0.0090    0.0036    0.0006   -0.0035    0.0026    0.0085   -0.0077
    89 C19    3d1+      -0.0003    0.0003   -0.0000   -0.0001   -0.0002   -0.0000   -0.0003    0.0000   -0.0001    0.0003
    90 C19    3d2+       0.0004    0.0020   -0.0002   -0.0079    0.0049   -0.0009   -0.0037    0.0024    0.0148    0.0056
    91 N2     1s        -0.0047   -0.0406    0.0030   -0.0047   -0.0050    0.0020    0.0048    0.0007    0.0028   -0.0005
    92 N2     2s         0.0589    0.5898   -0.0461   -0.0282    0.2070   -0.1047   -0.1469    0.0076    0.1260   -0.0470
    93 N2     3s        -0.0069   -0.0758    0.0064   -0.0141   -0.0005    0.0002    0.0106    0.0013    0.0130   -0.0001
    94 N2     4s        -0.0019   -0.0247    0.0023   -0.0017   -0.0026    0.0014    0.0038   -0.0003    0.0005    0.0004
    95 N2     2px        0.0154   -0.0344    0.0112   -0.1463   -0.0484    0.1141   -0.3723    0.0055   -0.1032   -0.2744
    96 N2     3px        0.0092   -0.0150    0.0118    0.0166    0.0408   -0.0602    0.1096   -0.0093    0.0034    0.0600
    97 N2     4px        0.0033    0.0010    0.0018   -0.0066    0.0078   -0.0051   -0.0021   -0.0007   -0.0016    0.0063
    98 N2     2py        0.0012   -0.0085    0.0060   -0.1198   -0.0535    0.1121    0.2111    0.1344    0.2559   -0.1943
    99 N2     3py       -0.0107   -0.0502   -0.0008    0.0462    0.0588   -0.0556   -0.0343   -0.0414   -0.0553    0.0250
   100 N2     4py       -0.0011   -0.0142   -0.0001    0.0001    0.0053   -0.0053    0.0091   -0.0028   -0.0009    0.0045
   101 N2     2pz       -0.0126   -0.0022   -0.0013    0.0124    0.0090   -0.0028   -0.0014    0.0300    0.0392   -0.0337
   102 N2     3pz       -0.0126    0.0132   -0.0017    0.0078    0.0005   -0.0079   -0.0163    0.0013   -0.0069    0.0063
   103 N2     4pz       -0.0021    0.0011    0.0001    0.0012    0.0006   -0.0002   -0.0015    0.0012   -0.0014    0.0017
   104 N2     3d2-       0.0014    0.0074   -0.0001   -0.0018   -0.0081    0.0085    0.0074    0.0043    0.0066   -0.0024
   105 N2     3d1-      -0.0007   -0.0001   -0.0006    0.0014    0.0016   -0.0006   -0.0023    0.0010   -0.0007   -0.0005
   106 N2     3d0       -0.0018   -0.0165    0.0014    0.0016   -0.0039    0.0015    0.0004   -0.0006   -0.0022   -0.0000
   107 N2     3d1+      -0.0008    0.0000    0.0000    0.0010    0.0002   -0.0007    0.0030    0.0010    0.0017    0.0010
   108 N2     3d2+       0.0008    0.0052   -0.0001    0.0100    0.0065   -0.0106    0.0192   -0.0044   -0.0023    0.0137
   109 N5     1s        -0.0201   -0.0018   -0.0426   -0.0018    0.0019    0.0025    0.0012   -0.0037    0.0033   -0.0026
   110 N5     2s         0.1313   -0.0066    0.5754    0.0412   -0.0093   -0.2213   -0.0570    0.1705    0.0760   -0.1089
   111 N5     3s        -0.0504   -0.0040   -0.0801   -0.0063    0.0001   -0.0152   -0.0010   -0.0001    0.0144   -0.0137
   112 N5     4s        -0.0119   -0.0001   -0.0265   -0.0030   -0.0013   -0.0017   -0.0001   -0.0019    0.0016   -0.0014
   113 N5     2px        0.0251   -0.0227   -0.0030    0.0332    0.0551    0.0572    0.0135   -0.2003    0.1561   -0.1316
   114 N5     3px       -0.0012   -0.0246   -0.0315    0.0100   -0.0245   -0.0607   -0.0070    0.0505   -0.0254    0.0271
   115 N5     4px       -0.0041   -0.0034   -0.0092    0.0018    0.0001   -0.0037   -0.0007   -0.0069    0.0017   -0.0005
   116 N5     2py       -0.0323    0.0004   -0.0098    0.0153    0.0583    0.0530   -0.0314    0.3159   -0.1770    0.0866
   117 N5     3py        0.0105   -0.0071    0.0224   -0.0013   -0.0003   -0.0086    0.0013   -0.0793    0.0280   -0.0136
   118 N5     4py       -0.0022   -0.0025    0.0078    0.0025    0.0040   -0.0011   -0.0003    0.0052   -0.0010    0.0016
   119 N5     2pz        0.0014    0.0310    0.0146   -0.0583   -0.1570   -0.1452    0.0056   -0.1307    0.0092    0.0639
   120 N5     3pz       -0.0169    0.0436    0.0157    0.0069    0.0338    0.0862   -0.0053    0.0362    0.0008   -0.0193
   121 N5     4pz        0.0076    0.0073    0.0018   -0.0014   -0.0050    0.0043   -0.0018    0.0023   -0.0011   -0.0009
   122 N5     3d2-      -0.0033    0.0008   -0.0061   -0.0012    0.0008    0.0068    0.0011   -0.0070    0.0007   -0.0008
   123 N5     3d1-      -0.0046   -0.0001   -0.0137    0.0013    0.0053    0.0060   -0.0013    0.0137   -0.0050    0.0013
   124 N5     3d0       -0.0009    0.0010    0.0085    0.0000    0.0015    0.0057    0.0011   -0.0061    0.0015   -0.0017
   125 N5     3d1+       0.0019   -0.0009   -0.0082   -0.0020   -0.0062   -0.0075    0.0007   -0.0084    0.0021    0.0012
   126 N5     3d2+      -0.0028    0.0005   -0.0026    0.0010    0.0042    0.0055   -0.0006    0.0087   -0.0034    0.0007
   127 O7     1s         0.0007    0.0024   -0.0008   -0.0043    0.0023    0.0003   -0.0136    0.0001    0.0139    0.0216
   128 O7     2s        -0.0620   -0.3049    0.0145   -0.2073    0.0563    0.0276   -0.3516   -0.0063    0.2300    0.3513
   129 O7     3s        -0.0016   -0.0097   -0.0030   -0.0204    0.0102    0.0000   -0.0430   -0.0010    0.0391    0.0615
[...]
AIVX     1  Mu1.0001  In1.026 Se1.047               0.10109716      0.00017238     -0.00030083     -0.00000005
AIVX     1  Mu1.0001  In1.027 Se1.047               0.22176658      0.00027107     -0.00048036     -0.00000013
AIVX     1  Mu1.0001  In1.028 Se1.047               0.26438996      0.00063323     -0.00119579     -0.00000076
AIVX     1  Mu1.0001  In1.029 Se1.047               0.05977391     -0.00025156      0.00053262     -0.00000013
AIVX     1  Mu1.0001  In1.018 Se1.048               0.27827794      0.00039175     -0.00029584     -0.00000012
AIVX     1  Mu1.0001  In1.021 Se1.048               0.22179962      0.00014544     -0.00020303     -0.00000003
AIVX     1  Mu1.0001  In1.022 Se1.048               0.12041704      0.00006321     -0.00045247     -0.00000003
AIVX     1  Mu1.0001  In1.024 Se1.048               0.13915131     -0.00009453      0.00034752     -0.00000003
AIVX     1  Mu1.0001  In1.025 Se1.048               0.27206922     -0.00062189      0.00117120     -0.00000073
AIVX     1  Mu1.0001  In1.026 Se1.048               0.08707294     -0.00008939     -0.00003129      0.00000000
AIVX     1  Mu1.0001  In1.027 Se1.048               0.20774236     -0.00052678      0.00094583     -0.00000050
AIVX     1  Mu1.0001  In1.028 Se1.048               0.25036575     -0.00041997      0.00103982     -0.00000044
AIVX     1  Mu1.0001  In1.029 Se1.048               0.04574970      0.00004485      0.00034570      0.00000002
AIVX     1  Mu1.0001  In1.021 Se1.049               0.25256446      0.00080367     -0.00171568     -0.00000138
AIVX     1  Mu1.0001  In1.022 Se1.049               0.15118188     -0.00004060     -0.00019894      0.00000001
AIVX     1  Mu1.0001  In1.024 Se1.049               0.16991615      0.00001389     -0.00002980     -0.00000000
AIVX     1  Mu1.0001  In1.026 Se1.049               0.11783778      0.00006348      0.00023662      0.00000002
AIVX     1  Mu1.0001  In1.027 Se1.049               0.23850720      0.00109612     -0.00196245     -0.00000215
AIVX     1  Mu1.0001  In1.028 Se1.049               0.28113059      0.00129061     -0.00211122     -0.00000272
AIVX     1  Mu1.0001  In1.029 Se1.049               0.07651453      0.00004964     -0.00038985     -0.00000002
AIVX     1  Mu1.0001  In1.018 Se1.050               0.27031866     -0.00058711      0.00076156     -0.00000045
AIVX     1  Mu1.0001  In1.021 Se1.050               0.21384034     -0.00021417      0.00026401     -0.00000006
AIVX     1  Mu1.0001  In1.022 Se1.050               0.11245776      0.00004770      0.00000866      0.00000000
AIVX     1  Mu1.0001  In1.024 Se1.050               0.13119203      0.00008442     -0.00021206     -0.00000002
AIVX     1  Mu1.0001  In1.025 Se1.050               0.26410994     -0.00005632      0.00000019     -0.00000000
AIVX     1  Mu1.0001  In1.026 Se1.050               0.07911366      0.00023354     -0.00052817     -0.00000012
AIVX     1  Mu1.0001  In1.027 Se1.050               0.19978308     -0.00015236      0.00042674     -0.00000007
AIVX     1  Mu1.0001  In1.028 Se1.050               0.24240646      0.00049954     -0.00137688     -0.00000069
AIVX     1  Mu1.0001  In1.029 Se1.050               0.03779041     -0.00044961      0.00091954     -0.00000041
AIVX     1  Mu1.0001  In1.021 Se1.051               0.26068735      0.00010693     -0.00044514     -0.00000005
AIVX     1  Mu1.0001  In1.022 Se1.051               0.15930477      0.00003477     -0.00035234     -0.00000001
AIVX     1  Mu1.0001  In1.024 Se1.051               0.17803904     -0.00003951      0.00018135     -0.00000001
AIVX     1  Mu1.0001  In1.026 Se1.051               0.12596067      0.00042526     -0.00061210     -0.00000026
AIVX     1  Mu1.0001  In1.027 Se1.051               0.24663009      0.00198285     -0.00326911     -0.00000648
AIVX     1  Mu1.0001  In1.028 Se1.051               0.28925347     -0.00132169      0.00230798     -0.00000305
AIVX     1  Mu1.0001  In1.029 Se1.051               0.08463742     -0.00043189      0.00124507     -0.00000054
AIVX     1  Mu1.0001  In1.021 Se1.052               0.28542302      0.00024611     -0.00019158     -0.00000005
AIVX     1  Mu1.0001  In1.022 Se1.052               0.18404044      0.00036707     -0.00036170     -0.00000013
AIVX     1  Mu1.0001  In1.024 Se1.052               0.20277471     -0.00002357      0.00003057     -0.00000000
AIVX     1  Mu1.0001  In1.026 Se1.052               0.15069634      0.00001535     -0.00036889     -0.00000001
AIVX     1  Mu1.0001  In1.027 Se1.052               0.27136576      0.00078180     -0.00127203     -0.00000099
AIVX     1  Mu1.0001  In1.029 Se1.052               0.10937309     -0.00027690      0.00070106     -0.00000019
AIVX     1  Mu1.0001  In1.022 Se1.053               0.23778764     -0.00020493      0.00044220     -0.00000009
AIVX     1  Mu1.0001  In1.024 Se1.053               0.25652191     -0.00006494      0.00015387     -0.00000001
AIVX     1  Mu1.0001  In1.026 Se1.053               0.20444354      0.00011217     -0.00003109     -0.00000000
AIVX     1  Mu1.0001  In1.029 Se1.053               0.16312030      0.00006648     -0.00019877     -0.00000001
AIVX     1  Mu1.0001  In1.022 Se1.054               0.22567245     -0.00013789      0.00009735     -0.00000001
AIVX     1  Mu1.0001  In1.024 Se1.054               0.24440672     -0.00003801      0.00014380     -0.00000001
AIVX     1  Mu1.0001  In1.026 Se1.054               0.19232835     -0.00019013      0.00016348     -0.00000003
AIVX     1  Mu1.0001  In1.029 Se1.054               0.15100510      0.00075769     -0.00186476     -0.00000141
AIVX     1  Mu1.0001  In1.022 Se1.055               0.20118660      0.00006625      0.00004898      0.00000000
AIVX     1  Mu1.0001  In1.024 Se1.055               0.21992086      0.00001009     -0.00003677     -0.00000000
AIVX     1  Mu1.0001  In1.026 Se1.055               0.16784250      0.00000226     -0.00017270     -0.00000000
AIVX     1  Mu1.0001  In1.027 Se1.055               0.28851191     -0.00037380      0.00056700     -0.00000021
AIVX     1  Mu1.0001  In1.029 Se1.055               0.12651925     -0.00015400      0.00039324     -0.00000006
AIVX     1  Mu1.0001  In1.022 Se1.056               0.24844814      0.00012471     -0.00029276     -0.00000004
AIVX     1  Mu1.0001  In1.024 Se1.056               0.26718241     -0.00016437      0.00049731     -0.00000008
AIVX     1  Mu1.0001  In1.026 Se1.056               0.21510404     -0.00030641      0.00055475     -0.00000017
AIVX     1  Mu1.0001  In1.029 Se1.056               0.17378079      0.00001854      0.00014140      0.00000000
AIVX     1  Mu1.0001  In1.022 Se1.057               0.24414394     -0.00037803      0.00064275     -0.00000024
AIVX     1  Mu1.0001  In1.024 Se1.057               0.26287821      0.00026033     -0.00067040     -0.00000017
AIVX     1  Mu1.0001  In1.026 Se1.057               0.21079984      0.00024053     -0.00049569     -0.00000012
AIVX     1  Mu1.0001  In1.029 Se1.057               0.16947659     -0.00036421      0.00075734     -0.00000028
AIVX     1  Mu1.0001  In1.022 Se1.058               0.28108881      0.00029331     -0.00016188     -0.00000005
AIVX     1  Mu1.0001  In1.024 Se1.058               0.29982308     -0.00004069      0.00009029     -0.00000000
AIVX     1  Mu1.0001  In1.026 Se1.058               0.24774471     -0.00086370      0.00144485     -0.00000125
AIVX     1  Mu1.0001  In1.029 Se1.058               0.20642146      0.00026832     -0.00020786     -0.00000006
AIVX     1  Mu1.0001  In1.022 Se1.059               0.28535232      0.00007637      0.00028434      0.00000002
AIVX     1  Mu1.0001  In1.026 Se1.059               0.25200823      0.00000571     -0.00014393     -0.00000000
AIVX     1  Mu1.0001  In1.029 Se1.059               0.21068498      0.00002592     -0.00017748     -0.00000000
AIVX     1  Mu1.0001  In1.029 Se1.060               0.26267456     -0.00073592      0.00160277     -0.00000118
AIVX     1  Mu1.0001  In1.029 Se1.061               0.26908193     -0.00035623      0.00038393     -0.00000014
AIVX     1  Mu1.0001  In1.022 Se1.062               0.29432365     -0.00017042      0.00032780     -0.00000006
AIVX     1  Mu1.0001  In1.026 Se1.062               0.26097955      0.00029842     -0.00040986     -0.00000012
AIVX     1  Mu1.0001  In1.029 Se1.062               0.21965630     -0.00016246      0.00006562     -0.00000001
AIVX     1  Mu1.0001  In1.026 Se1.064               0.27759398     -0.00042724      0.00061609     -0.00000026
AIVX     1  Mu1.0001  In1.029 Se1.064               0.23627073      0.00056836     -0.00098992     -0.00000056
--
 
   (Skipping property calculation,
    use PROP keyword to activate)
--
 
  Total CASPT2 energies:
::    CASPT2 Root  1     Total energy:   -455.38093197
::    CASPT2 Root  2     Total energy:   -455.16661691
::    CASPT2 Root  3     Total energy:   -455.17343444
::    CASPT2 Root  4     Total energy:   -455.13506561
::    CASPT2 Root  5     Total energy:   -455.11593166
::    CASPT2 Root  6     Total energy:   -455.12267818
::    CASPT2 Root  7     Total energy:   -455.07545889
 
++ Multi-State CASPT2 section:
********************************************************************************
  MULTI-STATE CASPT2 SECTION
--------------------------------------------------------------------------------
 
  Output diagonal energies have been shifted. Add   -455.000000000000     
 
  Effective Hamiltonian matrix (Symmetric):
 
                1               2               3               4               5
   1        -0.38093197
   2         0.00024409     -0.16661691
   3         0.00049996     -0.00066187     -0.17343444
   4        -0.01622666      0.00065142      0.00048266     -0.13506561
   5         0.00659092     -0.00104200     -0.00279559     -0.00469646     -0.11593166
   6        -0.01687509      0.00003281     -0.00212678     -0.00399580      0.01468864
   7         0.00882655      0.00078277      0.00098451      0.00252726     -0.00524723
 
                6               7
   6        -0.12267818
   7         0.01006386     -0.07545889
 
       Total MS-CASPT2 energies:
::    MS-CASPT2 Root  1     Total energy:   -455.38362777
::    MS-CASPT2 Root  2     Total energy:   -455.17369653
::    MS-CASPT2 Root  3     Total energy:   -455.16657998
::    MS-CASPT2 Root  4     Total energy:   -455.13568491
::    MS-CASPT2 Root  5     Total energy:   -455.13449013
::    MS-CASPT2 Root  6     Total energy:   -455.10291819
::    MS-CASPT2 Root  7     Total energy:   -455.07312015
 
       Eigenvectors:
            0.99461017      0.00103866      0.00312222     -0.00330642     -0.10198590
           -0.00135157      0.10035466      0.99458371      0.00007323      0.02095418
           -0.00205229      0.99353998     -0.10090458     -0.00260374     -0.00729262
            0.06583114     -0.00468992     -0.01593656      0.74275466      0.63828292
           -0.02771796      0.04014967      0.01528665      0.51326241     -0.36272378
            0.06809422      0.03211195     -0.00976897     -0.42156353      0.65259516
           -0.03171313     -0.01187438     -0.00535487      0.08452031     -0.15573229
 
           -0.00882346      0.01580730
           -0.01439053      0.00917553
           -0.05069740      0.00788494
           -0.18819850      0.02969927
            0.77359619     -0.06267475
            0.60065165      0.17279441
           -0.04992681      0.98231140
 
--
 
  THE ORIGINAL CI ARRAYS ARE NOW MIXED AS LINEAR
  COMBINATIONS, GIVEN BY THE EIGENVECTORS.
  A NEW JOBIPH FILE NAMED 'JOBMIX' IS PREPARED.
********************************************************************************
 
++ Mixed CI coefficients:
  The CI coefficients for the MIXED state nr.   1
--------------------------------------------------------------------------------
 CI COEFFICIENTS LARGER THAN  0.50D-01
  Occupation of active orbitals, and spin coupling
  of open shells. (u,d: Spin up or down).
  SGUGA info is (Midvert:IsyUp:UpperWalk/LowerWalk)
        Conf  SGUGA info        Occupation    Coefficient         Weight
           1  ( 1:1:   1/   1)   22222200        0.970521       0.941911
           2  ( 1:1:   2/   1)   22222ud0       -0.056829       0.003229
           4  ( 1:1:   4/   1)   22222020       -0.094852       0.008997
          17  ( 1:1:  17/   1)   22220202       -0.090716       0.008229
          61  ( 2:1:   1/   3)   2u2222d0       -0.077312       0.005977
          84  ( 2:1:   4/   4)   u222220d       -0.104674       0.010957
         171  ( 3:1:   1/   8)   20222220       -0.086973       0.007564
         195  ( 3:1:   5/  10)   02222202       -0.075552       0.005708
 
  The CI coefficients for the MIXED state nr.   2
--------------------------------------------------------------------------------
 CI COEFFICIENTS LARGER THAN  0.50D-01
  Occupation of active orbitals, and spin coupling
  of open shells. (u,d: Spin up or down).
  SGUGA info is (Midvert:IsyUp:UpperWalk/LowerWalk)
        Conf  SGUGA info        Occupation    Coefficient         Weight
           7  ( 1:1:   7/   1)   22222u0d       -0.313548       0.098312
           8  ( 1:1:   8/   1)   2222u20d        0.073287       0.005371
          24  ( 2:1:   4/   1)   222u220d        0.890658       0.793272
          25  ( 2:1:   5/   1)   222u2dud       -0.065394       0.004276
          27  ( 2:1:   7/   1)   222u2udd       -0.117316       0.013763
          29  ( 2:1:   9/   1)   222u202d       -0.077816       0.006055
          34  ( 2:1:  14/   1)   222ud202        0.163975       0.026888
          41  ( 2:1:   1/   2)   22u222d0       -0.055336       0.003062
          44  ( 2:1:   4/   2)   22u2220d       -0.068485       0.004690
         135  ( 3:1:   5/   4)   u22d2202        0.117621       0.013835
         207  ( 4:1:   1/   2)   2u2u22dd        0.061975       0.003841
         208  ( 4:1:   2/   2)   2u2u2d2d        0.050653       0.002566
         261  ( 5:1:   1/   7)   202u222d        0.089280       0.007971
 
  The CI coefficients for the MIXED state nr.   3
--------------------------------------------------------------------------------
 CI COEFFICIENTS LARGER THAN  0.50D-01
  Occupation of active orbitals, and spin coupling
  of open shells. (u,d: Spin up or down).
  SGUGA info is (Midvert:IsyUp:UpperWalk/LowerWalk)
        Conf  SGUGA info        Occupation    Coefficient         Weight
          24  ( 2:1:   4/   1)   222u220d       -0.064440       0.004153
          41  ( 2:1:   1/   2)   22u222d0       -0.952365       0.907000
          42  ( 2:1:   2/   2)   22u22d20       -0.091540       0.008380
          44  ( 2:1:   4/   2)   22u2220d       -0.119045       0.014172
          58  ( 2:1:  18/   2)   22u202d2       -0.082537       0.006812
         111  ( 3:1:   1/   2)   22ud2220       -0.057516       0.003308
         151  ( 3:1:   1/   6)   2ud22220       -0.181539       0.032956
         225  ( 4:1:   1/   5)   u2u222dd        0.077821       0.006056
         302  ( 5:1:   2/  17)   02u222d2        0.076828       0.005903
 
  The CI coefficients for the MIXED state nr.   4
--------------------------------------------------------------------------------
 CI COEFFICIENTS LARGER THAN  0.50D-01
  Occupation of active orbitals, and spin coupling
  of open shells. (u,d: Spin up or down).
  SGUGA info is (Midvert:IsyUp:UpperWalk/LowerWalk)
        Conf  SGUGA info        Occupation    Coefficient         Weight
           2  ( 1:1:   2/   1)   22222ud0       -0.258763       0.066958
           4  ( 1:1:   4/   1)   22222020        0.051637       0.002666
           7  ( 1:1:   7/   1)   22222u0d       -0.053500       0.002862
           8  ( 1:1:   8/   1)   2222u20d        0.899203       0.808566
          10  ( 1:1:  10/   1)   2222udud       -0.053394       0.002851
          12  ( 1:1:  12/   1)   2222uudd       -0.093665       0.008773
          13  ( 1:1:  13/   1)   2222u02d       -0.079766       0.006363
          24  ( 2:1:   4/   1)   222u220d       -0.093477       0.008738
          62  ( 2:1:   2/   3)   2u222d20       -0.069475       0.004827
          68  ( 2:1:   8/   3)   2u22u2dd        0.064375       0.004144
          94  ( 2:1:  14/   4)   u222d202        0.232846       0.054217
         174  ( 3:1:   4/   8)   2022u22d        0.086651       0.007508
 
  The CI coefficients for the MIXED state nr.   5
--------------------------------------------------------------------------------
 CI COEFFICIENTS LARGER THAN  0.50D-01
  Occupation of active orbitals, and spin coupling
  of open shells. (u,d: Spin up or down).
  SGUGA info is (Midvert:IsyUp:UpperWalk/LowerWalk)
        Conf  SGUGA info        Occupation    Coefficient         Weight
           2  ( 1:1:   2/   1)   22222ud0        0.868701       0.754642
           4  ( 1:1:   4/   1)   22222020       -0.165414       0.027362
           7  ( 1:1:   7/   1)   22222u0d        0.149977       0.022493
           8  ( 1:1:   8/   1)   2222u20d        0.268764       0.072234
          19  ( 1:1:  19/   1)   22220ud2       -0.079391       0.006303
          62  ( 2:1:   2/   3)   2u222d20        0.231659       0.053666
          84  ( 2:1:   4/   4)   u222220d       -0.085736       0.007351
          85  ( 2:1:   5/   4)   u2222dud       -0.051529       0.002655
          87  ( 2:1:   7/   4)   u2222udd       -0.084852       0.007200
          94  ( 2:1:  14/   4)   u222d202        0.056110       0.003148
         171  ( 3:1:   1/   8)   20222220        0.099920       0.009984
         196  ( 3:1:   6/  10)   02222ud2       -0.070219       0.004931
 
  The CI coefficients for the MIXED state nr.   6
--------------------------------------------------------------------------------
 CI COEFFICIENTS LARGER THAN  0.50D-01
  Occupation of active orbitals, and spin coupling
  of open shells. (u,d: Spin up or down).
  SGUGA info is (Midvert:IsyUp:UpperWalk/LowerWalk)
        Conf  SGUGA info        Occupation    Coefficient         Weight
           2  ( 1:1:   2/   1)   22222ud0        0.164397       0.027026
           7  ( 1:1:   7/   1)   22222u0d       -0.883291       0.780202
          24  ( 2:1:   4/   1)   222u220d       -0.294030       0.086454
          44  ( 2:1:   4/   2)   22u2220d        0.068913       0.004749
          65  ( 2:1:   5/   3)   2u222dud       -0.148468       0.022043
          67  ( 2:1:   7/   3)   2u222udd       -0.204631       0.041874
         173  ( 3:1:   3/   8)   20222u2d       -0.127132       0.016163
 
  The CI coefficients for the MIXED state nr.   7
--------------------------------------------------------------------------------
 CI COEFFICIENTS LARGER THAN  0.50D-01
  Occupation of active orbitals, and spin coupling
  of open shells. (u,d: Spin up or down).
  SGUGA info is (Midvert:IsyUp:UpperWalk/LowerWalk)
        Conf  SGUGA info        Occupation    Coefficient         Weight
          24  ( 2:1:   4/   1)   222u220d        0.075483       0.005698
          41  ( 2:1:   1/   2)   22u222d0       -0.117646       0.013841
          44  ( 2:1:   4/   2)   22u2220d        0.885092       0.783388
          45  ( 2:1:   5/   2)   22u22dud        0.230332       0.053053
          47  ( 2:1:   7/   2)   22u22udd        0.317284       0.100669
         112  ( 3:1:   2/   2)   22ud22ud       -0.069378       0.004813
         201  ( 4:1:   1/   1)   22uu22dd       -0.070837       0.005018
         220  ( 4:1:   2/   4)   2uu22d2d       -0.080161       0.006426
         293  ( 5:1:   1/  15)   20u2222d        0.083159       0.006915
 
--
 
--- Stop Module: caspt2 at Tue Jun 10 18:24:27 2025 /rc=_RC_ALL_IS_WELL_ ---
*** files: xmldump
    saved to directory /home/pcaah4/diamide_project
--- Module caspt2 spent 6 minutes 57 seconds ---

.##################.
.# Happy landing! #.
.##################.

    Timing: Wall=888.44 User=780.25 System=95.80
******************************************************
*** WorkDir at /srv/COMMUNAL_SCRATCH/12399 cleaned ***
******************************************************
