   This run of MOLCAS is using the pymolcas driver

                             OPE
                             OPE          NMOL  CASOP  ENMOLC A   SO
                 OPE        NMOLC        AS  OP EN  MO LC     AS  OP
                OPENM       OL CA        SO  PE NM  OL CA     SOP EN
                OP EN      MO   LC       AS  OP ENMOL  CASO   PENMOL
                OP  EN     MO   LC       AS  OP EN     MO     LC ASO
               OP   E  NMOL  C  AS       OP  EN MO     LC     AS  OP
               OP  E   NMO   LC AS        OPEN  MO     LCASOP EN   M
               O  PEN   MO  LCA  SO
            OPE   NMO   L   CAS    OP
        OPENMOL  CASOP     ENMOL   CASOPE
     OPENMOLCA   SOPENMOLCASOPEN   MOLCASOPE
    OPENMOLCAS   OP           EN   MOL    CAS
    OPENMOLCAS       OP  ENM        O     LCA
    OPENMOLCAS    OPEN  MOLCASO     P  E  NMO
    OPENMOLCAS     OP               E  N  MOL
    OPENMOLCA   SO           PENM   O  L  CAS    OPEN    MO    LCAS
    OPENMOLCA   SOP           ENM   O  L  CAS   OP  EN  MOLC  AS   O
    OPENMOLCA   SOPE           NM      O  LCA   S      OP  EN MO
    OPENMOLC                AS         O  PEN   M      OL  CA  SOPE
    OPENMO        LCASOPE  NMOL        C  ASO   P      ENMOLC     AS
    OPE     NMO      LCA  SO     P     E   NM   OL  CA SO  PE N   MO
          OPENMOLCA            SOPE   NMO        LCAS  O    P  ENMO
     OPENMOLCASOPENMOLCASOPENMOLCASOPENMOLCA
        OPENMOLCASOPENMOLCASOPENMOLCASOPE
            OPENMOLCASOPENMOLCASOPENM
               OPENMOLCASOPENMOLCA        version: v23.06
                   OPENMOLCASO
                       OPE                tag:

 OpenMolcas is free software; you can redistribute it and/or modify it
 under the terms of the GNU Lesser General Public License version 2.1.
 OpenMolcas is distributed in the hope that it will be useful, but it
 is provided "as is" and without any express or implied warranties.
 For more details see the full text of the license in the file
 LICENSE or in <http://www.gnu.org/licenses/>.

                 Copyright (C) The OpenMolcas Authors
           For the author list and the recommended citation,
                   consult the file CONTRIBUTORS.md

           *************************************************
           * pymolcas version py2.24                       *
           *   build 4567b286dd94b1984b333a4ddf893180      *
           *   (after the EMIL interpreter by V. Veryazov) *
           *************************************************

configuration info
------------------
Host name: loginchem01.nottingham.ac.uk (Linux)
C Compiler ID: Intel
C flags: -std=gnu99 -gcc-sys -qopenmp
Fortran Compiler ID: Intel
Fortran flags: -fpp -i8 -heap-arrays -qopenmp
Definitions: _MOLCAS_;_I8_;_LINUX_
Parallel: OFF (GA=OFF)


   ----------------------------------------------------------------------------------------------------
  |
  |              Project: orca_geometry_optimisation_240_345_BP86_def2-SVP_def2J_scf_cas1_ras12i11_cas8
  |       Submitted from: /home/pcaah4/diamide_project
  |         Scratch area: /srv/COMMUNAL_SCRATCH/12408
  |      Save outputs to: /home/pcaah4/diamide_project
  |               Molcas: /software/chemistry/openmolcas/openmolcas-23.06-openmp
  |
  | Scratch area is empty
  |
  |       MOLCAS_DRIVER = /software/chemistry/openmolcas/openmolcas-23.06-openmp/sbin/pymolcas
  | MOLCAS_KEEP_WORKDIR = NO
  |       MOLCAS_NPROCS = 1
  |       MOLCAS_SOURCE = /software/chemistry/openmolcas/openmolcas-23.06-openmp
  |    MOLCAS_STRUCTURE = 0
  |
   ----------------------------------------------------------------------------------------------------

++ ---------   Input file   ---------

&SEWARD
TITLE
orca_geometry_optimisation_240_345_BP86_def2-SVP_def2J_scf_cas1_ras12i11
MULTIPOLES
2
SDIPOLE
ANGMOM
0 0 0
BASIS SET
C.ANO-S...4S3P1D.
C1           -1.284597    0.030989   -2.136905 /Angstrom
C3           -0.189662    0.519360    0.036675 /Angstrom
C4            0.751989   -0.399986    0.838307 /Angstrom
C6            1.107748   -2.698996    1.669525 /Angstrom
C19          -2.533005   -0.544797   -2.796803 /Angstrom
END OF BASIS
BASIS SET
N.ANO-S...4S3P1D.
N2           -1.220467   -0.134060   -0.756656 /Angstrom
N5            0.323486   -1.696867    0.973197 /Angstrom
END OF BASIS
BASIS SET
O.ANO-S...4S3P1D.
O7           -0.394110    0.576452   -2.777831 /Angstrom
O8            1.751425    0.059430    1.385157 /Angstrom
END OF BASIS
BASIS SET
H.ANO-S...2S1P.
H9           -2.219317   -1.260313   -3.582366 /Angstrom
H10          -3.075737    0.275112   -3.308455 /Angstrom
H11          -3.224831   -1.056534   -2.098779 /Angstrom
H12          -2.089257   -0.395294   -0.284858 /Angstrom
H13           0.440340    1.098486   -0.668392 /Angstrom
H14          -0.629437    1.242844    0.757013 /Angstrom
H15          -0.422093   -1.993959    0.339085 /Angstrom
H16           1.579169   -3.424846    0.971370 /Angstrom
H17           1.909628   -2.166011    2.215620 /Angstrom
H18           0.486687   -3.262551    2.397166 /Angstrom
END OF BASIS
END OF INPUT

&RASSCF
TITLE
orca_geometry_optimisation_240_345_BP86_def2-SVP_def2J_scf_cas1_ras12i11
LUMORB
SPIN
1
SYMMETRY
1
NACTEL
12  0  0
INACTIVE
29
DELETED  ! delete Rydberg orbitals from an initial CAS(12,11) if done
3
FROZEN
0
RAS2
8
ITERATIONS
64 25
CIROOT
7 7
1 2 3 4 5 6 7
1 1 1 1 1 1 1
LEVSHFT
0.3
CIMX
20
FILEorb = /home/pcaah4/diamide_project/cas/ras12i11/ras_orb/orca_geometry_optimisation_240_345_BP86_def2-SVP_def2J_scf_cas1_ras12i11.RasOrb
ALTEr
1
 1 37 38
END OF INPUT

&RASSI
NROF JOBIPH
    1 7
    1 2 3 5 4 6 7
TOFILE
TRDI
TDMN
1.0D-6
END OF INPUT

&CASPT2
TITLE
orca_geometry_optimisation_240_345_BP86_def2-SVP_def2J_scf_cas1_ras12i11
MULTISTATE
7 1 2 3 4 5 6 7
SHIFT
0.35
MAXITER
50
END OF INPUT

-- ----------------------------------

--- Start Module: seward at Tue Jun 10 18:26:22 2025 ---
 
()()()()()()()()()()()()()()()()()()()()()()()()()()()()()()()()()()()()()()()()()()()()()()()()()()

                                              &SEWARD

                                   only a single process is used
                       available to each process: 2.0 GB of memory, 1 thread
                                            pid: 3122510
()()()()()()()()()()()()()()()()()()()()()()()()()()()()()()()()()()()()()()()()()()()()()()()()()()
 
               SEWARD will generate:
                  Multipole Moment integrals up to order  2
                  Kinetic Energy integrals
                  Nuclear Attraction integrals (point charge)
                  One-Electron Hamiltonian integrals
                  Velocity integrals
                  Orbital angular momentum around ( 0.0000  0.0000  0.0000 )
                  Velocity quadrupole around (-0.3475 -0.9242 -0.7439 )
                  Two-Electron Repulsion integrals
 
 Title:
            orca_geometry_optimisation_240_345_BP86_def2-SVP_def2J_scf_cas1_ras12i11    
 
 
                   Integrals are discarded if absolute value <: 0.10E-13
                   Integral cutoff threshold is set to       <: 0.10E-15
 
++    Symmetry information:
      ---------------------
 
                    Character Table for C1 
 
                             E  
                    a        1  x, y, xy, Rz, z, xz, Ry, yz, Rx, I
--
 
 
++    Basis set information:
      ----------------------
 
 
      Basis set label: C.ANO-S...4S3P1D......
 
      Electronic valence basis set:
      ------------------
      Associated Effective Charge   6.000000 au
      Associated Actual Charge      6.000000 au
      Nuclear Model: Point charge
 
      Shell  nPrim  nBasis  Cartesian Spherical Contaminant
         s      10       4        X                  
         p       6       3        X                  
         d       3       1                 X         
 
 
      Basis set label: N.ANO-S...4S3P1D......
 
      Electronic valence basis set:
      ------------------
      Associated Effective Charge   7.000000 au
      Associated Actual Charge      7.000000 au
      Nuclear Model: Point charge
 
      Shell  nPrim  nBasis  Cartesian Spherical Contaminant
         s      10       4        X                  
         p       6       3        X                  
         d       3       1                 X         
 
 
      Basis set label: O.ANO-S...4S3P1D......
 
      Electronic valence basis set:
      ------------------
      Associated Effective Charge   8.000000 au
      Associated Actual Charge      8.000000 au
      Nuclear Model: Point charge
 
      Shell  nPrim  nBasis  Cartesian Spherical Contaminant
         s      10       4        X                  
         p       6       3        X                  
         d       3       1                 X         
 
 
      Basis set label: H.ANO-S...2S1P......
 
      Electronic valence basis set:
      ------------------
      Associated Effective Charge   1.000000 au
      Associated Actual Charge      1.000000 au
      Nuclear Model: Point charge
 
      Shell  nPrim  nBasis  Cartesian Spherical Contaminant
         s       7       2        X                  
         p       3       1        X                  
--
 
 
++    Molecular structure info:
      -------------------------
 
                    ************************************************ 
                    **** Cartesian Coordinates / Bohr, Angstrom **** 
                    ************************************************ 
 
     Center  Label                x              y              z                     x              y              z
        1      C1              -2.427537       0.058561      -4.038165             -1.284597       0.030989      -2.136905
        2      C3              -0.358409       0.981448       0.069306             -0.189662       0.519360       0.036675
        3      C4               1.421053      -0.755864       1.584171              0.751989      -0.399986       0.838307
        4      C6               2.093340      -5.100363       3.154945              1.107748      -2.698996       1.669525
        5      C19             -4.786686      -1.029517      -5.285192             -2.533005      -0.544797      -2.796803
        6      N2              -2.306348      -0.253337      -1.429873             -1.220467      -0.134060      -0.756656
        7      N5               0.611300      -3.206614       1.839076              0.323486      -1.696867       0.973197
        8      O7              -0.744760       1.089336      -5.249340             -0.394110       0.576452      -2.777831
        9      O8               3.309714       0.112306       2.617567              1.751425       0.059430       1.385157
       10      H9              -4.193901      -2.381646      -6.769691             -2.219317      -1.260313      -3.582366
       11      H10             -5.812301       0.519886      -6.252074             -3.075737       0.275112      -3.308455
       12      H11             -6.094047      -1.996560      -3.966118             -3.224831      -1.056534      -2.098779
       13      H12             -3.948124      -0.746997      -0.538304             -2.089257      -0.395294      -0.284858
       14      H13              0.832122       2.075838      -1.263078              0.440340       1.098486      -0.668392
       15      H14             -1.189464       2.348635       1.430547             -0.629437       1.242844       0.757013
       16      H15             -0.797640      -3.768036       0.640778             -0.422093      -1.993959       0.339085
       17      H16              2.984197      -6.472021       1.835623              1.579169      -3.424846       0.971370
       18      H17              3.608674      -4.093168       4.186915              1.909628      -2.166011       2.215620
       19      H18              0.919705      -6.165328       4.529987              0.486687      -3.262551       2.397166
 
                    ************************************************* 
                    **** InterNuclear Distances / Bohr, Angstrom **** 
                    ************************************************* 
 
     Atom centers         Bohr        Angstrom
   13 H12       6 N2      1.932362        1.022562
   16 H15       7 N5      1.932932        1.022863
   18 H17       4 C6      2.091803        1.106935
   10 H9        5 C19     2.093653        1.107914
   12 H11       5 C19     2.093877        1.108032
   11 H10       5 C19     2.094612        1.108421
   14 H13       2 C3      2.095304        1.108787
   19 H18       4 C6      2.098168        1.110303
   15 H14       2 C3      2.100673        1.111629
   17 H16       4 C6      2.101352        1.111988
    8 O7        1 C1      2.315422        1.225269
    9 O8        3 C4      2.321350        1.228406
    7 N5        3 C4      2.593618        1.372483
    6 N2        1 C1      2.629669        1.391561
    7 N5        4 C6      2.741212        1.450587
    6 N2        2 C3      2.750763        1.455641
    5 C19       1 C1      2.881766        1.524965
    3 C4        2 C3      2.911968        1.540947
   11 H10      10 H9      3.362445        1.779329
   15 H14      14 H13     3.378882        1.788027
   18 H17      17 H16     3.402571        1.800563
   19 H18      17 H16     3.408194        1.803538
   12 H11      10 H9      3.408646        1.803778
   12 H11      11 H10     3.411375        1.805222
   19 H18      18 H17     3.412052        1.805580
   16 H15       3 C4      3.858209        2.041676
   13 H12       1 C1      3.900018        2.063801
   18 H17       7 N5      3.909294        2.068709
   14 H13       6 N2      3.911888        2.070082
   19 H18       7 N5      4.011247        2.122661
   15 H14       6 N2      4.024884        2.129877
   13 H12       2 C3      4.030231        2.132706
   17 H16       7 N5      4.036525        2.136037
   16 H15       4 C6      4.056341        2.146523
   14 H13       3 C4      4.058596        2.147716
   15 H14       3 C4      4.059102        2.147984
   10 H9        1 C1      4.066434        2.151864
   11 H10       1 C1      4.070730        2.154137
   12 H11       1 C1      4.203809        2.224560
   13 H12      12 H11     4.232766        2.239883
    8 O7        6 N2      4.339316        2.296267
    9 O8        7 N5      4.347726        2.300717
   16 H15       6 N2      4.349357        2.301581
   14 H13       8 O7      4.398866        2.327780
   18 H17       9 O8      4.498693        2.380606
   16 H15      13 H12     4.521333        2.392587
    9 O8        2 C3      4.550183        2.407853
    8 O7        5 C19     4.563769        2.415043
   15 H14      13 H12     4.590154        2.429005
    7 N5        2 C3      4.648902        2.460093
    6 N2        5 C19     4.649518        2.460419
    4 C6        3 C4      4.668402        2.470412
    2 C3        1 C1      4.690877        2.482305
   14 H13       1 C1      4.732430        2.504294
   18 H17       3 C4      4.764195        2.521104
   17 H16      16 H15     4.800154        2.540132
   16 H15       2 C3      4.803864        2.542095
    6 N2        3 C4      4.819804        2.550531
   13 H12       5 C19     4.828659        2.555216
   12 H11       6 N2      4.880372        2.582582
   19 H18      16 H15     4.880802        2.582809
   14 H13       9 O8      5.005329        2.648706
   10 H9        8 O7      5.124038        2.711524
   15 H14       9 O8      5.162633        2.731948
   11 H10       8 O7      5.197087        2.750180
    7 N5        6 N2      5.283989        2.796167
    8 O7        2 C3      5.333751        2.822499
    9 O8        4 C6      5.379616        2.846770
   14 H13      13 H12     5.598611        2.962657
   18 H17      16 H15     5.665369        2.997984
--
 
 
            Nuclear Potential Energy            450.29311171 au
 
 
      Basis set specifications :
      Symmetry species         a  
      Basis functions          212
 
 
      Input file to MOLDEN was generated!
 
--- Stop Module: seward at Tue Jun 10 18:28:11 2025 /rc=_RC_ALL_IS_WELL_ ---
*** files: orca_geometry_optimisation_240_345_BP86_def2-SVP_def2J_scf_cas1_ras12i11_cas8.GssOrb
           orca_geometry_optimisation_240_345_BP86_def2-SVP_def2J_scf_cas1_ras12i11_cas8.guessorb.molden xmldump
    saved to directory /home/pcaah4/diamide_project
--- Module seward spent 1 minute 48 seconds ---

*** symbolic link created: INPORB -> orca_geometry_optimisation_240_345_BP86_def2-SVP_def2J_scf_cas1_ras12i11_cas8.GssOrb
--- Start Module: rasscf at Tue Jun 10 18:28:11 2025 ---
 
()()()()()()()()()()()()()()()()()()()()()()()()()()()()()()()()()()()()()()()()()()()()()()()()()()

                                              &RASSCF

                                   only a single process is used
                       available to each process: 2.0 GB of memory, 1 thread
                                            pid: 3122542
()()()()()()()()()()()()()()()()()()()()()()()()()()()()()()()()()()()()()()()()()()()()()()()()()()
 
 
      Header of the ONEINT file:
      --------------------------
      orca_geometry_optimisation_240_345_BP86_def2-SVP_def2J_scf_cas1_ras12i11
      Integrals generated by Gateway/Seward, Tue Jun 10 18:26:22 2025
 
 
      OrdInt status: non-squared
 
 
      Cartesian coordinates in Angstrom:
      -----------------------------------------------------
      No.  Label        X            Y            Z        
      -----------------------------------------------------
       1   C1        -1.28459700   0.03098900  -2.13690500
       2   C3        -0.18966200   0.51936000   0.03667500
       3   C4         0.75198900  -0.39998600   0.83830700
       4   C6         1.10774800  -2.69899600   1.66952500
       5   C19       -2.53300500  -0.54479700  -2.79680300
       6   N2        -1.22046700  -0.13406000  -0.75665600
       7   N5         0.32348600  -1.69686700   0.97319700
       8   O7        -0.39411000   0.57645200  -2.77783100
       9   O8         1.75142500   0.05943000   1.38515700
      10   H9        -2.21931700  -1.26031300  -3.58236600
      11   H10       -3.07573700   0.27511200  -3.30845500
      12   H11       -3.22483100  -1.05653400  -2.09877900
      13   H12       -2.08925700  -0.39529400  -0.28485800
      14   H13        0.44034000   1.09848600  -0.66839200
      15   H14       -0.62943700   1.24284400   0.75701300
      16   H15       -0.42209300  -1.99395900   0.33908500
      17   H16        1.57916900  -3.42484600   0.97137000
      18   H17        1.90962800  -2.16601100   2.21562000
      19   H18        0.48668700  -3.26255100   2.39716600
      -----------------------------------------------------
      Nuclear repulsion energy =  450.29311171
 
++    Wave function specifications:
      -----------------------------
 
      Number of closed shell electrons          58
      Number of electrons in active shells      12
      Max number of holes in RAS1 space          0
      Max nr of electrons in RAS3 space          0
      Number of inactive orbitals               29
      Number of active orbitals                  8
      Number of secondary orbitals             172
      Spin quantum number                      0.0
      State symmetry                             1
--
 
++    Orbital specifications:
      -----------------------
 
      Symmetry species                           1
                                                 a
      Frozen orbitals                            0
      Inactive orbitals                         29
      Active orbitals                            8
      RAS1 orbitals                              0
      RAS2 orbitals                              8
      RAS3 orbitals                              0
      Secondary orbitals                       172
      Deleted orbitals                           3
      Number of basis functions                212
--
 
++    CI expansion specifications:
      ----------------------------
 
      Number of CSFs                           336
      Number of determinants                   406
      Number of root(s) required                 7
      Root chosen for geometry opt.              7
      CI roots used                              1     2     3     4     5     6     7
      weights                                0.143 0.143 0.143 0.143 0.143 0.143 0.143
      highest root included in the CI            7
      max. size of the explicit Hamiltonian    200
--
 
++    Optimization specifications:
      ----------------------------
 
      RASSCF algorithm: Conventional
      Maximum number of macro iterations        64
      Maximum number of SX iterations           25
      Threshold for RASSCF energy            0.100E-07
      Threshold for max MO rotation          0.100E+00
      Threshold for max BLB element          0.100E-03
      Level shift parameter                  0.300E+00
      Make Quasi-Newton update
--
 
      The MO-coefficients are taken from the file:
      /home/pcaah4/diamide_project/cas/ras12i11/ras_orb/orca_geometry_optimisation_240_345_BP86_def2-SVP_def2J_scf_cas1_ras12i11.RasOrb                                                                                                                               
      Title: RASSCF average (pseudo-natural) orbitals                                      
 
      Total molecular charge    0.00
 
      Molecular orbitals exchanged:
        In symmetry  1 :  37  38
 
 
      ************************************************************************************************************************
      *                                                                                                                      *
      *                                            Wave function control section                                             *
      *                                                                                                                      *
      ************************************************************************************************************************
 
 
                                         RASSCF iterations: Energy and convergence statistics
                                         ----------------------------------------------------
 
      Iter CI   SX   CI       RASSCF       Energy    max ROT     max BLB   max BLB  Level Ln srch  Step   QN   Walltime
          iter iter root      energy       change     param      element    value   shift minimum  type update hh:mm:ss
 Nr of preliminary CI iterations:   9
        1   1   25    0  -453.68215766    0.00E+00   0.50E-01   25  73 1 -0.11E-01*  0.12   0.00    SX    NO    0:00:13
        2   3   14    0  -453.69308520   -0.11E-01*  0.30E-01   33  39 1 -0.67E-02*  0.09   0.00    SX    NO    0:00:07
        3   3   11    0  -453.69447650   -0.14E-02* -0.16E-01   25  82 1 -0.29E-02*  0.10   0.00    SX    NO    0:00:07
        4   6   12    0  -453.69493225   -0.46E-03*  0.87E-02   36  38 1 -0.16E-02*  0.10   0.00    SX    NO    0:00:07
        5   5   11    0  -453.69505020   -0.12E-03* -0.98E-02   25  82 1 -0.13E-02*  0.10   1.06    QN   YES    0:00:07
        6   8   11    0  -453.69513252   -0.82E-04* -0.60E-02   36  40 1 -0.60E-03*  0.10   1.29    QN   YES    0:00:07
        7   8   10    0  -453.69515995   -0.27E-04* -0.59E-02   36  40 1 -0.49E-03*  0.09   1.28    QN   YES    0:00:07
        8  10   11    0  -453.69520681   -0.47E-04*  0.30E-01   37  39 1  0.86E-03*  0.09   1.14    QN   YES    0:00:07
        9  11   14    0  -453.69445488    0.75E-03*  0.16E-01   36  40 1  0.45E-02*  0.09   0.16    LS   YES    0:00:07
       10   7   12    0  -453.69516324   -0.71E-03*  0.84E-02   19  40 1  0.24E-02*  0.09   1.56    LS   YES    0:00:07
       11   8   12    0  -453.69524361   -0.80E-04* -0.22E-02   19  40 1  0.30E-02*  0.09   0.90    QN   YES    0:00:07
       12   8   12    0  -453.69531201   -0.68E-04*  0.20E-02   30  40 1 -0.56E-03*  0.09   1.07    QN   YES    0:00:07
       13   6   11    0  -453.69532808   -0.16E-04*  0.25E-02   19  40 1  0.32E-03*  0.09   1.40    QN   YES    0:00:07
       14   7   10    0  -453.69533480   -0.67E-05* -0.44E-03   19  40 1 -0.41E-03*  0.09   0.85    QN   YES    0:00:07
       15   5   10    0  -453.69533665   -0.18E-05* -0.40E-03   24  72 1 -0.11E-03*  0.09   2.01    QN   YES    0:00:07
       16   6    9    0  -453.69533757   -0.92E-06* -0.18E-03   21  78 1 -0.68E-04   0.09   1.02    QN   YES    0:00:07
       17   5    8    0  -453.69533772   -0.14E-06* -0.11E-03   21  78 1 -0.31E-04   0.09   1.61    LS   YES    0:00:07
       18   3    8    0  -453.69533774   -0.24E-07*  0.49E-04   30 150 1  0.21E-04   0.09   0.97    QN   YES    0:00:07
       19   1    7    0  -453.69533776   -0.20E-07* -0.29E-04   33  39 1  0.11E-04   0.09   1.11    QN   YES    0:00:07
       20   1    6    0  -453.69533776   -0.29E-08   0.13E-04   19  40 1 -0.28E-05   0.09   1.20    QN   YES    0:00:07
      Convergence after 20 iterations
       21   1    6    0  -453.69533776   -0.47E-09   0.13E-04   32  40 1  0.88E-06   0.09   1.20    QN   YES    0:00:07
 
      ************************************************************************************************************************
                                                      Wave function printout:
                       occupation of active orbitals, and spin coupling of open shells (u,d: Spin up or down)
      ************************************************************************************************************************
 
      Note: transformation to natural orbitals
      has been made, which may change the order of the CSFs.
 
      printout of CI-coefficients larger than  0.05 for root  1
      energy=    -453.961452
      conf/sym  11111111     Coeff  Weight
             1  22222200   0.93701 0.87798
             2  22222ud0  -0.11021 0.01215
             4  22222020  -0.07893 0.00623
             7  22222u0d  -0.05980 0.00358
             8  2222u20d   0.06544 0.00428
            24  222u220d   0.07357 0.00541
            41  22u222d0   0.05568 0.00310
            42  22u22d20   0.06136 0.00376
            44  22u2220d  -0.11551 0.01334
            53  22u22d02  -0.06023 0.00363
            61  2u2222d0   0.09421 0.00888
            64  2u22220d  -0.07943 0.00631
            81  u22222d0   0.08782 0.00771
            84  u222220d   0.10011 0.01002
           145  22022202  -0.08028 0.00645
           165  u2d22202   0.05506 0.00303
           181  ud222220  -0.05108 0.00261
 
      printout of CI-coefficients larger than  0.05 for root  2
      energy=    -453.763088
      conf/sym  11111111     Coeff  Weight
             8  2222u20d   0.73316 0.53752
            12  2222uudd  -0.06829 0.00466
            13  2222u02d  -0.06150 0.00378
            16  2222ud02   0.05529 0.00306
            24  222u220d  -0.60496 0.36597
            27  222u2udd   0.06108 0.00373
            29  222u202d   0.05160 0.00266
            54  22u2d202   0.10772 0.01160
            68  2u22u2dd  -0.06461 0.00417
            74  2u22d202   0.05238 0.00274
            88  u222u2dd  -0.05809 0.00337
            94  u222d202  -0.07097 0.00504
           115  22ud2202  -0.09294 0.00864
           135  u22d2202   0.05918 0.00350
           207  2u2u22dd   0.05359 0.00287
 
      printout of CI-coefficients larger than  0.05 for root  3
      energy=    -453.758166
      conf/sym  11111111     Coeff  Weight
             2  22222ud0   0.07055 0.00498
             3  2222u2d0   0.61385 0.37681
             5  2222ud20   0.08252 0.00681
            21  222u22d0   0.70729 0.50026
            22  222u2d20   0.09615 0.00924
            26  222ud2ud   0.05150 0.00265
            41  22u222d0   0.11921 0.01421
            48  22u2u2dd  -0.06696 0.00448
            63  2u22d220  -0.05382 0.00290
            88  u222u2dd   0.05886 0.00346
           111  22ud2220  -0.05929 0.00352
           121  2u2d2220  -0.06211 0.00386
           131  u22d2220  -0.05240 0.00275
           147  2202u2d2  -0.05477 0.00300
           201  22uu22dd  -0.08003 0.00640
           213  u22u22dd   0.06641 0.00441
           250  220u22d2  -0.06287 0.00395
 
      printout of CI-coefficients larger than  0.05 for root  4
      energy=    -453.627095
      conf/sym  11111111     Coeff  Weight
             1  22222200  -0.06404 0.00410
             2  22222ud0  -0.77555 0.60148
             4  22222020   0.05171 0.00267
             7  22222u0d   0.16638 0.02768
             8  2222u20d  -0.06066 0.00368
            24  222u220d  -0.06167 0.00380
            41  22u222d0   0.39593 0.15676
            44  22u2220d   0.24004 0.05762
            47  22u22udd   0.07383 0.00545
            61  2u2222d0  -0.10835 0.01174
            62  2u222d20   0.16084 0.02587
            81  u22222d0  -0.06918 0.00479
            82  u2222d20   0.12570 0.01580
            87  u2222udd  -0.09866 0.00973
           146  22022ud2   0.08454 0.00715
           151  2ud22220  -0.08490 0.00721
           161  u2d22220  -0.06626 0.00439
           165  u2d22202  -0.05663 0.00321
           219  2uu222dd  -0.06666 0.00444
 
      printout of CI-coefficients larger than  0.05 for root  5
      energy=    -453.617042
      conf/sym  11111111     Coeff  Weight
             1  22222200   0.16519 0.02729
             2  22222ud0   0.25828 0.06671
             7  22222u0d   0.40782 0.16632
             8  2222u20d  -0.25355 0.06429
            24  222u220d  -0.27631 0.07635
            34  222ud202  -0.05218 0.00272
            41  22u222d0  -0.07312 0.00535
            44  22u2220d   0.64301 0.41346
            47  22u22udd  -0.14216 0.02021
            49  22u2202d  -0.07681 0.00590
            54  22u2d202   0.06738 0.00454
            61  2u2222d0   0.07923 0.00628
            64  2u22220d  -0.10973 0.01204
            73  2u222d02   0.06172 0.00381
            81  u22222d0   0.06024 0.00363
            84  u222220d   0.11660 0.01360
            93  u2222d02  -0.07787 0.00606
           115  22ud2202   0.06309 0.00398
           155  2ud22202   0.10871 0.01182
           165  u2d22202  -0.13864 0.01922
           219  2uu222dd  -0.06042 0.00365
 
      printout of CI-coefficients larger than  0.05 for root  6
      energy=    -453.580184
      conf/sym  11111111     Coeff  Weight
             3  2222u2d0   0.26573 0.07061
             7  22222u0d   0.05178 0.00268
            11  222202ud  -0.51130 0.26143
            14  22220u2d  -0.05461 0.00298
            21  222u22d0  -0.22229 0.04941
            24  222u220d   0.07417 0.00550
            26  222ud2ud  -0.12187 0.01485
            28  222uu2dd  -0.53808 0.28952
            31  222uud2d  -0.06381 0.00407
            44  22u2220d   0.07709 0.00594
            58  22u202d2  -0.06212 0.00386
           102  222022ud   0.48027 0.23066
           103  22202u2d   0.05350 0.00286
           117  22udu2d2  -0.07306 0.00534
           238  22u022d2   0.06104 0.00373
 
      printout of CI-coefficients larger than  0.05 for root  7
      energy=    -453.560338
      conf/sym  11111111     Coeff  Weight
             3  2222u2d0   0.12575 0.01581
            10  2222udud   0.15976 0.02552
            11  222202ud   0.42287 0.17882
            14  22220u2d   0.05267 0.00277
            21  222u22d0  -0.10311 0.01063
            25  222u2dud  -0.09698 0.00941
            26  222ud2ud   0.09922 0.00984
            28  222uu2dd  -0.69112 0.47764
            31  222uud2d  -0.09798 0.00960
            48  22u2u2dd  -0.07237 0.00524
            58  22u202d2   0.05990 0.00359
           102  222022ud  -0.41886 0.17544
           103  22202u2d  -0.05640 0.00318
           114  22udu22d   0.05281 0.00279
           117  22udu2d2  -0.09133 0.00834
           124  2u2du22d   0.05547 0.00308
           201  22uu22dd   0.07879 0.00621
           205  22uud2d2   0.06580 0.00433
           238  22u022d2  -0.05849 0.00342
 
      Natural orbitals and occupation numbers for root  1
      sym 1:   1.996318   1.997457   1.945442   1.999770   1.999784   1.951173   0.052562   0.057494
 
      Natural orbitals and occupation numbers for root  2
      sym 1:   1.999855   1.999963   1.952215   1.999721   1.004211   1.996132   0.051875   0.996027
 
      Natural orbitals and occupation numbers for root  3
      sym 1:   1.996816   1.999965   1.945947   1.004084   1.999746   1.999508   0.997037   0.056897
 
      Natural orbitals and occupation numbers for root  4
      sym 1:   1.968471   1.962655   1.872367   1.999253   1.999561   1.105600   0.932191   0.159901
 
      Natural orbitals and occupation numbers for root  5
      sym 1:   1.955824   1.963752   1.113367   1.995781   1.997485   1.877057   0.162766   0.933968
 
      Natural orbitals and occupation numbers for root  6
      sym 1:   1.998067   1.998978   1.988948   1.346201   1.078637   1.992962   0.930067   0.666140
 
      Natural orbitals and occupation numbers for root  7
      sym 1:   1.999165   1.999408   1.997360   1.085432   0.988876   1.970728   1.017550   0.941481
 
      ************************************************************************************************************************
      *                                                                                                                      *
      *                                                    Final results                                                     *
      *                                                                                                                      *
      ************************************************************************************************************************
 
 
++    Wave function specifications:
      -----------------------------
 
      Number of closed shell electrons          58
      Number of electrons in active shells      12
      Max number of holes in RAS1 space          0
      Max nr of electrons in RAS3 space          0
      Number of inactive orbitals               29
      Number of active orbitals                  8
      Number of secondary orbitals             172
      Spin quantum number                      0.0
      State symmetry                             1
--
 
++    Orbital specifications:
      -----------------------
 
      Symmetry species                           1
                                                 a
      Frozen orbitals                            0
      Inactive orbitals                         29
      Active orbitals                            8
      RAS1 orbitals                              0
      RAS2 orbitals                              8
      RAS3 orbitals                              0
      Secondary orbitals                       172
      Deleted orbitals                           3
      Number of basis functions                212
--
 
++    CI expansion specifications:
      ----------------------------
 
      Number of CSFs                           336
      Number of determinants                   406
      Number of root(s) required                 7
      CI roots used                              1     2     3     4     5     6     7
      weights                                0.143 0.143 0.143 0.143 0.143 0.143 0.143
      highest root included in the CI            7
      Root passed to geometry opt.               7
--
 
++    Final optimization conditions:
      ------------------------------
 
      Average CI energy                            -453.69533776
      RASSCF energy for state  7                   -453.56033820
      Super-CI energy                                -0.00000000
      RASSCF energy change                            0.00000000
      Max change in MO coefficients              -0.121E-04
      Max non-diagonal density matrix element     0.135E-04
      Maximum BLB matrix element                  0.876E-06
      (orbital pair  32,  40 in symmetry   1)
      Norm of electronic gradient            0.246E+00
--
 
 
      Final state energy(ies):
      ------------------------
 
::    RASSCF root number  1 Total energy:   -453.96145203
::    RASSCF root number  2 Total energy:   -453.76308764
::    RASSCF root number  3 Total energy:   -453.75816578
::    RASSCF root number  4 Total energy:   -453.62709484
::    RASSCF root number  5 Total energy:   -453.61704170
::    RASSCF root number  6 Total energy:   -453.58018416
::    RASSCF root number  7 Total energy:   -453.56033820
 
++    Molecular orbitals:
      -------------------
 
      Pseudonatural active orbitals and approximate occupation numbers
 
 
 
 
      Molecular orbitals for symmetry species 1: a  
 
 
      Orbital                 1         2         3         4         5         6         7         8         9        10
      Energy           -20.5863  -20.5760  -15.6054  -15.5876  -11.3035  -11.2921  -11.2851  -11.2701  -11.2492   -1.4093
      Occ. No.           2.0000    2.0000    2.0000    2.0000    2.0000    2.0000    2.0000    2.0000    2.0000    2.0000
 
     1 C1     1s         0.0003   -0.0000    0.0003    0.0000    1.0000   -0.0000    0.0005    0.0000    0.0056   -0.0397
     2 C1     2s         0.0007   -0.0001    0.0013    0.0001    0.0027   -0.0001   -0.0005    0.0002    0.0002    0.3383
     3 C1     3s        -0.0006   -0.0000    0.0006    0.0000    0.0001   -0.0002   -0.0005    0.0001    0.0005   -0.0073
     4 C1     4s        -0.0004    0.0000    0.0001   -0.0000    0.0015   -0.0001   -0.0002    0.0000    0.0002    0.0025
     5 C1     2px        0.0025   -0.0002    0.0001   -0.0003    0.0009   -0.0005    0.0002   -0.0001    0.0006    0.0848
     6 C1     3px        0.0016   -0.0001    0.0000   -0.0003    0.0006   -0.0006   -0.0002   -0.0001   -0.0001   -0.0586
     7 C1     4px       -0.0004    0.0001   -0.0000   -0.0001    0.0007   -0.0001   -0.0003   -0.0000   -0.0003    0.0210
     8 C1     2py        0.0014   -0.0001   -0.0001   -0.0002    0.0003   -0.0003    0.0001    0.0001    0.0003    0.0499
     9 C1     3py        0.0009   -0.0002   -0.0001   -0.0002    0.0003   -0.0003   -0.0000    0.0001   -0.0001   -0.0342
    10 C1     4py       -0.0002   -0.0000   -0.0000   -0.0000    0.0003   -0.0001   -0.0001    0.0000   -0.0001    0.0120
    11 C1     2pz       -0.0013   -0.0000    0.0016   -0.0003    0.0013   -0.0004    0.0002   -0.0000    0.0003   -0.0480
    12 C1     3pz       -0.0009   -0.0001    0.0011   -0.0005    0.0015   -0.0006   -0.0001   -0.0001   -0.0002    0.0238
    13 C1     4pz        0.0001   -0.0000   -0.0001   -0.0001    0.0005   -0.0001   -0.0003   -0.0001   -0.0002   -0.0136
    14 C1     3d2-      -0.0000   -0.0000    0.0000   -0.0000    0.0003   -0.0000    0.0000   -0.0000    0.0001    0.0271
    15 C1     3d1-       0.0000    0.0000    0.0001   -0.0000   -0.0002   -0.0000   -0.0000    0.0000   -0.0001   -0.0182
    16 C1     3d0        0.0001    0.0000   -0.0002   -0.0000    0.0001   -0.0000    0.0001    0.0000    0.0001    0.0022
    17 C1     3d1+       0.0001   -0.0000    0.0001    0.0000   -0.0003   -0.0000    0.0000   -0.0000   -0.0000   -0.0269
    18 C1     3d2+       0.0000   -0.0000    0.0000   -0.0000    0.0002   -0.0000    0.0000   -0.0000    0.0000    0.0146
    19 C3     1s         0.0001    0.0001    0.0005   -0.0000   -0.0005    0.0404    0.9986   -0.0000   -0.0000   -0.0096
    20 C3     2s         0.0005    0.0005    0.0024   -0.0002    0.0002    0.0002   -0.0016    0.0005   -0.0004    0.0179
    21 C3     3s         0.0004    0.0002    0.0011   -0.0001    0.0001   -0.0001   -0.0027    0.0003   -0.0003   -0.0198
    22 C3     4s         0.0001   -0.0000    0.0001   -0.0001   -0.0001    0.0000    0.0007    0.0000   -0.0000   -0.0023
    23 C3     2px        0.0001   -0.0006   -0.0004    0.0007    0.0004    0.0002   -0.0004   -0.0002   -0.0001   -0.0184
    24 C3     3px        0.0002   -0.0007    0.0002    0.0006    0.0005   -0.0003   -0.0002   -0.0005   -0.0003   -0.0128
    25 C3     4px        0.0000   -0.0002    0.0002   -0.0000    0.0001   -0.0002   -0.0004   -0.0002   -0.0001   -0.0048
    26 C3     2py       -0.0003   -0.0003   -0.0007    0.0002   -0.0000    0.0001    0.0000   -0.0001    0.0001   -0.0028
    27 C3     3py       -0.0002   -0.0001   -0.0004    0.0002   -0.0002    0.0004    0.0000   -0.0002    0.0001    0.0069
    28 C3     4py        0.0000    0.0002    0.0001    0.0001   -0.0001    0.0000   -0.0007   -0.0000   -0.0000   -0.0015
    29 C3     2pz       -0.0002   -0.0001   -0.0003    0.0001    0.0007   -0.0003   -0.0006   -0.0002   -0.0003   -0.0182
    30 C3     3pz       -0.0001   -0.0003    0.0001    0.0000    0.0011   -0.0008   -0.0007   -0.0004   -0.0005   -0.0077
    31 C3     4pz        0.0001   -0.0001    0.0002   -0.0000    0.0003   -0.0003   -0.0004   -0.0001   -0.0001   -0.0048
    32 C3     3d2-       0.0000    0.0000   -0.0001    0.0000    0.0000   -0.0001   -0.0000   -0.0001   -0.0000    0.0013
    33 C3     3d1-       0.0000   -0.0000   -0.0000   -0.0000    0.0000   -0.0000    0.0000   -0.0000   -0.0000    0.0010
    34 C3     3d0       -0.0000   -0.0001    0.0000   -0.0000    0.0001    0.0001    0.0001    0.0000    0.0000    0.0008
    35 C3     3d1+       0.0000   -0.0000    0.0000    0.0001    0.0000   -0.0001   -0.0001    0.0000   -0.0000    0.0033
    36 C3     3d2+       0.0000   -0.0001   -0.0000    0.0000    0.0000    0.0001    0.0000   -0.0000   -0.0000    0.0018
    37 C4     1s        -0.0000    0.0003   -0.0002    0.0002   -0.0001    0.9992   -0.0404    0.0005    0.0000   -0.0036
    38 C4     2s        -0.0001    0.0011   -0.0016    0.0008   -0.0009    0.0026    0.0007    0.0003    0.0003    0.0594
    39 C4     3s        -0.0000   -0.0004   -0.0012    0.0002   -0.0009   -0.0000    0.0002    0.0001    0.0002    0.0084
    40 C4     4s        -0.0000   -0.0004   -0.0003    0.0000   -0.0003    0.0014   -0.0001   -0.0001    0.0001    0.0034
    41 C4     2px       -0.0002    0.0026    0.0004   -0.0002    0.0002    0.0002   -0.0008    0.0000   -0.0001    0.0080
    42 C4     3px       -0.0001    0.0018    0.0003   -0.0002    0.0003    0.0001   -0.0003   -0.0002   -0.0001   -0.0052
    43 C4     4px        0.0000   -0.0003   -0.0000   -0.0000    0.0001    0.0003    0.0002   -0.0002    0.0000    0.0019
    44 C4     2py       -0.0002    0.0011    0.0000   -0.0016   -0.0002   -0.0005    0.0008    0.0003    0.0003    0.0111
    45 C4     3py       -0.0003    0.0008    0.0001   -0.0011   -0.0003   -0.0004    0.0009    0.0009    0.0004    0.0079
    46 C4     4py       -0.0001   -0.0000    0.0000    0.0002   -0.0000   -0.0002    0.0002    0.0005    0.0001    0.0034
    47 C4     2pz        0.0000    0.0016    0.0003    0.0004    0.0002    0.0009   -0.0005    0.0000   -0.0000    0.0019
    48 C4     3pz        0.0001    0.0011    0.0003    0.0003    0.0003    0.0004   -0.0000   -0.0002   -0.0000   -0.0080
    49 C4     4pz        0.0001   -0.0002    0.0000   -0.0000    0.0001    0.0005    0.0002   -0.0002    0.0000    0.0001
    50 C4     3d2-      -0.0000   -0.0001    0.0000   -0.0002   -0.0000    0.0004   -0.0001    0.0000    0.0000    0.0033
    51 C4     3d1-       0.0000   -0.0001    0.0001   -0.0000   -0.0000    0.0002   -0.0000   -0.0000    0.0000    0.0010
    52 C4     3d0        0.0000   -0.0000   -0.0000    0.0001    0.0000   -0.0002    0.0001   -0.0001   -0.0000   -0.0016
    53 C4     3d1+       0.0000   -0.0000    0.0000    0.0000   -0.0000    0.0003   -0.0001    0.0000    0.0000    0.0039
    54 C4     3d2+       0.0000   -0.0001   -0.0000    0.0001    0.0000    0.0001    0.0000   -0.0001    0.0000    0.0018
    55 C6     1s        -0.0001    0.0001   -0.0000    0.0004   -0.0001   -0.0004    0.0002    0.9996    0.0000    0.0007
    56 C6     2s        -0.0005    0.0005   -0.0003    0.0022   -0.0008    0.0001    0.0004   -0.0007    0.0003    0.0161
    57 C6     3s        -0.0004    0.0004   -0.0003    0.0009   -0.0007   -0.0001    0.0003   -0.0022    0.0003    0.0102
    58 C6     4s        -0.0001    0.0001   -0.0001    0.0000   -0.0002   -0.0002    0.0001    0.0007    0.0001    0.0035
    59 C6     2px        0.0000   -0.0001    0.0001   -0.0004    0.0003    0.0001   -0.0000    0.0000   -0.0000   -0.0042
    60 C6     3px        0.0000   -0.0002    0.0001   -0.0001    0.0002    0.0000    0.0000    0.0003   -0.0000   -0.0028
    61 C6     4px       -0.0000   -0.0000    0.0000    0.0001   -0.0000   -0.0001    0.0000   -0.0003    0.0000   -0.0000
    62 C6     2py       -0.0001    0.0004   -0.0001    0.0004   -0.0002   -0.0004    0.0003   -0.0002    0.0001    0.0065
    63 C6     3py       -0.0001    0.0003   -0.0001   -0.0001   -0.0003   -0.0005    0.0002   -0.0002    0.0001    0.0051
    64 C6     4py        0.0000   -0.0000    0.0000   -0.0002   -0.0001   -0.0002   -0.0001    0.0005    0.0000    0.0014
    65 C6     2pz        0.0001    0.0001   -0.0001   -0.0003    0.0000   -0.0000   -0.0002   -0.0001   -0.0000   -0.0038
    66 C6     3pz        0.0001    0.0001   -0.0000    0.0001    0.0000    0.0000   -0.0002    0.0001   -0.0000   -0.0021
    67 C6     4pz       -0.0000   -0.0001    0.0000    0.0002    0.0000   -0.0000    0.0000   -0.0003   -0.0000   -0.0000
    68 C6     3d2-       0.0000   -0.0000   -0.0000    0.0000    0.0000    0.0000   -0.0000    0.0001    0.0000   -0.0005
    69 C6     3d1-       0.0000   -0.0000   -0.0000    0.0000    0.0000   -0.0000   -0.0000    0.0001   -0.0000   -0.0005
    70 C6     3d0        0.0000   -0.0000   -0.0000    0.0001   -0.0000   -0.0000   -0.0000    0.0000    0.0000   -0.0001
    71 C6     3d1+      -0.0000    0.0000    0.0000   -0.0001    0.0000    0.0000    0.0000   -0.0001    0.0000    0.0003
    72 C6     3d2+       0.0000   -0.0000    0.0000   -0.0000   -0.0000   -0.0001   -0.0000   -0.0000    0.0000   -0.0001
    73 C19    1s         0.0002   -0.0000   -0.0000   -0.0000    0.0055   -0.0000    0.0002   -0.0000   -0.9999   -0.0141
    74 C19    2s         0.0011    0.0000   -0.0000   -0.0003    0.0004   -0.0003    0.0008   -0.0001   -0.0019   -0.0114
    75 C19    3s         0.0007    0.0001    0.0000   -0.0002    0.0001   -0.0003    0.0004   -0.0001    0.0005   -0.0380
    76 C19    4s         0.0001    0.0000   -0.0000   -0.0001    0.0001   -0.0001    0.0000   -0.0000   -0.0012   -0.0036
    77 C19    2px       -0.0001   -0.0000    0.0003    0.0001    0.0004   -0.0001    0.0002   -0.0001    0.0003    0.0173
    78 C19    3px       -0.0002   -0.0000    0.0002    0.0001   -0.0001   -0.0001    0.0001   -0.0001    0.0000   -0.0065
    79 C19    4px       -0.0001    0.0000   -0.0001    0.0000   -0.0001    0.0000   -0.0001   -0.0000   -0.0003    0.0048
    80 C19    2py       -0.0002    0.0001    0.0002   -0.0002    0.0003   -0.0001    0.0001    0.0000    0.0001    0.0104
    81 C19    3py       -0.0002    0.0001    0.0002   -0.0002    0.0000   -0.0001    0.0000   -0.0000    0.0000   -0.0021
    82 C19    4py       -0.0000   -0.0000   -0.0000   -0.0000   -0.0001   -0.0000   -0.0001   -0.0000   -0.0001    0.0019
    83 C19    2pz        0.0008    0.0001   -0.0003    0.0000   -0.0002    0.0000    0.0002    0.0000    0.0002   -0.0103
    84 C19    3pz        0.0005    0.0001   -0.0002    0.0001   -0.0004    0.0000    0.0002    0.0000    0.0001   -0.0078
    85 C19    4pz       -0.0002    0.0000   -0.0000    0.0000   -0.0000    0.0000   -0.0000    0.0000   -0.0002    0.0078
    86 C19    3d2-       0.0000   -0.0000    0.0001   -0.0000   -0.0000   -0.0000    0.0000   -0.0000    0.0001    0.0016
    87 C19    3d1-       0.0000   -0.0000   -0.0000    0.0000    0.0000    0.0000    0.0000   -0.0000    0.0001    0.0013
    88 C19    3d0        0.0001   -0.0000    0.0000    0.0000   -0.0001    0.0000   -0.0000   -0.0000   -0.0000   -0.0066
    89 C19    3d1+       0.0001    0.0000   -0.0000   -0.0000    0.0000    0.0000    0.0001    0.0000    0.0001   -0.0000
    90 C19    3d2+       0.0000    0.0000    0.0000   -0.0000   -0.0000    0.0000    0.0000    0.0000    0.0001    0.0014
    91 N2     1s         0.0001   -0.0001    0.9998    0.0003   -0.0002    0.0001    0.0001   -0.0000   -0.0001   -0.0164
    92 N2     2s         0.0005   -0.0003   -0.0001    0.0003   -0.0001    0.0004    0.0014   -0.0000   -0.0005    0.1022
    93 N2     3s         0.0004   -0.0001   -0.0015    0.0002   -0.0002    0.0002    0.0007   -0.0000   -0.0004   -0.0448
    94 N2     4s         0.0001    0.0000    0.0004    0.0001    0.0001    0.0000    0.0002   -0.0000   -0.0001   -0.0110
    95 N2     2px       -0.0013    0.0005   -0.0008    0.0000    0.0004    0.0003    0.0007    0.0000    0.0002    0.0308
    96 N2     3px       -0.0017    0.0007    0.0000   -0.0000    0.0005    0.0002    0.0007    0.0000    0.0002    0.0166
    97 N2     4px       -0.0000    0.0001    0.0004   -0.0001   -0.0000   -0.0001    0.0002    0.0000   -0.0001   -0.0051
    98 N2     2py       -0.0005    0.0000   -0.0003    0.0004    0.0000    0.0001    0.0002   -0.0003    0.0000    0.0233
    99 N2     3py       -0.0006   -0.0000   -0.0003    0.0006   -0.0001    0.0001    0.0001   -0.0005    0.0000    0.0031
   100 N2     4py        0.0000   -0.0000    0.0005    0.0001   -0.0001   -0.0000    0.0001   -0.0001   -0.0000   -0.0014
   101 N2     2pz        0.0001    0.0001    0.0005    0.0001    0.0001    0.0002    0.0009    0.0003    0.0003   -0.0286
   102 N2     3pz        0.0001    0.0002    0.0004    0.0001    0.0005    0.0001    0.0008    0.0003    0.0002    0.0095
   103 N2     4pz        0.0000    0.0001   -0.0001   -0.0000   -0.0001   -0.0000   -0.0000    0.0000   -0.0001   -0.0063
   104 N2     3d2-       0.0000    0.0000   -0.0001    0.0000   -0.0001    0.0000   -0.0001    0.0000   -0.0000    0.0006
   105 N2     3d1-       0.0000    0.0000   -0.0001    0.0000   -0.0000    0.0000   -0.0000    0.0000    0.0000   -0.0022
   106 N2     3d0       -0.0000   -0.0000   -0.0001   -0.0000   -0.0000    0.0000   -0.0000   -0.0000   -0.0001    0.0045
   107 N2     3d1+       0.0001   -0.0000   -0.0002    0.0000   -0.0001    0.0000   -0.0000    0.0000    0.0000   -0.0022
   108 N2     3d2+       0.0000   -0.0000    0.0000   -0.0000   -0.0001    0.0000    0.0000    0.0000   -0.0000   -0.0010
   109 N5     1s         0.0000    0.0001   -0.0002    0.9999    0.0001   -0.0002   -0.0000    0.0001   -0.0000   -0.0037
   110 N5     2s         0.0001    0.0009    0.0002    0.0003    0.0007    0.0000   -0.0001    0.0019   -0.0002    0.0088
   111 N5     3s         0.0001    0.0006    0.0002   -0.0013    0.0004   -0.0002    0.0000    0.0011   -0.0001   -0.0107
   112 N5     4s         0.0000    0.0001    0.0001    0.0005    0.0001    0.0001   -0.0000    0.0004   -0.0000   -0.0022
   113 N5     2px        0.0002   -0.0011    0.0003   -0.0010    0.0001    0.0000   -0.0001    0.0006    0.0001    0.0015
   114 N5     3px        0.0003   -0.0013    0.0003   -0.0009    0.0002   -0.0001   -0.0000    0.0009    0.0000   -0.0036
   115 N5     4px        0.0000    0.0000    0.0000    0.0005    0.0001   -0.0000    0.0001    0.0003   -0.0000   -0.0016
   116 N5     2py       -0.0001    0.0001   -0.0001    0.0001   -0.0005    0.0002    0.0000   -0.0011    0.0002    0.0116
   117 N5     3py       -0.0002    0.0001   -0.0001    0.0003   -0.0008    0.0000   -0.0000   -0.0010    0.0002    0.0114
   118 N5     4py       -0.0001   -0.0000   -0.0001    0.0002   -0.0001    0.0002   -0.0001   -0.0001    0.0000    0.0034
   119 N5     2pz        0.0001   -0.0010    0.0003   -0.0010    0.0002    0.0002   -0.0001    0.0006   -0.0000   -0.0002
   120 N5     3pz        0.0000   -0.0012    0.0004   -0.0007    0.0005   -0.0002   -0.0000    0.0008   -0.0001   -0.0040
   121 N5     4pz       -0.0000    0.0000    0.0001   -0.0001    0.0002   -0.0002    0.0001    0.0002   -0.0001   -0.0026
   122 N5     3d2-       0.0000   -0.0001    0.0000    0.0001    0.0000    0.0000    0.0000   -0.0000   -0.0000    0.0004
   123 N5     3d1-      -0.0000   -0.0001    0.0000    0.0001    0.0000    0.0001   -0.0000    0.0000   -0.0000    0.0000
   124 N5     3d0       -0.0000    0.0000   -0.0000    0.0001    0.0000    0.0000   -0.0000    0.0001   -0.0000   -0.0004
   125 N5     3d1+      -0.0000    0.0001   -0.0000    0.0000    0.0000   -0.0001    0.0000   -0.0000   -0.0000   -0.0003
   126 N5     3d2+      -0.0000   -0.0000   -0.0000    0.0001    0.0000    0.0000    0.0000    0.0000   -0.0000   -0.0003
   127 O7     1s         0.9997    0.0000    0.0000    0.0000   -0.0002    0.0000   -0.0000    0.0000   -0.0001   -0.0241
   128 O7     2s        -0.0013    0.0001    0.0001    0.0001    0.0005    0.0001   -0.0001    0.0000   -0.0004    0.6946
   129 O7     3s        -0.0013    0.0001    0.0001    0.0001    0.0001    0.0001   -0.0001    0.0000   -0.0003   -0.0354
   130 O7     4s         0.0001    0.0000   -0.0000    0.0000    0.0001    0.0000    0.0000    0.0000   -0.0001   -0.0144
   131 O7     2px       -0.0002   -0.0000   -0.0002    0.0000   -0.0005    0.0001   -0.0000   -0.0000    0.0001   -0.1034
   132 O7     3px        0.0005    0.0000   -0.0001    0.0001   -0.0004    0.0001   -0.0001    0.0000    0.0001    0.0330
   133 O7     4px       -0.0009    0.0000    0.0000    0.0000   -0.0003    0.0000   -0.0000    0.0000   -0.0000   -0.0000
   134 O7     2py       -0.0001   -0.0000   -0.0000    0.0000   -0.0004   -0.0000   -0.0000   -0.0000    0.0001   -0.0658
   135 O7     3py        0.0003   -0.0000   -0.0000    0.0000   -0.0002    0.0000   -0.0000   -0.0000    0.0001    0.0200
   136 O7     4py       -0.0006    0.0000    0.0000    0.0000   -0.0001    0.0000   -0.0000   -0.0000   -0.0000    0.0000
   137 O7     2pz        0.0002    0.0001   -0.0003    0.0001    0.0003    0.0001   -0.0001    0.0000   -0.0001    0.0839
   138 O7     3pz       -0.0003    0.0001   -0.0004    0.0001   -0.0001    0.0001   -0.0001    0.0001   -0.0001   -0.0243
   139 O7     4pz        0.0008    0.0000   -0.0001    0.0000    0.0001    0.0000   -0.0000    0.0000    0.0000   -0.0010
   140 O7     3d2-      -0.0000    0.0000    0.0001   -0.0000    0.0001   -0.0000    0.0000    0.0000   -0.0000    0.0118
   141 O7     3d1-       0.0000   -0.0000    0.0000   -0.0000   -0.0001    0.0000    0.0000   -0.0000    0.0000   -0.0093
   142 O7     3d0       -0.0000    0.0000   -0.0000    0.0000   -0.0000   -0.0000   -0.0000   -0.0000   -0.0000   -0.0015
   143 O7     3d1+       0.0000   -0.0000    0.0000   -0.0000   -0.0002   -0.0000    0.0000   -0.0000   -0.0000   -0.0150
   144 O7     3d2+      -0.0000   -0.0000    0.0000   -0.0000    0.0000   -0.0000    0.0000    0.0000   -0.0000    0.0057
   145 O8     1s         0.0000    0.9997    0.0000    0.0000    0.0000   -0.0002    0.0001   -0.0000   -0.0000   -0.0034
   146 O8     2s         0.0002   -0.0015    0.0000    0.0001    0.0001    0.0005    0.0005   -0.0003   -0.0001    0.0777
   147 O8     3s         0.0001   -0.0014    0.0001    0.0001    0.0001    0.0000    0.0003   -0.0002   -0.0001   -0.0066
   148 O8     4s         0.0000    0.0000    0.0000    0.0000    0.0000    0.0001    0.0001   -0.0000   -0.0000   -0.0024
   149 O8     2px       -0.0000   -0.0002   -0.0001   -0.0000   -0.0000   -0.0007   -0.0002    0.0000    0.0000   -0.0141
   150 O8     3px       -0.0000    0.0005   -0.0001    0.0000   -0.0000   -0.0003   -0.0001    0.0000    0.0000    0.0051
   151 O8     4px        0.0000   -0.0011   -0.0000    0.0001    0.0000   -0.0003    0.0001   -0.0000   -0.0000   -0.0001
   152 O8     2py        0.0000   -0.0001   -0.0000    0.0003   -0.0000   -0.0003   -0.0001    0.0001   -0.0000   -0.0059
   153 O8     3py        0.0000    0.0002   -0.0000    0.0003   -0.0001   -0.0000   -0.0001    0.0000   -0.0000    0.0037
   154 O8     4py        0.0000   -0.0005   -0.0000    0.0000   -0.0000   -0.0001    0.0000   -0.0000    0.0000    0.0007
   155 O8     2pz       -0.0000   -0.0001   -0.0001   -0.0001   -0.0001   -0.0000   -0.0001   -0.0000    0.0000   -0.0057
   156 O8     3pz       -0.0001    0.0002   -0.0001   -0.0001   -0.0001   -0.0002   -0.0001   -0.0000   -0.0000    0.0037
   157 O8     4pz       -0.0000   -0.0006   -0.0000    0.0000   -0.0000   -0.0002    0.0000   -0.0000   -0.0000    0.0002
   158 O8     3d2-       0.0000   -0.0000   -0.0000   -0.0000    0.0000    0.0001   -0.0000   -0.0000   -0.0000    0.0013
   159 O8     3d1-       0.0000   -0.0000    0.0000   -0.0000   -0.0000    0.0001   -0.0000   -0.0000    0.0000    0.0007
   160 O8     3d0        0.0000    0.0000    0.0000    0.0000    0.0000   -0.0000   -0.0000   -0.0000   -0.0000   -0.0006
   161 O8     3d1+       0.0000   -0.0000   -0.0000    0.0001   -0.0000    0.0001    0.0001    0.0000    0.0000    0.0015
   162 O8     3d2+       0.0000   -0.0000   -0.0000    0.0000    0.0000    0.0001    0.0000    0.0000   -0.0000    0.0012
   163 H9     1s         0.0001    0.0001    0.0000   -0.0003    0.0001   -0.0002   -0.0001    0.0001   -0.0003    0.0128
   164 H9     2s         0.0000    0.0000    0.0000   -0.0002    0.0001   -0.0001   -0.0000    0.0000    0.0002    0.0024
   165 H9     2px       -0.0001   -0.0000    0.0000   -0.0000    0.0000    0.0000   -0.0000   -0.0000   -0.0001    0.0007
   166 H9     2py       -0.0000    0.0000   -0.0000   -0.0000    0.0001   -0.0000   -0.0000    0.0000    0.0000    0.0009
   167 H9     2pz       -0.0000    0.0000    0.0000   -0.0000    0.0001   -0.0000   -0.0000    0.0000    0.0000    0.0008
   168 H10    1s         0.0002   -0.0001    0.0001    0.0002    0.0000   -0.0001   -0.0002   -0.0001   -0.0003    0.0136
   169 H10    2s         0.0001   -0.0001    0.0000    0.0001    0.0000   -0.0001   -0.0001   -0.0001    0.0002    0.0031
   170 H10    2px       -0.0000   -0.0000   -0.0000   -0.0000    0.0001   -0.0000   -0.0000   -0.0000    0.0000    0.0013
   171 H10    2py       -0.0000    0.0000   -0.0000   -0.0000   -0.0000    0.0000    0.0000    0.0000   -0.0001   -0.0000
   172 H10    2pz       -0.0000   -0.0000    0.0000    0.0000    0.0000   -0.0000   -0.0000   -0.0000    0.0000    0.0009
   173 H11    1s        -0.0005    0.0001    0.0004    0.0000    0.0004   -0.0001   -0.0000   -0.0001   -0.0003    0.0197
   174 H11    2s        -0.0003    0.0001    0.0003    0.0000    0.0002   -0.0001   -0.0000   -0.0001    0.0002    0.0057
   175 H11    2px       -0.0000    0.0000    0.0000    0.0000    0.0001   -0.0000    0.0000    0.0000    0.0000    0.0016
   176 H11    2py       -0.0000   -0.0000    0.0000    0.0000    0.0001   -0.0000    0.0000   -0.0000    0.0000    0.0010
   177 H11    2pz       -0.0000    0.0000   -0.0000    0.0000   -0.0000    0.0000    0.0000   -0.0000   -0.0001    0.0001
   178 H12    1s        -0.0010    0.0004   -0.0007    0.0002    0.0001    0.0000   -0.0004   -0.0003    0.0004    0.0388
   179 H12    2s        -0.0005    0.0002   -0.0005    0.0001   -0.0000    0.0000   -0.0002   -0.0002    0.0002    0.0000
   180 H12    2px       -0.0000    0.0000   -0.0005    0.0000    0.0000   -0.0000   -0.0000   -0.0000    0.0000    0.0045
   181 H12    2py        0.0000    0.0000   -0.0001   -0.0000    0.0000   -0.0000    0.0000   -0.0000    0.0000    0.0013
   182 H12    2pz        0.0000   -0.0001    0.0002   -0.0000   -0.0002   -0.0000    0.0000    0.0000   -0.0000   -0.0031
   183 H13    1s         0.0001   -0.0001   -0.0003   -0.0000   -0.0002   -0.0002    0.0009   -0.0002   -0.0001    0.0146
   184 H13    2s         0.0001   -0.0001   -0.0001   -0.0000   -0.0001   -0.0001    0.0001   -0.0001   -0.0001   -0.0022
   185 H13    2px       -0.0000   -0.0000   -0.0000   -0.0000    0.0000   -0.0000   -0.0001    0.0000    0.0000   -0.0007
   186 H13    2py       -0.0000    0.0000   -0.0000   -0.0000    0.0000   -0.0000   -0.0001    0.0000    0.0000   -0.0009
   187 H13    2pz        0.0000   -0.0000    0.0000   -0.0000   -0.0000    0.0000    0.0001   -0.0000    0.0000   -0.0003
   188 H14    1s         0.0005   -0.0003   -0.0004    0.0003   -0.0004   -0.0000    0.0010   -0.0002    0.0000    0.0068
   189 H14    2s         0.0003   -0.0002   -0.0002    0.0001   -0.0003    0.0000    0.0002   -0.0001    0.0000   -0.0007
   190 H14    2px        0.0000   -0.0000    0.0001   -0.0000   -0.0000    0.0000   -0.0000   -0.0000    0.0000    0.0001
   191 H14    2py       -0.0000    0.0000    0.0000   -0.0000    0.0000   -0.0000   -0.0000    0.0000    0.0000   -0.0008
   192 H14    2pz       -0.0001   -0.0000    0.0000   -0.0000    0.0000    0.0000   -0.0000    0.0000    0.0000   -0.0004
   193 H15    1s         0.0002   -0.0014    0.0005   -0.0009   -0.0005   -0.0000   -0.0004   -0.0004    0.0003    0.0141
   194 H15    2s         0.0001   -0.0008    0.0003   -0.0006   -0.0003   -0.0002   -0.0002   -0.0002    0.0002    0.0044
   195 H15    2px        0.0000   -0.0001    0.0000   -0.0003   -0.0001    0.0001   -0.0000   -0.0000    0.0000    0.0012
   196 H15    2py        0.0000   -0.0000    0.0001   -0.0001   -0.0000    0.0001   -0.0000   -0.0001    0.0000    0.0007
   197 H15    2pz       -0.0000   -0.0001    0.0000   -0.0004   -0.0000    0.0000   -0.0000   -0.0000    0.0000    0.0010
   198 H16    1s        -0.0000    0.0005   -0.0001   -0.0005   -0.0002   -0.0004   -0.0000    0.0005    0.0000    0.0041
   199 H16    2s        -0.0000    0.0003   -0.0001   -0.0002   -0.0001   -0.0003   -0.0000   -0.0002    0.0000    0.0024
   200 H16    2px        0.0000   -0.0000    0.0000    0.0000   -0.0000    0.0000   -0.0000   -0.0000   -0.0000   -0.0001
   201 H16    2py       -0.0000    0.0001   -0.0000   -0.0001   -0.0000   -0.0001    0.0000    0.0000    0.0000    0.0002
   202 H16    2pz       -0.0000    0.0000   -0.0000    0.0000   -0.0000   -0.0000    0.0000   -0.0000    0.0000    0.0002
   203 H17    1s        -0.0000   -0.0001   -0.0001   -0.0003   -0.0002   -0.0002    0.0000    0.0010   -0.0000    0.0044
   204 H17    2s        -0.0000    0.0000   -0.0001   -0.0001   -0.0001   -0.0000    0.0000    0.0001   -0.0000    0.0017
   205 H17    2px        0.0000    0.0000    0.0000    0.0000    0.0000    0.0000   -0.0000   -0.0001   -0.0000   -0.0004
   206 H17    2py        0.0000   -0.0000   -0.0000    0.0000    0.0000    0.0000    0.0000   -0.0000   -0.0000   -0.0001
   207 H17    2pz       -0.0000   -0.0000    0.0000   -0.0000    0.0000    0.0000    0.0000   -0.0001   -0.0000   -0.0004
   208 H18    1s        -0.0001    0.0002    0.0001   -0.0005    0.0000   -0.0002    0.0002    0.0006    0.0000    0.0032
   209 H18    2s        -0.0000    0.0001    0.0000   -0.0002   -0.0000   -0.0002    0.0001   -0.0001    0.0000    0.0021
   210 H18    2px       -0.0000    0.0000    0.0000   -0.0000    0.0000   -0.0000    0.0000   -0.0000   -0.0000    0.0001
   211 H18    2py       -0.0000    0.0000    0.0000   -0.0000    0.0000   -0.0000    0.0000    0.0000   -0.0000    0.0001
   212 H18    2pz        0.0000   -0.0000   -0.0000    0.0000   -0.0000    0.0000   -0.0000   -0.0000   -0.0000   -0.0002
 
 
      Orbital                11        12        13        14        15        16        17        18        19        20
      Energy            -1.3975   -1.2411   -1.2150   -1.0165   -0.9660   -0.9179   -0.7993   -0.7793   -0.7104   -0.6846
      Occ. No.           2.0000    2.0000    2.0000    2.0000    2.0000    2.0000    2.0000    2.0000    2.0000    2.0000
 
     1 C1     1s         0.0058   -0.0071    0.0061   -0.0165    0.0006    0.0029    0.0161   -0.0043    0.0037    0.0052
     2 C1     2s        -0.0339    0.0974   -0.0798    0.2543   -0.0627   -0.0590   -0.3910    0.1457   -0.1628   -0.1713
     3 C1     3s         0.0082   -0.0011    0.0057   -0.0196   -0.0042    0.0009    0.0064    0.0020   -0.0031    0.0127
     4 C1     4s         0.0020    0.0003    0.0021   -0.0059   -0.0017    0.0017    0.0041   -0.0002    0.0014    0.0035
     5 C1     2px        0.0033   -0.0145    0.0246   -0.1337    0.0628    0.0019   -0.0363    0.0388    0.0723   -0.0512
     6 C1     3px        0.0262    0.0411   -0.0078    0.0023   -0.0400    0.0438    0.0125   -0.0063   -0.0220    0.0329
     7 C1     4px       -0.0002   -0.0015    0.0051   -0.0226    0.0074    0.0038   -0.0045    0.0042   -0.0003   -0.0063
     8 C1     2py       -0.0020   -0.0266    0.0200   -0.0695    0.0200    0.0049    0.0070    0.0133    0.0403   -0.0770
     9 C1     3py        0.0119    0.0184   -0.0116    0.0081   -0.0210    0.0102    0.0028   -0.0044   -0.0046    0.0285
    10 C1     4py       -0.0003   -0.0052    0.0026   -0.0107    0.0027    0.0024   -0.0010    0.0005    0.0024   -0.0067
    11 C1     2pz        0.0255    0.1183   -0.0629   -0.0140    0.1001   -0.0779   -0.1224    0.0278    0.0527    0.2875
    12 C1     3pz        0.0172   -0.0252    0.0470   -0.0492   -0.0151    0.0268    0.0216   -0.0071   -0.0412   -0.0809
    13 C1     4pz        0.0066    0.0226   -0.0078   -0.0088    0.0139   -0.0061   -0.0096    0.0016   -0.0003    0.0159
    14 C1     3d2-      -0.0035   -0.0062    0.0040    0.0059   -0.0049    0.0013   -0.0051    0.0023   -0.0066   -0.0135
    15 C1     3d1-       0.0023    0.0017   -0.0011    0.0011   -0.0054    0.0056    0.0023    0.0021    0.0076    0.0009
    16 C1     3d0        0.0005    0.0217   -0.0154    0.0079    0.0108   -0.0105   -0.0150    0.0036    0.0052    0.0167
    17 C1     3d1+       0.0043    0.0107   -0.0067    0.0077   -0.0079    0.0061   -0.0088    0.0082    0.0124    0.0138
    18 C1     3d2+      -0.0017   -0.0028    0.0017    0.0049   -0.0050    0.0022   -0.0048    0.0025   -0.0025   -0.0085
    19 C3     1s        -0.0122   -0.0300    0.0153    0.0352    0.0186   -0.0266    0.0011   -0.0058   -0.0013    0.0027
    20 C3     2s         0.0034    0.1608   -0.0699   -0.2882   -0.1908    0.3556   -0.0152    0.1261    0.0044   -0.0211
    21 C3     3s        -0.0353   -0.0536    0.0308    0.0632    0.0289   -0.0287    0.0066   -0.0062    0.0031    0.0031
    22 C3     4s        -0.0045   -0.0104    0.0083    0.0166    0.0071   -0.0086    0.0017   -0.0033    0.0018    0.0001
    23 C3     2px        0.0218   -0.0719    0.0528   -0.0176   -0.0292    0.0300   -0.1457    0.0051   -0.1762    0.1876
    24 C3     3px        0.0053    0.0011    0.0157   -0.0161    0.0544    0.0103    0.0031    0.0016    0.0312   -0.0205
    25 C3     4px        0.0059   -0.0016    0.0123   -0.0065    0.0006    0.0057   -0.0105   -0.0006   -0.0009    0.0064
    26 C3     2py        0.0021   -0.0536   -0.0031    0.0241    0.0277    0.0355   -0.0316    0.0953    0.0394    0.0213
    27 C3     3py        0.0095    0.0188   -0.0113   -0.0201   -0.0030    0.0066   -0.0040   -0.0018   -0.0057   -0.0005
    28 C3     4py       -0.0071    0.0066   -0.0005   -0.0126   -0.0061    0.0212   -0.0019    0.0089   -0.0013    0.0001
    29 C3     2pz        0.0261   -0.0296    0.0492   -0.0335   -0.0509    0.0390    0.0080   -0.0900   -0.2530   -0.0682
    30 C3     3pz        0.0158    0.0263    0.0114   -0.0358    0.0244    0.0362   -0.0007    0.0138    0.0357    0.0002
    31 C3     4pz        0.0074    0.0019    0.0072   -0.0108   -0.0001    0.0070   -0.0001   -0.0051   -0.0062   -0.0016
    32 C3     3d2-      -0.0029    0.0086   -0.0074    0.0004    0.0113   -0.0005    0.0126    0.0058    0.0247   -0.0049
    33 C3     3d1-      -0.0006    0.0060   -0.0060    0.0027    0.0093   -0.0006    0.0083    0.0050    0.0162   -0.0105
    34 C3     3d0        0.0021   -0.0031    0.0001    0.0005    0.0005    0.0011   -0.0112    0.0068    0.0056    0.0081
    35 C3     3d1+       0.0022    0.0148   -0.0100   -0.0057    0.0010   -0.0008    0.0022   -0.0045    0.0046   -0.0008
    36 C3     3d2+       0.0048    0.0028   -0.0071   -0.0002    0.0049    0.0023    0.0053    0.0007    0.0033   -0.0010
    37 C4     1s        -0.0396   -0.0023   -0.0102    0.0099    0.0137    0.0021    0.0104    0.0142    0.0038   -0.0024
    38 C4     2s         0.3406    0.1145    0.0872   -0.1387   -0.2466   -0.0340   -0.2026   -0.3472   -0.1501    0.0820
    39 C4     3s        -0.0061    0.0173   -0.0123    0.0173    0.0074   -0.0009    0.0136    0.0081    0.0031   -0.0042
    40 C4     4s         0.0025    0.0053   -0.0028    0.0058    0.0032    0.0010    0.0049    0.0044    0.0033   -0.0017
    41 C4     2px        0.0858   -0.0620   -0.0344    0.0717    0.1060    0.0200    0.0121    0.0079    0.0446    0.0416
    42 C4     3px       -0.0554    0.0358    0.0476   -0.0262   -0.0113    0.0478   -0.0042    0.0060   -0.0196   -0.0204
    43 C4     4px        0.0233   -0.0101   -0.0063    0.0067    0.0122    0.0062   -0.0021   -0.0003   -0.0024    0.0050
    44 C4     2py        0.0178   -0.0718   -0.1484   -0.0230   -0.0255    0.0841    0.0267    0.0971   -0.2150    0.1003
    45 C4     3py       -0.0338   -0.0047   -0.0125    0.0189   -0.0567   -0.1069    0.0061   -0.0245    0.0801   -0.0312
    46 C4     4py        0.0046   -0.0170   -0.0312   -0.0016   -0.0082   -0.0027    0.0027    0.0061   -0.0070    0.0046
    47 C4     2pz        0.0562   -0.0329    0.0226    0.0530    0.0650   -0.0229   -0.0118   -0.0497    0.0763   -0.0052
    48 C4     3pz       -0.0392    0.0042    0.0339   -0.0081    0.0160    0.0406   -0.0076    0.0132   -0.0267    0.0042
    49 C4     4pz        0.0133   -0.0044    0.0047    0.0063    0.0102    0.0013   -0.0019   -0.0034    0.0003    0.0007
    50 C4     3d2-       0.0253   -0.0012    0.0052    0.0058   -0.0016   -0.0184    0.0008   -0.0010    0.0052    0.0027
    51 C4     3d1-       0.0097   -0.0076   -0.0067    0.0074    0.0064   -0.0074    0.0089    0.0085   -0.0057    0.0015
    52 C4     3d0       -0.0129   -0.0044   -0.0092    0.0023    0.0076    0.0068    0.0023    0.0077    0.0012    0.0033
    53 C4     3d1+       0.0299   -0.0036   -0.0087   -0.0045   -0.0036    0.0047   -0.0030   -0.0050   -0.0090    0.0065
    54 C4     3d2+       0.0143   -0.0125   -0.0221    0.0028    0.0089    0.0056    0.0086    0.0083   -0.0122    0.0041
    55 C6     1s        -0.0084   -0.0127   -0.0317   -0.0169   -0.0375   -0.0361    0.0018    0.0074    0.0067   -0.0006
    56 C6     2s         0.0134    0.0957    0.1471    0.1209    0.2766    0.3754   -0.0445   -0.0832   -0.0435   -0.0009
    57 C6     3s        -0.0157   -0.0080   -0.0562   -0.0253   -0.0683   -0.0474    0.0023    0.0176    0.0192   -0.0020
    58 C6     4s        -0.0012    0.0011   -0.0099   -0.0046   -0.0152   -0.0096    0.0011    0.0051    0.0047   -0.0002
    59 C6     2px       -0.0028   -0.0367   -0.0474   -0.0137   -0.0104    0.0038   -0.0431   -0.1197    0.0261   -0.0374
    60 C6     3px        0.0036   -0.0059    0.0105    0.0040    0.0044   -0.0140    0.0041    0.0056    0.0025    0.0043
    61 C6     4px       -0.0015   -0.0013   -0.0014    0.0033    0.0067    0.0093   -0.0041   -0.0090    0.0022   -0.0015
    62 C6     2py        0.0138    0.0401    0.0680    0.0184    0.0002   -0.0308   -0.0106   -0.0143    0.1706   -0.0464
    63 C6     3py       -0.0035   -0.0003   -0.0172   -0.0038   -0.0194   -0.0054    0.0012   -0.0003   -0.0212    0.0043
    64 C6     4py        0.0031    0.0018   -0.0027   -0.0041   -0.0130   -0.0140    0.0006    0.0005    0.0083   -0.0014
    65 C6     2pz       -0.0099   -0.0277   -0.0433   -0.0109   -0.0003    0.0272   -0.0329   -0.0824   -0.0117   -0.0285
    66 C6     3pz       -0.0000    0.0028    0.0117    0.0033    0.0104    0.0069   -0.0041    0.0022    0.0055    0.0008
    67 C6     4pz       -0.0009   -0.0002   -0.0009    0.0026    0.0077    0.0098   -0.0023   -0.0066   -0.0008   -0.0016
    68 C6     3d2-      -0.0023   -0.0078   -0.0137   -0.0028   -0.0020    0.0034   -0.0037   -0.0107   -0.0050   -0.0024
    69 C6     3d1-      -0.0021   -0.0069   -0.0125   -0.0033   -0.0023    0.0024   -0.0025   -0.0072   -0.0068   -0.0000
    70 C6     3d0       -0.0006   -0.0009   -0.0026   -0.0010   -0.0015   -0.0003    0.0019    0.0031   -0.0066    0.0018
    71 C6     3d1+       0.0017    0.0051    0.0102    0.0035    0.0039   -0.0008    0.0027    0.0065    0.0087   -0.0014
    72 C6     3d2+      -0.0014   -0.0015   -0.0035   -0.0002    0.0003    0.0016    0.0039    0.0081   -0.0093    0.0029
    73 C19    1s         0.0027   -0.0075    0.0054   -0.0546    0.0444   -0.0199   -0.0145   -0.0000   -0.0075   -0.0027
    74 C19    2s         0.0089    0.0038   -0.0104    0.2849   -0.2923    0.1658    0.0989   -0.0148    0.0799    0.0375
    75 C19    3s         0.0119   -0.0188    0.0162   -0.1106    0.0810   -0.0296   -0.0354   -0.0009   -0.0143   -0.0002
    76 C19    4s         0.0031   -0.0015    0.0034   -0.0239    0.0181   -0.0066   -0.0098    0.0005   -0.0045   -0.0001
    77 C19    2px        0.0019    0.0087    0.0026    0.0368   -0.0091   -0.0095   -0.0786    0.0172   -0.1332   -0.1401
    78 C19    3px        0.0048    0.0003    0.0109   -0.0257    0.0189   -0.0033    0.0107   -0.0021    0.0098    0.0201
    79 C19    4px       -0.0006    0.0004    0.0006   -0.0109    0.0133   -0.0083   -0.0121    0.0041   -0.0052   -0.0045
    80 C19    2py        0.0006    0.0011    0.0007    0.0109   -0.0054   -0.0046   -0.0310    0.0052   -0.0552   -0.0934
    81 C19    3py        0.0026    0.0003    0.0017   -0.0158    0.0084   -0.0019    0.0050   -0.0054    0.0043    0.0100
    82 C19    4py        0.0001    0.0010   -0.0010   -0.0047    0.0057   -0.0018   -0.0060    0.0007   -0.0017   -0.0030
    83 C19    2pz        0.0007    0.0192   -0.0163    0.0517   -0.0052   -0.0198   -0.0569   -0.0012   -0.0835    0.0651
    84 C19    3pz       -0.0016   -0.0016   -0.0007    0.0029    0.0032   -0.0029    0.0069    0.0008    0.0139   -0.0026
    85 C19    4pz       -0.0020    0.0002   -0.0001   -0.0077    0.0127   -0.0092   -0.0042   -0.0002   -0.0065   -0.0003
    86 C19    3d2-      -0.0002   -0.0008    0.0002    0.0078   -0.0050    0.0009   -0.0041    0.0001   -0.0087   -0.0024
    87 C19    3d1-      -0.0001    0.0020   -0.0011    0.0040   -0.0009   -0.0005   -0.0039    0.0013   -0.0046   -0.0059
    88 C19    3d0        0.0008    0.0022   -0.0015   -0.0010    0.0021   -0.0009    0.0011   -0.0009    0.0031    0.0100
    89 C19    3d1+      -0.0000    0.0041   -0.0029    0.0094   -0.0026   -0.0018   -0.0085    0.0018   -0.0096   -0.0069
    90 C19    3d2+      -0.0002   -0.0000   -0.0001    0.0066   -0.0038    0.0000   -0.0043    0.0006   -0.0078   -0.0032
    91 N2     1s         0.0005   -0.0358    0.0203   -0.0044   -0.0033    0.0033   -0.0040    0.0019    0.0031    0.0023
    92 N2     2s         0.0084    0.4855   -0.3384    0.0129    0.2165   -0.1365    0.1041   -0.0805    0.1007    0.0477
    93 N2     3s        -0.0003   -0.0675    0.0308   -0.0099    0.0080   -0.0006   -0.0054    0.0004    0.0139    0.0089
    94 N2     4s        -0.0009   -0.0223    0.0116   -0.0014   -0.0011    0.0012   -0.0023    0.0002    0.0010    0.0006
    95 N2     2px       -0.0012   -0.0036    0.0174   -0.1022   -0.0354    0.0909   -0.1138    0.1642    0.2666    0.0092
    96 N2     3px       -0.0084   -0.0314    0.0209    0.0367    0.0329   -0.0505    0.0135   -0.0373   -0.0553   -0.0168
    97 N2     4px       -0.0003   -0.0124    0.0081   -0.0011    0.0011   -0.0042   -0.0089    0.0004   -0.0016    0.0007
    98 N2     2py       -0.0025    0.0216   -0.0088   -0.0376    0.0112    0.0689   -0.0619    0.0812    0.1855   -0.0423
    99 N2     3py       -0.0014   -0.0081    0.0188    0.0214    0.0261    0.0058    0.0019   -0.0242   -0.0289   -0.0010
   100 N2     4py        0.0001   -0.0003    0.0020    0.0015    0.0040    0.0042   -0.0031   -0.0019   -0.0018    0.0024
   101 N2     2pz        0.0070   -0.0264    0.0179   -0.1408   -0.0233    0.0637    0.3461   -0.1226   -0.0016   -0.2975
   102 N2     3pz       -0.0039   -0.0307   -0.0005    0.0150    0.0356   -0.0649   -0.0946    0.0243   -0.0184    0.0473
   103 N2     4pz        0.0005   -0.0001    0.0003   -0.0062    0.0068   -0.0074   -0.0023   -0.0017   -0.0034    0.0057
   104 N2     3d2-      -0.0000    0.0067   -0.0051   -0.0053    0.0011    0.0035    0.0062    0.0005    0.0075   -0.0038
   105 N2     3d1-       0.0004    0.0013   -0.0008   -0.0039   -0.0038    0.0067    0.0065    0.0005    0.0059   -0.0061
   106 N2     3d0        0.0004    0.0098   -0.0065    0.0068    0.0044   -0.0066   -0.0173    0.0042   -0.0026    0.0097
   107 N2     3d1+       0.0012    0.0067   -0.0035   -0.0019   -0.0058    0.0067   -0.0038    0.0065    0.0089    0.0021
   108 N2     3d2+       0.0009    0.0047   -0.0038   -0.0011    0.0007   -0.0016    0.0072   -0.0065   -0.0053   -0.0013
   109 N5     1s        -0.0172   -0.0249   -0.0355   -0.0030    0.0012    0.0020   -0.0012   -0.0018    0.0033   -0.0014
   110 N5     2s         0.0972    0.2761    0.5155    0.0231   -0.0615   -0.2227    0.0636    0.1690    0.1085   -0.0155
   111 N5     3s        -0.0451   -0.0508   -0.0635   -0.0114   -0.0090   -0.0149    0.0005    0.0058    0.0167   -0.0052
   112 N5     4s        -0.0104   -0.0149   -0.0219   -0.0037   -0.0031   -0.0009   -0.0007   -0.0002    0.0017   -0.0005
   113 N5     2px        0.0351   -0.0077    0.0101    0.0360    0.0474    0.0396   -0.1012   -0.2214    0.2206   -0.0639
   114 N5     3px        0.0072   -0.0300   -0.0389   -0.0074   -0.0347   -0.0630    0.0226    0.0362   -0.0369    0.0133
   115 N5     4px       -0.0020   -0.0085   -0.0070   -0.0032   -0.0035   -0.0058   -0.0045   -0.0046    0.0005    0.0003
   116 N5     2py        0.0159    0.0378    0.0028   -0.0661   -0.1592   -0.1028   -0.1197   -0.2739    0.1254   -0.0853
   117 N5     3py       -0.0223    0.0296   -0.0110    0.0255    0.0388    0.0770    0.0290    0.0689   -0.0103    0.0130
   118 N5     4py        0.0058    0.0038   -0.0054   -0.0032   -0.0039    0.0069   -0.0020    0.0003    0.0008    0.0012
   119 N5     2pz        0.0269   -0.0178   -0.0090    0.0312    0.0645    0.0676   -0.0508   -0.1090    0.1245   -0.0223
   120 N5     3pz        0.0203   -0.0173   -0.0142   -0.0153   -0.0341   -0.0642    0.0201    0.0148   -0.0306    0.0078
   121 N5     4pz       -0.0032   -0.0073   -0.0041   -0.0029    0.0002   -0.0052   -0.0012   -0.0039   -0.0003   -0.0008
   122 N5     3d2-       0.0044    0.0001    0.0011   -0.0028   -0.0084   -0.0124   -0.0028   -0.0063    0.0021   -0.0010
   123 N5     3d1-       0.0016   -0.0050   -0.0069   -0.0008   -0.0020   -0.0044    0.0022    0.0040   -0.0042    0.0018
   124 N5     3d0       -0.0032   -0.0046   -0.0078   -0.0002    0.0016    0.0021    0.0037    0.0079   -0.0056    0.0020
   125 N5     3d1+      -0.0002    0.0040    0.0083    0.0015    0.0036   -0.0008    0.0052    0.0114   -0.0034    0.0016
   126 N5     3d2+      -0.0017   -0.0064   -0.0091    0.0023    0.0053    0.0019    0.0053    0.0104   -0.0028    0.0022
   127 O7     1s         0.0027    0.0018   -0.0011   -0.0042    0.0026   -0.0003    0.0139   -0.0073    0.0046    0.0233
   128 O7     2s        -0.1000   -0.2432    0.1525   -0.1986    0.0696   -0.0012    0.3426   -0.1739    0.0658    0.3738
   129 O7     3s         0.0023   -0.0084    0.0042   -0.0195    0.0112   -0.0031    0.0439   -0.0234    0.0125    0.0664
   130 O7     4s         0.0013   -0.0004   -0.0002   -0.0034    0.0026   -0.0014    0.0085   -0.0048    0.0022    0.0138
   131 O7     2px        0.0134    0.0292   -0.0179   -0.0267    0.0228   -0.0038    0.1433   -0.0774    0.0793    0.3908
   132 O7     3px       -0.0065   -0.0008   -0.0025    0.0108   -0.0029   -0.0007   -0.0221    0.0112   -0.0107   -0.0443
   133 O7     4px       -0.0007   -0.0010   -0.0001   -0.0009   -0.0002    0.0011   -0.0023    0.0016   -0.0008   -0.0066
   134 O7     2py        0.0085    0.0137   -0.0064   -0.0140    0.0110    0.0005    0.0980   -0.0487    0.0452    0.2356
   135 O7     3py       -0.0030   -0.0006    0.0013    0.0072    0.0000   -0.0012   -0.0149    0.0079   -0.0068   -0.0234
   136 O7     4py       -0.0002   -0.0007    0.0010   -0.0000    0.0006    0.0001   -0.0016    0.0012   -0.0009   -0.0033
   137 O7     2pz       -0.0127   -0.0011   -0.0059   -0.0029    0.0243   -0.0207   -0.1606    0.0856   -0.0065   -0.1999
[...]
ATVX     1  Mu1.0001  Se1.059                       0.06070173      0.00075102     -0.00195325     -0.00000147
ATVX     1  Mu1.0002  Se1.059                       0.09794986     -0.00037971      0.00087748     -0.00000033
ATVX     1  Mu1.0001  Se1.060                       0.08587182     -0.00077965      0.00196830     -0.00000153
ATVX     1  Mu1.0002  Se1.060                       0.12311995      0.00006845     -0.00021719     -0.00000001
ATVX     1  Mu1.0001  Se1.061                       0.08886849      0.00296855     -0.00648076     -0.00001924
ATVX     1  Mu1.0002  Se1.061                       0.12611662      0.00017248     -0.00041969     -0.00000007
ATVX     1  Mu1.0001  Se1.062                       0.10464930     -0.00168319      0.00359010     -0.00000604
ATVX     1  Mu1.0002  Se1.062                       0.14189743     -0.00033115      0.00069522     -0.00000023
ATVX     1  Mu1.0001  Se1.063                       0.12154815     -0.00046253      0.00084725     -0.00000039
ATVX     1  Mu1.0002  Se1.063                       0.15879628     -0.00024934      0.00048793     -0.00000012
ATVX     1  Mu1.0001  Se1.064                       0.12630815      0.00321720     -0.00680705     -0.00002190
ATVX     1  Mu1.0002  Se1.064                       0.16355628     -0.00036732      0.00075586     -0.00000028
ATVX     1  Mu1.0001  Se1.065                       0.13874246     -0.00025557      0.00037589     -0.00000010
ATVX     1  Mu1.0002  Se1.065                       0.17599058     -0.00067385      0.00129385     -0.00000087
ATVX     1  Mu1.0001  Se1.066                       0.15277151      0.00247266     -0.00503799     -0.00001246
ATVX     1  Mu1.0002  Se1.066                       0.19001964      0.00044363     -0.00081653     -0.00000036
ATVX     1  Mu1.0001  Se1.067                       0.17184236     -0.00084349      0.00163906     -0.00000138
ATVX     1  Mu1.0002  Se1.067                       0.20909049      0.00086290     -0.00151868     -0.00000131
ATVX     1  Mu1.0001  Se1.068                       0.17782715     -0.00324048      0.00622916     -0.00002019
ATVX     1  Mu1.0002  Se1.068                       0.21507528     -0.00081008      0.00143822     -0.00000117
ATVX     1  Mu1.0001  Se1.069                       0.20011509      0.00077286     -0.00140909     -0.00000109
ATVX     1  Mu1.0002  Se1.069                       0.23736322     -0.00046854      0.00080695     -0.00000038
ATVX     1  Mu1.0001  Se1.070                       0.21932568     -0.00162285      0.00284050     -0.00000461
ATVX     1  Mu1.0002  Se1.070                       0.25657381      0.00095359     -0.00159779     -0.00000152
ATVX     1  Mu1.0001  Se1.071                       0.23486027      0.00381079     -0.00648683     -0.00002472
ATVX     1  Mu1.0002  Se1.071                       0.27210839      0.00025913     -0.00040023     -0.00000010
ATVX     1  Mu1.0001  Se1.072                       0.23811655     -0.00051846      0.00079716     -0.00000041
ATVX     1  Mu1.0002  Se1.072                       0.27536468      0.00088905     -0.00143918     -0.00000128
ATVX     1  Mu1.0001  Se1.073                       0.25940236     -0.00065240      0.00103059     -0.00000067
ATVX     1  Mu1.0002  Se1.073                       0.29665048     -0.00037434      0.00056471     -0.00000021
ATVX     1  Mu1.0001  Se1.074                       0.27251772     -0.00023701      0.00036827     -0.00000009
ATVX     1  Mu1.0001  Se1.075                       0.28589686     -0.00292282      0.00463538     -0.00001355
BVATP    1  Mu1.0001  Se1.038 Se1.038               0.23426084     -0.00007187      0.00008912     -0.00000001
BVATP    1  Mu1.0001  Se1.039 Se1.038               0.24888918      0.00002895     -0.00002088     -0.00000000
BVATP    1  Mu1.0001  Se1.039 Se1.039               0.26351752     -0.00000193     -0.00000318      0.00000000
BVATP    1  Mu1.0001  Se1.040 Se1.038               0.26165296      0.00007116     -0.00008729     -0.00000001
BVATP    1  Mu1.0001  Se1.040 Se1.039               0.27628130      0.00006994     -0.00010123     -0.00000001
BVATP    1  Mu1.0001  Se1.040 Se1.040               0.28904508      0.00024255     -0.00031820     -0.00000008
BVATP    1  Mu1.0001  Se1.041 Se1.038               0.27374535     -0.00002208      0.00005582     -0.00000000
BVATP    1  Mu1.0001  Se1.041 Se1.039               0.28837369      0.00000534     -0.00000904     -0.00000000
BVATP    1  Mu1.0001  Se1.042 Se1.038               0.26786919     -0.00012006      0.00016078     -0.00000002
BVATP    1  Mu1.0001  Se1.042 Se1.039               0.28249754      0.00000090      0.00001582      0.00000000
BVATP    1  Mu1.0001  Se1.042 Se1.040               0.29526131     -0.00001355      0.00001602     -0.00000000
BVATP    1  Mu1.0001  Se1.043 Se1.038               0.29127140      0.00002661     -0.00007302     -0.00000000
BVATP    1  Mu1.0001  Se1.044 Se1.038               0.29589081     -0.00000049      0.00001210     -0.00000000
--
 
   (Skipping property calculation,
    use PROP keyword to activate)
--
 
  Total CASPT2 energies:
::    CASPT2 Root  1     Total energy:   -455.37314557
::    CASPT2 Root  2     Total energy:   -455.16645616
::    CASPT2 Root  3     Total energy:   -455.16306415
::    CASPT2 Root  4     Total energy:   -455.12434773
::    CASPT2 Root  5     Total energy:   -455.12684307
::    CASPT2 Root  6     Total energy:   -454.98952833
::    CASPT2 Root  7     Total energy:   -454.96022789
 
++ Multi-State CASPT2 section:
********************************************************************************
  MULTI-STATE CASPT2 SECTION
--------------------------------------------------------------------------------
 
  Output diagonal energies have been shifted. Add   -455.000000000000     
 
  Effective Hamiltonian matrix (Symmetric):
 
                1               2               3               4               5
   1        -0.37314557
   2         0.00040953     -0.16645616
   3        -0.00018128      0.00002174     -0.16306415
   4         0.01725899      0.00051733      0.00070115     -0.12434773
   5        -0.03714814      0.00232427      0.00023402      0.00086495     -0.12684307
   6        -0.00155921      0.00012761     -0.00070788     -0.00040456     -0.00453969
   7        -0.00021013      0.00004972      0.00021916     -0.00003114      0.00002866
 
                6               7
   6         0.01047167
   7        -0.00788606      0.03977211
 
       Total MS-CASPT2 energies:
::    MS-CASPT2 Root  1     Total energy:   -455.37979944
::    MS-CASPT2 Root  2     Total energy:   -455.16657517
::    MS-CASPT2 Root  3     Total energy:   -455.16308062
::    MS-CASPT2 Root  4     Total energy:   -455.12414673
::    MS-CASPT2 Root  5     Total energy:   -455.12041001
::    MS-CASPT2 Root  6     Total energy:   -454.99136918
::    MS-CASPT2 Root  7     Total energy:   -454.95823176
 
       Eigenvectors:
            0.98708042      0.00959937     -0.00113970     -0.01713957     -0.15900866
           -0.00331864      0.99861891     -0.00083160      0.03854557      0.03553413
            0.00090398      0.00025526      0.99981776      0.01827221     -0.00348440
           -0.06716864     -0.01516999     -0.01739166      0.85715632     -0.51012471
            0.14531798     -0.04933613     -0.00667838      0.51261822      0.84412546
            0.00557884     -0.00194734      0.00381071      0.01978046      0.02580278
            0.00058421     -0.00030096     -0.00093475      0.00096676      0.00080526
 
           -0.00111613     -0.00016126
            0.00033626      0.00015814
           -0.00373772      0.00189443
           -0.00337733      0.00044287
           -0.03213103      0.00681186
            0.96887611     -0.24530103
            0.24539752      0.96942105
 
--
 
  THE ORIGINAL CI ARRAYS ARE NOW MIXED AS LINEAR
  COMBINATIONS, GIVEN BY THE EIGENVECTORS.
  A NEW JOBIPH FILE NAMED 'JOBMIX' IS PREPARED.
********************************************************************************
 
++ Mixed CI coefficients:
  The CI coefficients for the MIXED state nr.   1
--------------------------------------------------------------------------------
 CI COEFFICIENTS LARGER THAN  0.50D-01
  Occupation of active orbitals, and spin coupling
  of open shells. (u,d: Spin up or down).
  SGUGA info is (Midvert:IsyUp:UpperWalk/LowerWalk)
        Conf  SGUGA info        Occupation    Coefficient         Weight
           1  ( 1:1:   1/   1)   22222200        0.953170       0.908533
           4  ( 1:1:   4/   1)   22222020       -0.087649       0.007682
          42  ( 2:1:   2/   2)   22u22d20        0.065935       0.004347
          53  ( 2:1:  13/   2)   22u22d02       -0.063585       0.004043
          61  ( 2:1:   1/   3)   2u2222d0        0.111881       0.012517
          64  ( 2:1:   4/   3)   2u22220d       -0.092842       0.008620
          81  ( 2:1:   1/   4)   u22222d0        0.100179       0.010036
          84  ( 2:1:   4/   4)   u222220d        0.113998       0.012996
         145  ( 3:1:   5/   5)   22022202       -0.082969       0.006884
 
  The CI coefficients for the MIXED state nr.   2
--------------------------------------------------------------------------------
 CI COEFFICIENTS LARGER THAN  0.50D-01
  Occupation of active orbitals, and spin coupling
  of open shells. (u,d: Spin up or down).
  SGUGA info is (Midvert:IsyUp:UpperWalk/LowerWalk)
        Conf  SGUGA info        Occupation    Coefficient         Weight
           8  ( 1:1:   8/   1)   2222u20d        0.746100       0.556665
          12  ( 1:1:  12/   1)   2222uudd       -0.067897       0.004610
          13  ( 1:1:  13/   1)   2222u02d       -0.062302       0.003882
          16  ( 1:1:  16/   1)   2222ud02        0.052877       0.002796
          24  ( 2:1:   4/   1)   222u220d       -0.589007       0.346930
          27  ( 2:1:   7/   1)   222u2udd        0.060997       0.003721
          29  ( 2:1:   9/   1)   222u202d        0.050578       0.002558
          33  ( 2:1:  13/   1)   222u2d02       -0.050079       0.002508
          54  ( 2:1:  14/   2)   22u2d202        0.104109       0.010839
          68  ( 2:1:   8/   3)   2u22u2dd       -0.065759       0.004324
          74  ( 2:1:  14/   3)   2u22d202        0.053775       0.002892
          88  ( 2:1:   8/   4)   u222u2dd       -0.058745       0.003451
          94  ( 2:1:  14/   4)   u222d202       -0.072664       0.005280
         115  ( 3:1:   5/   2)   22ud2202       -0.096093       0.009234
         135  ( 3:1:   5/   4)   u22d2202        0.057375       0.003292
         207  ( 4:1:   1/   2)   2u2u22dd        0.052352       0.002741
 
  The CI coefficients for the MIXED state nr.   3
--------------------------------------------------------------------------------
 CI COEFFICIENTS LARGER THAN  0.50D-01
  Occupation of active orbitals, and spin coupling
  of open shells. (u,d: Spin up or down).
  SGUGA info is (Midvert:IsyUp:UpperWalk/LowerWalk)
        Conf  SGUGA info        Occupation    Coefficient         Weight
           2  ( 1:1:   2/   1)   22222ud0        0.082420       0.006793
           3  ( 1:1:   3/   1)   2222u2d0        0.614999       0.378224
           5  ( 1:1:   5/   1)   2222ud20        0.082595       0.006822
          21  ( 2:1:   1/   1)   222u22d0        0.706100       0.498577
          22  ( 2:1:   2/   1)   222u2d20        0.096094       0.009234
          26  ( 2:1:   6/   1)   222ud2ud        0.050888       0.002590
          41  ( 2:1:   1/   2)   22u222d0        0.112666       0.012694
          48  ( 2:1:   8/   2)   22u2u2dd       -0.066714       0.004451
          63  ( 2:1:   3/   3)   2u22d220       -0.053821       0.002897
          88  ( 2:1:   8/   4)   u222u2dd        0.058710       0.003447
         111  ( 3:1:   1/   2)   22ud2220       -0.059164       0.003500
         121  ( 3:1:   1/   3)   2u2d2220       -0.062135       0.003861
         131  ( 3:1:   1/   4)   u22d2220       -0.052400       0.002746
         147  ( 3:1:   7/   5)   2202u2d2       -0.054724       0.002995
         201  ( 4:1:   1/   1)   22uu22dd       -0.079649       0.006344
         207  ( 4:1:   1/   2)   2u2u22dd       -0.050162       0.002516
         213  ( 4:1:   1/   3)   u22u22dd        0.066091       0.004368
         250  ( 5:1:   2/   4)   220u22d2       -0.062726       0.003934
 
  The CI coefficients for the MIXED state nr.   4
--------------------------------------------------------------------------------
 CI COEFFICIENTS LARGER THAN  0.50D-01
  Occupation of active orbitals, and spin coupling
  of open shells. (u,d: Spin up or down).
  SGUGA info is (Midvert:IsyUp:UpperWalk/LowerWalk)
        Conf  SGUGA info        Occupation    Coefficient         Weight
           2  ( 1:1:   2/   1)   22222ud0       -0.529233       0.280087
           7  ( 1:1:   7/   1)   22222u0d        0.354238       0.125485
           8  ( 1:1:   8/   1)   2222u20d       -0.154294       0.023807
          24  ( 2:1:   4/   1)   222u220d       -0.217867       0.047466
          41  ( 2:1:   1/   2)   22u222d0        0.302761       0.091664
          44  ( 2:1:   4/   2)   22u2220d        0.539736       0.291315
          49  ( 2:1:   9/   2)   22u2202d       -0.065640       0.004309
          54  ( 2:1:  14/   2)   22u2d202        0.053270       0.002838
          61  ( 2:1:   1/   3)   2u2222d0       -0.054011       0.002917
          62  ( 2:1:   2/   3)   2u222d20        0.112992       0.012767
          64  ( 2:1:   4/   3)   2u22220d       -0.075069       0.005635
          82  ( 2:1:   2/   4)   u2222d20        0.089349       0.007983
          84  ( 2:1:   4/   4)   u222220d        0.081615       0.006661
          87  ( 2:1:   7/   4)   u2222udd       -0.098087       0.009621
          93  ( 2:1:  13/   4)   u2222d02       -0.063491       0.004031
         146  ( 3:1:   6/   5)   22022ud2        0.059216       0.003507
         151  ( 3:1:   1/   6)   2ud22220       -0.058960       0.003476
         155  ( 3:1:   5/   6)   2ud22202        0.093460       0.008735
         162  ( 3:1:   2/   7)   u2d222ud        0.054127       0.002930
         165  ( 3:1:   5/   7)   u2d22202       -0.120859       0.014607
         219  ( 4:1:   1/   4)   2uu222dd       -0.088362       0.007808
 
  The CI coefficients for the MIXED state nr.   5
--------------------------------------------------------------------------------
 CI COEFFICIENTS LARGER THAN  0.50D-01
  Occupation of active orbitals, and spin coupling
  of open shells. (u,d: Spin up or down).
  SGUGA info is (Midvert:IsyUp:UpperWalk/LowerWalk)
        Conf  SGUGA info        Occupation    Coefficient         Weight
           2  ( 1:1:   2/   1)   22222ud0        0.630877       0.398006
           4  ( 1:1:   4/   1)   22222020       -0.050332       0.002533
           7  ( 1:1:   7/   1)   22222u0d        0.270732       0.073296
           8  ( 1:1:   8/   1)   2222u20d       -0.166172       0.027613
           9  ( 1:1:   9/   1)   222220ud       -0.050353       0.002535
          24  ( 2:1:   4/   1)   222u220d       -0.232981       0.054280
          41  ( 2:1:   1/   2)   22u222d0       -0.273437       0.074768
          44  ( 2:1:   4/   2)   22u2220d        0.441518       0.194938
          45  ( 2:1:   5/   2)   22u22dud       -0.051263       0.002628
          47  ( 2:1:   7/   2)   22u22udd       -0.159189       0.025341
          49  ( 2:1:   9/   2)   22u2202d       -0.051556       0.002658
          61  ( 2:1:   1/   3)   2u2222d0        0.107756       0.011611
          62  ( 2:1:   2/   3)   2u222d20       -0.127605       0.016283
          64  ( 2:1:   4/   3)   2u22220d       -0.068071       0.004634
          67  ( 2:1:   7/   3)   2u222udd       -0.059508       0.003541
          81  ( 2:1:   1/   4)   u22222d0        0.072278       0.005224
          82  ( 2:1:   2/   4)   u2222d20       -0.099355       0.009871
          84  ( 2:1:   4/   4)   u222220d        0.068827       0.004737
          93  ( 2:1:  13/   4)   u2222d02       -0.056561       0.003199
         142  ( 3:1:   2/   5)   220222ud        0.051018       0.002603
         146  ( 3:1:   6/   5)   22022ud2       -0.066589       0.004434
         151  ( 3:1:   1/   6)   2ud22220        0.069584       0.004842
         155  ( 3:1:   5/   6)   2ud22202        0.076622       0.005871
         161  ( 3:1:   1/   7)   u2d22220        0.054511       0.002971
         165  ( 3:1:   5/   7)   u2d22202       -0.097263       0.009460
         166  ( 3:1:   6/   7)   u2d22ud2        0.056667       0.003211
 
  The CI coefficients for the MIXED state nr.   6
--------------------------------------------------------------------------------
 CI COEFFICIENTS LARGER THAN  0.50D-01
  Occupation of active orbitals, and spin coupling
  of open shells. (u,d: Spin up or down).
  SGUGA info is (Midvert:IsyUp:UpperWalk/LowerWalk)
        Conf  SGUGA info        Occupation    Coefficient         Weight
           3  ( 1:1:   3/   1)   2222u2d0        0.287359       0.082575
           8  ( 1:1:   8/   1)   2222u20d        0.058426       0.003414
          11  ( 1:1:  11/   1)   222202ud       -0.392420       0.153994
          21  ( 2:1:   1/   1)   222u22d0       -0.243726       0.059403
          24  ( 2:1:   4/   1)   222u220d        0.089416       0.007995
          26  ( 2:1:   6/   1)   222ud2ud       -0.094122       0.008859
          28  ( 2:1:   8/   1)   222uu2dd       -0.691891       0.478713
          31  ( 2:1:  11/   1)   222uud2d       -0.086009       0.007398
          44  ( 2:1:   4/   2)   22u2220d        0.063663       0.004053
         102  ( 3:1:   2/   1)   222022ud        0.362886       0.131686
         117  ( 3:1:   7/   2)   22udu2d2       -0.093488       0.008740
         137  ( 3:1:   7/   4)   u22du2d2        0.054433       0.002963
 
  The CI coefficients for the MIXED state nr.   7
--------------------------------------------------------------------------------
 CI COEFFICIENTS LARGER THAN  0.50D-01
  Occupation of active orbitals, and spin coupling
  of open shells. (u,d: Spin up or down).
  SGUGA info is (Midvert:IsyUp:UpperWalk/LowerWalk)
        Conf  SGUGA info        Occupation    Coefficient         Weight
           3  ( 1:1:   3/   1)   2222u2d0        0.057599       0.003318
          10  ( 1:1:  10/   1)   2222udud        0.157772       0.024892
          11  ( 1:1:  11/   1)   222202ud        0.535562       0.286826
          14  ( 1:1:  14/   1)   22220u2d        0.064502       0.004160
          25  ( 2:1:   5/   1)   222u2dud       -0.102664       0.010540
          26  ( 2:1:   6/   1)   222ud2ud        0.126214       0.015930
          28  ( 2:1:   8/   1)   222uu2dd       -0.537792       0.289220
          31  ( 2:1:  11/   1)   222uud2d       -0.079298       0.006288
          46  ( 2:1:   6/   2)   22u2d2ud        0.056384       0.003179
          48  ( 2:1:   8/   2)   22u2u2dd       -0.068383       0.004676
          58  ( 2:1:  18/   2)   22u202d2        0.073350       0.005380
         102  ( 3:1:   2/   1)   222022ud       -0.523887       0.274458
         103  ( 3:1:   3/   1)   22202u2d       -0.067788       0.004595
         117  ( 3:1:   7/   2)   22udu2d2       -0.070550       0.004977
         201  ( 4:1:   1/   1)   22uu22dd        0.074088       0.005489
         205  ( 4:1:   5/   1)   22uud2d2        0.057263       0.003279
         238  ( 5:1:   2/   1)   22u022d2       -0.071683       0.005138
 
--
 
--- Stop Module: caspt2 at Tue Jun 10 18:38:27 2025 /rc=_RC_ALL_IS_WELL_ ---
*** files: xmldump
    saved to directory /home/pcaah4/diamide_project
--- Module caspt2 spent 6 minutes 51 seconds ---

.##################.
.# Happy landing! #.
.##################.

    Timing: Wall=721.93 User=628.92 System=82.36
******************************************************
*** WorkDir at /srv/COMMUNAL_SCRATCH/12408 cleaned ***
******************************************************
