   This run of MOLCAS is using the pymolcas driver

                             OPE
                             OPE          NMOL  CASOP  ENMOLC A   SO
                 OPE        NMOLC        AS  OP EN  MO LC     AS  OP
                OPENM       OL CA        SO  PE NM  OL CA     SOP EN
                OP EN      MO   LC       AS  OP ENMOL  CASO   PENMOL
                OP  EN     MO   LC       AS  OP EN     MO     LC ASO
               OP   E  NMOL  C  AS       OP  EN MO     LC     AS  OP
               OP  E   NMO   LC AS        OPEN  MO     LCASOP EN   M
               O  PEN   MO  LCA  SO
            OPE   NMO   L   CAS    OP
        OPENMOL  CASOP     ENMOL   CASOPE
     OPENMOLCA   SOPENMOLCASOPEN   MOLCASOPE
    OPENMOLCAS   OP           EN   MOL    CAS
    OPENMOLCAS       OP  ENM        O     LCA
    OPENMOLCAS    OPEN  MOLCASO     P  E  NMO
    OPENMOLCAS     OP               E  N  MOL
    OPENMOLCA   SO           PENM   O  L  CAS    OPEN    MO    LCAS
    OPENMOLCA   SOP           ENM   O  L  CAS   OP  EN  MOLC  AS   O
    OPENMOLCA   SOPE           NM      O  LCA   S      OP  EN MO
    OPENMOLC                AS         O  PEN   M      OL  CA  SOPE
    OPENMO        LCASOPE  NMOL        C  ASO   P      ENMOLC     AS
    OPE     NMO      LCA  SO     P     E   NM   OL  CA SO  PE N   MO
          OPENMOLCA            SOPE   NMO        LCAS  O    P  ENMO
     OPENMOLCASOPENMOLCASOPENMOLCASOPENMOLCA
        OPENMOLCASOPENMOLCASOPENMOLCASOPE
            OPENMOLCASOPENMOLCASOPENM
               OPENMOLCASOPENMOLCA        version: v23.06
                   OPENMOLCASO
                       OPE                tag:

 OpenMolcas is free software; you can redistribute it and/or modify it
 under the terms of the GNU Lesser General Public License version 2.1.
 OpenMolcas is distributed in the hope that it will be useful, but it
 is provided "as is" and without any express or implied warranties.
 For more details see the full text of the license in the file
 LICENSE or in <http://www.gnu.org/licenses/>.

                 Copyright (C) The OpenMolcas Authors
           For the author list and the recommended citation,
                   consult the file CONTRIBUTORS.md

           *************************************************
           * pymolcas version py2.24                       *
           *   build 4567b286dd94b1984b333a4ddf893180      *
           *   (after the EMIL interpreter by V. Veryazov) *
           *************************************************

configuration info
------------------
Host name: loginchem01.nottingham.ac.uk (Linux)
C Compiler ID: Intel
C flags: -std=gnu99 -gcc-sys -qopenmp
Fortran Compiler ID: Intel
Fortran flags: -fpp -i8 -heap-arrays -qopenmp
Definitions: _MOLCAS_;_I8_;_LINUX_
Parallel: OFF (GA=OFF)


   ---------------------------------------------------------------------------------------------------
  |
  |              Project: orca_geometry_optimisation_240_15_BP86_def2-SVP_def2J_scf_cas1_ras12i11_cas8
  |       Submitted from: /home/pcaah4/diamide_project
  |         Scratch area: /srv/COMMUNAL_SCRATCH/12402
  |      Save outputs to: /home/pcaah4/diamide_project
  |               Molcas: /software/chemistry/openmolcas/openmolcas-23.06-openmp
  |
  | Scratch area is empty
  |
  |       MOLCAS_DRIVER = /software/chemistry/openmolcas/openmolcas-23.06-openmp/sbin/pymolcas
  | MOLCAS_KEEP_WORKDIR = NO
  |       MOLCAS_NPROCS = 1
  |       MOLCAS_SOURCE = /software/chemistry/openmolcas/openmolcas-23.06-openmp
  |    MOLCAS_STRUCTURE = 0
  |
   ---------------------------------------------------------------------------------------------------

++ ---------   Input file   ---------

&SEWARD
TITLE
orca_geometry_optimisation_240_15_BP86_def2-SVP_def2J_scf_cas1_ras12i11
MULTIPOLES
2
SDIPOLE
ANGMOM
0 0 0
BASIS SET
C.ANO-S...4S3P1D.
C1           -1.291832    0.052354   -2.127526 /Angstrom
C3           -0.192315    0.510313    0.052159 /Angstrom
C4            0.727412   -0.436909    0.846180 /Angstrom
C6            1.525889   -2.768079    1.048421 /Angstrom
C19          -2.522840   -0.549075   -2.796484 /Angstrom
END OF BASIS
BASIS SET
N.ANO-S...4S3P1D.
N2           -1.226197   -0.118803   -0.751389 /Angstrom
N5            0.677646   -1.750621    0.461408 /Angstrom
END OF BASIS
BASIS SET
O.ANO-S...4S3P1D.
O7           -0.418236    0.636326   -2.760473 /Angstrom
O8            1.443630   -0.002401    1.745760 /Angstrom
END OF BASIS
BASIS SET
H.ANO-S...2S1P.
H9           -2.192099   -1.204177   -3.626144 /Angstrom
H10          -3.114561    0.270284   -3.252209 /Angstrom
H11          -3.176987   -1.127610   -2.114551 /Angstrom
H12          -2.045291   -0.499250   -0.273491 /Angstrom
H13           0.442129    1.086536   -0.654670 /Angstrom
H14          -0.614549    1.231642    0.782888 /Angstrom
H15           0.074455   -1.977756   -0.332132 /Angstrom
H16           2.250367   -3.179614    0.312659 /Angstrom
H17           2.090715   -2.287451    1.870332 /Angstrom
H18           0.930832   -3.609518    1.463451 /Angstrom
END OF BASIS
END OF INPUT

&RASSCF
TITLE
orca_geometry_optimisation_240_15_BP86_def2-SVP_def2J_scf_cas1_ras12i11
LUMORB
SPIN
1
SYMMETRY
1
NACTEL
12  0  0
INACTIVE
29
DELETED  ! delete Rydberg orbitals from an initial CAS(12,11) if done
3
FROZEN
0
RAS2
8
ITERATIONS
64 25
CIROOT
7 7
1 2 3 4 5 6 7
1 1 1 1 1 1 1
LEVSHFT
0.3
CIMX
20
FILEorb = /home/pcaah4/diamide_project/cas/ras12i11/ras_orb/orca_geometry_optimisation_240_15_BP86_def2-SVP_def2J_scf_cas1_ras12i11.RasOrb
ALTEr
1
 1 37 38
END OF INPUT

&RASSI
NROF JOBIPH
    1 7
    1 2 3 5 4 6 7
TOFILE
TRDI
TDMN
1.0D-6
END OF INPUT

&CASPT2
TITLE
orca_geometry_optimisation_240_15_BP86_def2-SVP_def2J_scf_cas1_ras12i11
MULTISTATE
7 1 2 3 4 5 6 7
SHIFT
0.35
MAXITER
50
END OF INPUT

-- ----------------------------------

--- Start Module: seward at Tue Jun 10 18:09:35 2025 ---
 
()()()()()()()()()()()()()()()()()()()()()()()()()()()()()()()()()()()()()()()()()()()()()()()()()()

                                              &SEWARD

                                   only a single process is used
                       available to each process: 2.0 GB of memory, 1 thread
                                            pid: 3122138
()()()()()()()()()()()()()()()()()()()()()()()()()()()()()()()()()()()()()()()()()()()()()()()()()()
 
               SEWARD will generate:
                  Multipole Moment integrals up to order  2
                  Kinetic Energy integrals
                  Nuclear Attraction integrals (point charge)
                  One-Electron Hamiltonian integrals
                  Velocity integrals
                  Orbital angular momentum around ( 0.0000  0.0000  0.0000 )
                  Velocity quadrupole around (-0.2575 -0.9548 -0.8991 )
                  Two-Electron Repulsion integrals
 
 Title:
            orca_geometry_optimisation_240_15_BP86_def2-SVP_def2J_scf_cas1_ras12i11     
 
 
                   Integrals are discarded if absolute value <: 0.10E-13
                   Integral cutoff threshold is set to       <: 0.10E-15
 
++    Symmetry information:
      ---------------------
 
                    Character Table for C1 
 
                             E  
                    a        1  x, y, xy, Rz, z, xz, Ry, yz, Rx, I
--
 
 
++    Basis set information:
      ----------------------
 
 
      Basis set label: C.ANO-S...4S3P1D......
 
      Electronic valence basis set:
      ------------------
      Associated Effective Charge   6.000000 au
      Associated Actual Charge      6.000000 au
      Nuclear Model: Point charge
 
      Shell  nPrim  nBasis  Cartesian Spherical Contaminant
         s      10       4        X                  
         p       6       3        X                  
         d       3       1                 X         
 
 
      Basis set label: N.ANO-S...4S3P1D......
 
      Electronic valence basis set:
      ------------------
      Associated Effective Charge   7.000000 au
      Associated Actual Charge      7.000000 au
      Nuclear Model: Point charge
 
      Shell  nPrim  nBasis  Cartesian Spherical Contaminant
         s      10       4        X                  
         p       6       3        X                  
         d       3       1                 X         
 
 
      Basis set label: O.ANO-S...4S3P1D......
 
      Electronic valence basis set:
      ------------------
      Associated Effective Charge   8.000000 au
      Associated Actual Charge      8.000000 au
      Nuclear Model: Point charge
 
      Shell  nPrim  nBasis  Cartesian Spherical Contaminant
         s      10       4        X                  
         p       6       3        X                  
         d       3       1                 X         
 
 
      Basis set label: H.ANO-S...2S1P......
 
      Electronic valence basis set:
      ------------------
      Associated Effective Charge   1.000000 au
      Associated Actual Charge      1.000000 au
      Nuclear Model: Point charge
 
      Shell  nPrim  nBasis  Cartesian Spherical Contaminant
         s       7       2        X                  
         p       3       1        X                  
--
 
 
++    Molecular structure info:
      -------------------------
 
                    ************************************************ 
                    **** Cartesian Coordinates / Bohr, Angstrom **** 
                    ************************************************ 
 
     Center  Label                x              y              z                     x              y              z
        1      C1              -2.441209       0.098935      -4.020441             -1.291832       0.052354      -2.127526
        2      C3              -0.363423       0.964352       0.098566             -0.192315       0.510313       0.052159
        3      C4               1.374609      -0.825638       1.599048              0.727412      -0.436909       0.846180
        4      C6               2.883512      -5.230911       1.981229              1.525889      -2.768079       1.048421
        5      C19             -4.767477      -1.037601      -5.284589             -2.522840      -0.549075      -2.796484
        6      N2              -2.317177      -0.224505      -1.419919             -1.226197      -0.118803      -0.751389
        7      N5               1.280565      -3.308194       0.871935              0.677646      -1.750621       0.461408
        8      O7              -0.790351       1.202482      -5.216538             -0.418236       0.636326      -2.760473
        9      O8               2.728065      -0.004537       3.299008              1.443630      -0.002401       1.745760
       10      H9              -4.142467      -2.275565      -6.852419             -2.192099      -1.204177      -3.626144
       11      H10             -5.885667       0.510763      -6.145784             -3.114561       0.270284      -3.252209
       12      H11             -6.003635      -2.130874      -3.995922             -3.176987      -1.127610      -2.114551
       13      H12             -3.865040      -0.943446      -0.516823             -2.045291      -0.499250      -0.273491
       14      H13              0.835503       2.053255      -1.237147              0.442129       1.086536      -0.654670
       15      H14             -1.161329       2.327466       1.479444             -0.614549       1.231642       0.782888
       16      H15              0.140700      -3.737417      -0.627639              0.074455      -1.977756      -0.332132
       17      H16              4.252577      -6.008600       0.590840              2.250367      -3.179614       0.312659
       18      H17              3.950879      -4.322656       3.534415              2.090715      -2.287451       1.870332
       19      H18              1.759018      -6.821000       2.765522              0.930832      -3.609518       1.463451
 
                    ************************************************* 
                    **** InterNuclear Distances / Bohr, Angstrom **** 
                    ************************************************* 
 
     Atom centers         Bohr        Angstrom
   13 H12       6 N2      1.930891        1.021783
   16 H15       7 N5      1.931902        1.022319
   18 H17       4 C6      2.092030        1.107054
   10 H9        5 C19     2.093151        1.107648
   12 H11       5 C19     2.093799        1.107991
   11 H10       5 C19     2.095099        1.108679
   15 H14       2 C3      2.097989        1.110208
   14 H13       2 C3      2.099348        1.110927
   19 H18       4 C6      2.099521        1.111019
   17 H16       4 C6      2.100552        1.111564
    8 O7        1 C1      2.318144        1.226709
    9 O8        3 C4      2.322911        1.229231
    7 N5        3 C4      2.588556        1.369805
    6 N2        1 C1      2.623492        1.388292
    7 N5        4 C6      2.738031        1.448903
    6 N2        2 C3      2.745238        1.452718
    5 C19       1 C1      2.881199        1.524665
    3 C4        2 C3      2.911403        1.540648
   11 H10      10 H9      3.361800        1.778988
   15 H14      14 H13     3.382661        1.790027
   18 H17      17 H16     3.405593        1.802162
   19 H18      17 H16     3.406916        1.802862
   12 H11      11 H10     3.407942        1.803405
   19 H18      18 H17     3.411331        1.805199
   12 H11      10 H9      3.412398        1.805763
   16 H15       3 C4      3.867703        2.046700
   14 H13       6 N2      3.893711        2.060463
   18 H17       7 N5      3.904934        2.066402
   13 H12       1 C1      3.922906        2.075913
   19 H18       7 N5      4.019253        2.126897
   17 H16       7 N5      4.025427        2.130164
   15 H14       6 N2      4.031730        2.133500
   13 H12       2 C3      4.034813        2.135131
   15 H14       3 C4      4.048130        2.142178
   11 H10       1 C1      4.068290        2.152846
   10 H9        1 C1      4.068492        2.152953
   16 H15       4 C6      4.069365        2.153415
   14 H13       3 C4      4.077091        2.157504
   12 H11       1 C1      4.202801        2.224026
   13 H12      12 H11     4.252965        2.250572
    8 O7        6 N2      4.333797        2.293347
    9 O8        7 N5      4.347424        2.300557
   16 H15       6 N2      4.359979        2.307201
   14 H13       8 O7      4.382097        2.318906
   18 H17       9 O8      4.494089        2.378170
    9 O8        2 C3      4.553995        2.409871
    8 O7        5 C19     4.565099        2.415746
    7 N5        2 C3      4.642784        2.456856
    6 N2        5 C19     4.647662        2.459437
    4 C6        3 C4      4.672181        2.472412
   15 H14      13 H12     4.689776        2.481722
    2 C3        1 C1      4.693865        2.483886
   14 H13       1 C1      4.722598        2.499091
   18 H17       3 C4      4.755201        2.516344
   16 H15       2 C3      4.784156        2.531666
    6 N2        3 C4      4.806746        2.543621
   17 H16      16 H15     4.852886        2.568036
   13 H12       5 C19     4.853334        2.568274
   19 H18      16 H15     4.862199        2.572965
   12 H11       6 N2      4.884671        2.584857
   16 H15      13 H12     4.885131        2.585100
   15 H14       9 O8      4.886353        2.585747
   10 H9        8 O7      5.099960        2.698783
   11 H10       8 O7      5.225344        2.765133
    7 N5        6 N2      5.263600        2.785377
   14 H13       9 O8      5.328509        2.819726
    8 O7        2 C3      5.337537        2.824503
    9 O8        4 C6      5.392188        2.853423
   14 H13      13 H12     5.620870        2.974437
   13 H12       3 C4      5.651966        2.990891
--
 
 
            Nuclear Potential Energy            451.80368442 au
 
 
      Basis set specifications :
      Symmetry species         a  
      Basis functions          212
 
 
      Input file to MOLDEN was generated!
 
--- Stop Module: seward at Tue Jun 10 18:11:24 2025 /rc=_RC_ALL_IS_WELL_ ---
*** files: orca_geometry_optimisation_240_15_BP86_def2-SVP_def2J_scf_cas1_ras12i11_cas8.GssOrb
           orca_geometry_optimisation_240_15_BP86_def2-SVP_def2J_scf_cas1_ras12i11_cas8.guessorb.molden xmldump
    saved to directory /home/pcaah4/diamide_project
--- Module seward spent 1 minute 48 seconds ---

*** symbolic link created: INPORB -> orca_geometry_optimisation_240_15_BP86_def2-SVP_def2J_scf_cas1_ras12i11_cas8.GssOrb
--- Start Module: rasscf at Tue Jun 10 18:11:24 2025 ---
 
()()()()()()()()()()()()()()()()()()()()()()()()()()()()()()()()()()()()()()()()()()()()()()()()()()

                                              &RASSCF

                                   only a single process is used
                       available to each process: 2.0 GB of memory, 1 thread
                                            pid: 3122176
()()()()()()()()()()()()()()()()()()()()()()()()()()()()()()()()()()()()()()()()()()()()()()()()()()
 
 
      Header of the ONEINT file:
      --------------------------
      orca_geometry_optimisation_240_15_BP86_def2-SVP_def2J_scf_cas1_ras12i11
      Integrals generated by Gateway/Seward, Tue Jun 10 18:09:35 2025
 
 
      OrdInt status: non-squared
 
 
      Cartesian coordinates in Angstrom:
      -----------------------------------------------------
      No.  Label        X            Y            Z        
      -----------------------------------------------------
       1   C1        -1.29183200   0.05235400  -2.12752600
       2   C3        -0.19231500   0.51031300   0.05215900
       3   C4         0.72741200  -0.43690900   0.84618000
       4   C6         1.52588900  -2.76807900   1.04842100
       5   C19       -2.52284000  -0.54907500  -2.79648400
       6   N2        -1.22619700  -0.11880300  -0.75138900
       7   N5         0.67764600  -1.75062100   0.46140800
       8   O7        -0.41823600   0.63632600  -2.76047300
       9   O8         1.44363000  -0.00240100   1.74576000
      10   H9        -2.19209900  -1.20417700  -3.62614400
      11   H10       -3.11456100   0.27028400  -3.25220900
      12   H11       -3.17698700  -1.12761000  -2.11455100
      13   H12       -2.04529100  -0.49925000  -0.27349100
      14   H13        0.44212900   1.08653600  -0.65467000
      15   H14       -0.61454900   1.23164200   0.78288800
      16   H15        0.07445500  -1.97775600  -0.33213200
      17   H16        2.25036700  -3.17961400   0.31265900
      18   H17        2.09071500  -2.28745100   1.87033200
      19   H18        0.93083200  -3.60951800   1.46345100
      -----------------------------------------------------
      Nuclear repulsion energy =  451.80368442
 
++    Wave function specifications:
      -----------------------------
 
      Number of closed shell electrons          58
      Number of electrons in active shells      12
      Max number of holes in RAS1 space          0
      Max nr of electrons in RAS3 space          0
      Number of inactive orbitals               29
      Number of active orbitals                  8
      Number of secondary orbitals             172
      Spin quantum number                      0.0
      State symmetry                             1
--
 
++    Orbital specifications:
      -----------------------
 
      Symmetry species                           1
                                                 a
      Frozen orbitals                            0
      Inactive orbitals                         29
      Active orbitals                            8
      RAS1 orbitals                              0
      RAS2 orbitals                              8
      RAS3 orbitals                              0
      Secondary orbitals                       172
      Deleted orbitals                           3
      Number of basis functions                212
--
 
++    CI expansion specifications:
      ----------------------------
 
      Number of CSFs                           336
      Number of determinants                   406
      Number of root(s) required                 7
      Root chosen for geometry opt.              7
      CI roots used                              1     2     3     4     5     6     7
      weights                                0.143 0.143 0.143 0.143 0.143 0.143 0.143
      highest root included in the CI            7
      max. size of the explicit Hamiltonian    200
--
 
++    Optimization specifications:
      ----------------------------
 
      RASSCF algorithm: Conventional
      Maximum number of macro iterations        64
      Maximum number of SX iterations           25
      Threshold for RASSCF energy            0.100E-07
      Threshold for max MO rotation          0.100E+00
      Threshold for max BLB element          0.100E-03
      Level shift parameter                  0.300E+00
      Make Quasi-Newton update
--
 
      The MO-coefficients are taken from the file:
      /home/pcaah4/diamide_project/cas/ras12i11/ras_orb/orca_geometry_optimisation_240_15_BP86_def2-SVP_def2J_scf_cas1_ras12i11.RasOrb                                                                                                                                
      Title: RASSCF average (pseudo-natural) orbitals                                      
 
      Total molecular charge    0.00
 
      Molecular orbitals exchanged:
        In symmetry  1 :  37  38
 
 
      ************************************************************************************************************************
      *                                                                                                                      *
      *                                            Wave function control section                                             *
      *                                                                                                                      *
      ************************************************************************************************************************
 
 
                                         RASSCF iterations: Energy and convergence statistics
                                         ----------------------------------------------------
 
      Iter CI   SX   CI       RASSCF       Energy    max ROT     max BLB   max BLB  Level Ln srch  Step   QN   Walltime
          iter iter root      energy       change     param      element    value   shift minimum  type update hh:mm:ss
 Nr of preliminary CI iterations:   5
        1   1   12    0  -453.69099616    0.00E+00   0.34E-01   33  40 1 -0.17E-01*  0.16   0.00    SX    NO    0:00:13
        2   5   12    0  -453.69584647   -0.49E-02*  0.15E-01   33  40 1 -0.13E-01*  0.17   0.00    SX    NO    0:00:06
        3   4   12    0  -453.69708477   -0.12E-02* -0.98E-02   33  40 1 -0.60E-02*  0.17   0.00    SX    NO    0:00:06
        4   7   12    0  -453.69805579   -0.97E-03* -0.87E-02   35  39 1  0.28E-02*  0.18   0.00    SX    NO    0:00:06
        5   5   12    0  -453.69830012   -0.24E-03* -0.33E-01   22  66 1  0.18E-02*  0.18   1.40    QN   YES    0:00:06
        6   7   12    0  -453.69841385   -0.11E-03* -0.14E-01   22  63 1  0.33E-02*  0.19   0.62    QN   YES    0:00:07
        7   7   11    0  -453.69856697   -0.15E-03* -0.26E-02   22  63 1 -0.33E-02*  0.19   0.63    QN   YES    0:00:06
        8   5   11    0  -453.69862491   -0.58E-04* -0.38E-02   19  38 1 -0.60E-03*  0.19   2.50    LS   YES    0:00:06
        9   7   11    0  -453.69862825   -0.33E-05*  0.10E-02   22  76 1 -0.20E-02*  0.19   0.66    QN   YES    0:00:06
       10   7   10    0  -453.69864362   -0.15E-04*  0.43E-03   22  63 1 -0.13E-02*  0.19   0.58    LS   YES    0:00:06
       11   6   10    0  -453.69864740   -0.38E-05* -0.15E-02   22  97 1 -0.47E-03*  0.19   0.56    QN   YES    0:00:06
       12   5   10    0  -453.69865408   -0.67E-05*  0.79E-03   36  40 1 -0.20E-03*  0.19   1.19    QN   YES    0:00:06
       13   5    9    0  -453.69865615   -0.21E-05*  0.72E-03   31  39 1  0.13E-03*  0.19   1.35    QN   YES    0:00:06
       14   6    8    0  -453.69865691   -0.76E-06* -0.70E-04   19  38 1  0.43E-04   0.19   1.00    QN   YES    0:00:06
       15   3    7    0  -453.69865698   -0.66E-07* -0.32E-03   22  63 1 -0.68E-04   0.19   1.33    QN   YES    0:00:06
       16   5    8    0  -453.69865693    0.45E-07* -0.11E-03   35  39 1 -0.96E-04   0.19   0.49    LS   YES    0:00:06
       17   4    8    0  -453.69865702   -0.91E-07* -0.17E-03   22  63 1 -0.65E-04   0.19   2.50    LS   YES    0:00:07
       18   5    7    0  -453.69865700    0.18E-07*  0.11E-03   22  63 1 -0.97E-04   0.19   0.49    QN   YES    0:00:07
       19   4    7    0  -453.69865706   -0.60E-07* -0.45E-04   22  63 1 -0.32E-04   0.19   1.20    QN   YES    0:00:07
       20   1    7    0  -453.69865708   -0.17E-07* -0.44E-03   22  63 1 -0.40E-04   0.19   1.62    QN   YES    0:00:07
       21   5    8    0  -453.69865692    0.16E-06* -0.20E-03   22  63 1  0.95E-04   0.19   0.36    LS   YES    0:00:07
       22   4    7    0  -453.69865708   -0.16E-06* -0.29E-03   33  40 1  0.51E-04   0.19   2.50    LS   YES    0:00:07
       23   5    8    0  -453.69865705    0.25E-07* -0.15E-03   22  63 1 -0.78E-04   0.19   0.52    QN   YES    0:00:07
       24   4    7    0  -453.69865711   -0.57E-07* -0.35E-04   17  67 1 -0.80E-05   0.19   0.86    QN   YES    0:00:06
       25   1    6    0  -453.69865711    0.50E-09  -0.55E-05   22  63 1 -0.20E-04   0.19   0.34    QN   YES    0:00:06
      Convergence after 25 iterations
       26   1    6    0  -453.69865711   -0.16E-08  -0.55E-05   22  63 1 -0.16E-04   0.19   0.34    QN   YES    0:00:06
 
      ************************************************************************************************************************
                                                      Wave function printout:
                       occupation of active orbitals, and spin coupling of open shells (u,d: Spin up or down)
      ************************************************************************************************************************
 
      Note: transformation to natural orbitals
      has been made, which may change the order of the CSFs.
 
      printout of CI-coefficients larger than  0.05 for root  1
      energy=    -453.960496
      conf/sym  11111111     Coeff  Weight
             1  22222200  -0.95787 0.91752
             4  22222020   0.08360 0.00699
             8  2222u20d  -0.15356 0.02358
            17  22220202   0.07181 0.00516
            61  2u2222d0   0.09686 0.00938
            84  u222220d  -0.08098 0.00656
            94  u222d202   0.06647 0.00442
           171  20222220   0.07790 0.00607
           195  02222202   0.09509 0.00904
 
      printout of CI-coefficients larger than  0.05 for root  2
      energy=    -453.752616
      conf/sym  11111111     Coeff  Weight
            24  222u220d  -0.95789 0.91756
            29  222u202d   0.08334 0.00695
            34  222ud202   0.08717 0.00760
           115  22ud2202   0.10828 0.01172
           135  u22d2202   0.17909 0.03207
           207  2u2u22dd  -0.08347 0.00697
           261  202u222d  -0.07791 0.00607
 
      printout of CI-coefficients larger than  0.05 for root  3
      energy=    -453.736867
      conf/sym  11111111     Coeff  Weight
             2  22222ud0   0.19418 0.03770
             3  2222u2d0  -0.36726 0.13488
             4  22222020   0.05882 0.00346
            41  22u222d0   0.85267 0.72704
            42  22u22d20   0.14659 0.02149
            46  22u2d2ud   0.07431 0.00552
            48  22u2u2dd  -0.10382 0.01078
            58  22u202d2   0.07650 0.00585
            81  u22222d0  -0.05227 0.00273
           141  22022220  -0.05316 0.00283
           151  2ud22220   0.11706 0.01370
           225  u2u222dd   0.05943 0.00353
           229  u2u2d2d2  -0.05152 0.00265
           302  02u222d2  -0.08413 0.00708
 
      printout of CI-coefficients larger than  0.05 for root  4
      energy=    -453.639773
      conf/sym  11111111     Coeff  Weight
             2  22222ud0   0.91335 0.83421
             8  2222u20d   0.05971 0.00357
            10  2222udud   0.06361 0.00405
            12  2222uudd   0.12227 0.01495
            19  22220ud2  -0.07120 0.00507
            41  22u222d0  -0.18941 0.03588
            61  2u2222d0  -0.07226 0.00522
            62  2u222d20   0.23042 0.05309
            87  u2222udd   0.07107 0.00505
            96  u222dud2  -0.06176 0.00381
           151  2ud22220  -0.05182 0.00269
           171  20222220   0.05521 0.00305
           196  02222ud2  -0.09025 0.00815
 
      printout of CI-coefficients larger than  0.05 for root  5
      energy=    -453.623230
      conf/sym  11111111     Coeff  Weight
             1  22222200  -0.14191 0.02014
             2  22222ud0  -0.05632 0.00317
             8  2222u20d   0.87736 0.76975
            13  2222u02d  -0.07739 0.00599
            17  22220202   0.17037 0.02902
            21  222u22d0   0.21597 0.04664
            26  222ud2ud  -0.06200 0.00384
            28  222uu2dd   0.08398 0.00705
            44  22u2220d   0.10926 0.01194
            61  2u2222d0   0.06968 0.00486
            66  2u22d2ud  -0.05171 0.00267
            68  2u22u2dd   0.08522 0.00726
            94  u222d202  -0.22108 0.04888
           165  u2d22202  -0.05802 0.00337
           174  2022u22d   0.07115 0.00506
           195  02222202  -0.08734 0.00763
 
      printout of CI-coefficients larger than  0.05 for root  6
      energy=    -453.596797
      conf/sym  11111111     Coeff  Weight
             3  2222u2d0   0.86795 0.75334
             5  2222ud20  -0.08021 0.00643
            21  222u22d0   0.06325 0.00400
            41  22u222d0   0.35571 0.12653
            46  22u2d2ud   0.05003 0.00250
            81  u22222d0  -0.06692 0.00448
            86  u222d2ud  -0.15543 0.02416
            88  u222u2dd   0.20811 0.04331
           197  0222u2d2  -0.12084 0.01460
 
      printout of CI-coefficients larger than  0.05 for root  7
      energy=    -453.580821
      conf/sym  11111111     Coeff  Weight
             3  2222u2d0   0.08337 0.00695
             8  2222u20d   0.20789 0.04322
            17  22220202   0.06025 0.00363
            21  222u22d0  -0.80661 0.65063
            26  222ud2ud   0.25520 0.06513
            28  222uu2dd  -0.32758 0.10731
            44  22u2220d   0.09955 0.00991
            61  2u2222d0   0.06051 0.00366
            94  u222d202  -0.05248 0.00275
           112  22ud22ud  -0.18224 0.03321
           201  22uu22dd  -0.17692 0.03130
           202  22uu2d2d  -0.05263 0.00277
           217  u22ud2d2  -0.07477 0.00559
           250  220u22d2   0.05371 0.00288
           258  u2du22d2   0.05976 0.00357
           270  022u22d2   0.06611 0.00437
 
      Natural orbitals and occupation numbers for root  1
      sym 1:   1.996812   1.969090   1.999827   1.999630   1.951285   1.994420   0.036822   0.052115
 
      Natural orbitals and occupation numbers for root  2
      sym 1:   1.999978   1.969608   1.999805   1.003738   1.999897   1.994235   0.036294   0.996445
 
      Natural orbitals and occupation numbers for root  3
      sym 1:   1.995399   1.999881   1.003073   1.999717   1.950652   1.998733   0.999889   0.052657
 
      Natural orbitals and occupation numbers for root  4
      sym 1:   1.994428   1.984960   1.999279   1.999602   1.948114   1.074413   0.941312   0.057891
 
      Natural orbitals and occupation numbers for root  5
      sym 1:   1.968980   1.994695   1.996114   1.942621   1.063984   1.963723   0.093433   0.976450
 
      Natural orbitals and occupation numbers for root  6
      sym 1:   1.898578   1.999457   1.978054   1.997775   1.019305   1.992577   1.007013   0.107240
 
      Natural orbitals and occupation numbers for root  7
      sym 1:   1.989825   1.997077   1.947444   1.161858   1.869812   1.985374   0.858794   0.189817
 
      ************************************************************************************************************************
      *                                                                                                                      *
      *                                                    Final results                                                     *
      *                                                                                                                      *
      ************************************************************************************************************************
 
 
++    Wave function specifications:
      -----------------------------
 
      Number of closed shell electrons          58
      Number of electrons in active shells      12
      Max number of holes in RAS1 space          0
      Max nr of electrons in RAS3 space          0
      Number of inactive orbitals               29
      Number of active orbitals                  8
      Number of secondary orbitals             172
      Spin quantum number                      0.0
      State symmetry                             1
--
 
++    Orbital specifications:
      -----------------------
 
      Symmetry species                           1
                                                 a
      Frozen orbitals                            0
      Inactive orbitals                         29
      Active orbitals                            8
      RAS1 orbitals                              0
      RAS2 orbitals                              8
      RAS3 orbitals                              0
      Secondary orbitals                       172
      Deleted orbitals                           3
      Number of basis functions                212
--
 
++    CI expansion specifications:
      ----------------------------
 
      Number of CSFs                           336
      Number of determinants                   406
      Number of root(s) required                 7
      CI roots used                              1     2     3     4     5     6     7
      weights                                0.143 0.143 0.143 0.143 0.143 0.143 0.143
      highest root included in the CI            7
      Root passed to geometry opt.               7
--
 
++    Final optimization conditions:
      ------------------------------
 
      Average CI energy                            -453.69865711
      RASSCF energy for state  7                   -453.58082101
      Super-CI energy                                -0.00000000
      RASSCF energy change                            0.00000000
      Max change in MO coefficients               0.143E-04
      Max non-diagonal density matrix element    -0.548E-05
      Maximum BLB matrix element                 -0.160E-04
      (orbital pair  22,  63 in symmetry   1)
      Norm of electronic gradient            0.285E+00
--
 
 
      Final state energy(ies):
      ------------------------
 
::    RASSCF root number  1 Total energy:   -453.96049571
::    RASSCF root number  2 Total energy:   -453.75261587
::    RASSCF root number  3 Total energy:   -453.73686728
::    RASSCF root number  4 Total energy:   -453.63977281
::    RASSCF root number  5 Total energy:   -453.62323043
::    RASSCF root number  6 Total energy:   -453.59679669
::    RASSCF root number  7 Total energy:   -453.58082101
 
++    Molecular orbitals:
      -------------------
 
      Pseudonatural active orbitals and approximate occupation numbers
 
 
 
 
      Molecular orbitals for symmetry species 1: a  
 
 
      Orbital                 1         2         3         4         5         6         7         8         9        10
      Energy           -20.6064  -20.5157  -15.6490  -15.5776  -11.3490  -11.2862  -11.2798  -11.2686  -11.2597   -1.4329
      Occ. No.           2.0000    2.0000    2.0000    2.0000    2.0000    2.0000    2.0000    2.0000    2.0000    2.0000
 
     1 C1     1s         0.0003    0.0000    0.0003   -0.0001    1.0000    0.0001   -0.0000    0.0038    0.0000   -0.0400
     2 C1     2s         0.0007    0.0003    0.0012   -0.0004    0.0025   -0.0006   -0.0001    0.0002    0.0001    0.3495
     3 C1     3s        -0.0006    0.0002    0.0005   -0.0003    0.0001   -0.0006   -0.0002    0.0005    0.0001   -0.0095
     4 C1     4s        -0.0004    0.0000    0.0001   -0.0001    0.0014   -0.0003   -0.0001    0.0002    0.0000    0.0020
     5 C1     2px        0.0025   -0.0003    0.0000   -0.0002    0.0010    0.0001   -0.0005    0.0005   -0.0002    0.0825
     6 C1     3px        0.0017   -0.0002    0.0001   -0.0002    0.0009   -0.0003   -0.0005   -0.0002   -0.0002   -0.0611
     7 C1     4px       -0.0004    0.0001    0.0000   -0.0001    0.0007   -0.0003   -0.0001   -0.0003   -0.0000    0.0195
     8 C1     2py        0.0016   -0.0001   -0.0001   -0.0001    0.0003    0.0000   -0.0002    0.0003   -0.0000    0.0533
     9 C1     3py        0.0011   -0.0001   -0.0001   -0.0001    0.0002   -0.0002   -0.0003   -0.0000   -0.0001   -0.0376
    10 C1     4py       -0.0002   -0.0000   -0.0000   -0.0000    0.0002   -0.0002   -0.0001   -0.0001   -0.0000    0.0131
    11 C1     2pz       -0.0012   -0.0000    0.0017   -0.0005    0.0016    0.0002   -0.0005    0.0002   -0.0001   -0.0496
    12 C1     3pz       -0.0008   -0.0001    0.0012   -0.0007    0.0019   -0.0002   -0.0006   -0.0004   -0.0001    0.0163
    13 C1     4pz        0.0001   -0.0001   -0.0001   -0.0001    0.0006   -0.0003   -0.0001   -0.0003   -0.0000   -0.0147
    14 C1     3d2-      -0.0001   -0.0000   -0.0000   -0.0000    0.0004    0.0000   -0.0000    0.0001   -0.0000    0.0279
    15 C1     3d1-       0.0000    0.0000    0.0001   -0.0000   -0.0002   -0.0000    0.0000   -0.0001    0.0000   -0.0198
    16 C1     3d0        0.0001    0.0000   -0.0002   -0.0000    0.0001    0.0001   -0.0000    0.0001    0.0000    0.0021
    17 C1     3d1+       0.0001   -0.0000    0.0001   -0.0000   -0.0003    0.0000   -0.0000   -0.0000   -0.0000   -0.0261
    18 C1     3d2+       0.0000   -0.0000    0.0000   -0.0000    0.0002    0.0000   -0.0000    0.0000    0.0000    0.0123
    19 C3     1s         0.0001    0.0000    0.0004    0.0000   -0.0002    0.9985   -0.0439    0.0000   -0.0000   -0.0082
    20 C3     2s         0.0007    0.0002    0.0019    0.0003   -0.0004   -0.0017    0.0002   -0.0004    0.0004    0.0202
    21 C3     3s         0.0005    0.0001    0.0009    0.0002   -0.0003   -0.0028   -0.0001   -0.0002    0.0002   -0.0158
    22 C3     4s         0.0001   -0.0000    0.0001   -0.0000   -0.0001    0.0007   -0.0001   -0.0000    0.0000   -0.0020
    23 C3     2px        0.0001   -0.0001   -0.0003    0.0004    0.0003   -0.0006    0.0001   -0.0001   -0.0002   -0.0180
    24 C3     3px        0.0001   -0.0002    0.0002    0.0004    0.0004   -0.0004   -0.0004   -0.0002   -0.0004   -0.0091
    25 C3     4px        0.0000   -0.0001    0.0002   -0.0000    0.0001   -0.0006   -0.0002   -0.0001   -0.0002   -0.0048
    26 C3     2py       -0.0002   -0.0004   -0.0007    0.0002   -0.0001   -0.0001    0.0002    0.0002   -0.0002   -0.0025
    27 C3     3py       -0.0002   -0.0002   -0.0004    0.0003   -0.0003   -0.0001    0.0005    0.0001   -0.0003    0.0076
    28 C3     4py        0.0000    0.0002    0.0001    0.0001   -0.0001   -0.0006    0.0001   -0.0000   -0.0000   -0.0001
    29 C3     2pz       -0.0003   -0.0009   -0.0005    0.0006    0.0007   -0.0010    0.0001   -0.0004   -0.0003   -0.0200
    30 C3     3pz       -0.0002   -0.0010   -0.0002    0.0006    0.0011   -0.0012   -0.0003   -0.0005   -0.0006   -0.0077
    31 C3     4pz        0.0001   -0.0001    0.0001   -0.0000    0.0003   -0.0007   -0.0001   -0.0001   -0.0002   -0.0056
    32 C3     3d2-       0.0000    0.0000   -0.0001   -0.0000    0.0000   -0.0000   -0.0000   -0.0000   -0.0001    0.0016
    33 C3     3d1-       0.0000   -0.0000   -0.0000    0.0000    0.0000    0.0000   -0.0001   -0.0000   -0.0000    0.0013
    34 C3     3d0        0.0000   -0.0001   -0.0000    0.0000    0.0001    0.0001    0.0000    0.0000   -0.0000    0.0007
    35 C3     3d1+       0.0000   -0.0000    0.0000    0.0001    0.0000   -0.0001   -0.0001   -0.0000    0.0000    0.0033
    36 C3     3d2+       0.0000   -0.0001   -0.0000   -0.0000    0.0000   -0.0000    0.0001   -0.0000   -0.0000    0.0013
    37 C4     1s         0.0000    0.0003   -0.0002    0.0001   -0.0001    0.0440    0.9990   -0.0000    0.0005   -0.0005
    38 C4     2s         0.0002    0.0009   -0.0015    0.0003   -0.0006    0.0011    0.0026    0.0002    0.0003    0.0179
    39 C4     3s         0.0002   -0.0005   -0.0011   -0.0001   -0.0006    0.0004    0.0001    0.0001    0.0001    0.0042
    40 C4     4s         0.0000   -0.0004   -0.0003   -0.0000   -0.0002    0.0001    0.0014    0.0000   -0.0000    0.0020
    41 C4     2px       -0.0001    0.0018    0.0002    0.0003    0.0001   -0.0009    0.0001   -0.0001   -0.0000    0.0002
    42 C4     3px       -0.0001    0.0013    0.0001    0.0002    0.0002   -0.0003    0.0000   -0.0000   -0.0003    0.0011
    43 C4     4px        0.0000   -0.0002   -0.0000   -0.0001    0.0001    0.0002    0.0002    0.0000   -0.0002   -0.0007
    44 C4     2py       -0.0001    0.0010    0.0002   -0.0016   -0.0001    0.0010   -0.0008    0.0004    0.0004    0.0066
    45 C4     3py       -0.0002    0.0007    0.0002   -0.0012   -0.0002    0.0012   -0.0004    0.0005    0.0010    0.0081
    46 C4     4py       -0.0001   -0.0000    0.0000    0.0001   -0.0000    0.0003   -0.0002    0.0001    0.0005    0.0023
    47 C4     2pz       -0.0001    0.0025    0.0003   -0.0001   -0.0001   -0.0005   -0.0001    0.0001    0.0001    0.0022
    48 C4     3pz       -0.0000    0.0018    0.0003   -0.0001   -0.0001    0.0001   -0.0000    0.0001   -0.0001    0.0031
    49 C4     4pz        0.0000   -0.0002    0.0000   -0.0000    0.0000    0.0003    0.0001    0.0000   -0.0001   -0.0004
    50 C4     3d2-      -0.0000   -0.0001    0.0000   -0.0001   -0.0000   -0.0000    0.0002    0.0000   -0.0000    0.0002
    51 C4     3d1-      -0.0000   -0.0001    0.0000   -0.0002   -0.0000   -0.0001    0.0003    0.0000    0.0000    0.0006
    52 C4     3d0        0.0000   -0.0001   -0.0000    0.0001   -0.0000   -0.0000    0.0000    0.0000   -0.0000    0.0004
    53 C4     3d1+       0.0000   -0.0001    0.0000   -0.0000   -0.0000   -0.0000    0.0003    0.0000    0.0000    0.0010
    54 C4     3d2+       0.0000   -0.0001   -0.0000    0.0002    0.0000    0.0000   -0.0001    0.0000   -0.0001    0.0000
    55 C6     1s        -0.0001    0.0001   -0.0001    0.0005   -0.0002    0.0000   -0.0005    0.0001    0.9996    0.0034
    56 C6     2s        -0.0008    0.0004   -0.0004    0.0024   -0.0012    0.0000    0.0000    0.0006   -0.0008    0.0267
    57 C6     3s        -0.0006    0.0003   -0.0003    0.0010   -0.0010    0.0001   -0.0001    0.0005   -0.0022    0.0199
    58 C6     4s        -0.0002    0.0001   -0.0001    0.0001   -0.0003    0.0001   -0.0001    0.0001    0.0007    0.0054
    59 C6     2px        0.0002   -0.0001    0.0000   -0.0004    0.0003   -0.0001    0.0001   -0.0001   -0.0000   -0.0059
    60 C6     3px        0.0002   -0.0001    0.0000   -0.0000    0.0003   -0.0001    0.0001   -0.0001    0.0002   -0.0051
    61 C6     4px       -0.0000   -0.0000    0.0000    0.0001   -0.0000    0.0000   -0.0000    0.0000   -0.0004   -0.0000
    62 C6     2py       -0.0002    0.0004   -0.0001    0.0005   -0.0003    0.0002   -0.0003    0.0001   -0.0002    0.0073
    63 C6     3py       -0.0002    0.0003   -0.0001   -0.0001   -0.0003    0.0001   -0.0005    0.0002   -0.0003    0.0071
    64 C6     4py        0.0000   -0.0000    0.0000   -0.0002   -0.0000   -0.0001   -0.0002    0.0000    0.0005    0.0007
    65 C6     2pz        0.0001    0.0002   -0.0001   -0.0003   -0.0000   -0.0001   -0.0000   -0.0000   -0.0001   -0.0015
    66 C6     3pz        0.0001    0.0001   -0.0001    0.0000   -0.0000   -0.0001   -0.0001    0.0000    0.0002   -0.0007
    67 C6     4pz        0.0000   -0.0001    0.0000    0.0001    0.0000   -0.0000   -0.0000    0.0000   -0.0003    0.0002
    68 C6     3d2-       0.0000   -0.0000   -0.0000    0.0001   -0.0000   -0.0000   -0.0000    0.0000    0.0001   -0.0001
    69 C6     3d1-       0.0000   -0.0000   -0.0000    0.0000    0.0000   -0.0000    0.0000   -0.0000    0.0001   -0.0002
    70 C6     3d0        0.0000   -0.0000   -0.0000    0.0000    0.0000   -0.0000   -0.0000    0.0000   -0.0000   -0.0001
    71 C6     3d1+      -0.0000    0.0000    0.0000   -0.0001   -0.0000    0.0000   -0.0000    0.0000   -0.0001    0.0002
    72 C6     3d2+       0.0000   -0.0000    0.0000   -0.0000   -0.0000   -0.0000   -0.0001    0.0000   -0.0000    0.0000
    73 C19    1s         0.0002   -0.0000   -0.0000   -0.0000    0.0037    0.0002   -0.0001   -0.9999   -0.0000   -0.0142
    74 C19    2s         0.0012    0.0000   -0.0002   -0.0001    0.0002    0.0007   -0.0004   -0.0018   -0.0003   -0.0105
    75 C19    3s         0.0007    0.0001   -0.0000   -0.0001    0.0001    0.0004   -0.0003    0.0005   -0.0002   -0.0390
    76 C19    4s         0.0001    0.0000   -0.0000   -0.0000    0.0001   -0.0000   -0.0001   -0.0013   -0.0001   -0.0041
    77 C19    2px       -0.0001   -0.0000    0.0002    0.0001    0.0003    0.0001   -0.0001    0.0002   -0.0001    0.0179
    78 C19    3px       -0.0002   -0.0000    0.0001    0.0001   -0.0001   -0.0000   -0.0001   -0.0000   -0.0001   -0.0065
    79 C19    4px       -0.0001    0.0000   -0.0001   -0.0000   -0.0001   -0.0001    0.0000   -0.0003    0.0000    0.0046
    80 C19    2py       -0.0002    0.0001    0.0003   -0.0002    0.0004    0.0002   -0.0001    0.0000    0.0000    0.0091
    81 C19    3py       -0.0003    0.0001    0.0003   -0.0003    0.0002    0.0002   -0.0001   -0.0001    0.0000   -0.0046
    82 C19    4py       -0.0000   -0.0000   -0.0000   -0.0000   -0.0000   -0.0000   -0.0000   -0.0002   -0.0000    0.0017
    83 C19    2pz        0.0008    0.0001   -0.0003    0.0001   -0.0002    0.0002   -0.0000    0.0001   -0.0000   -0.0092
    84 C19    3pz        0.0005    0.0001   -0.0003    0.0001   -0.0004    0.0002    0.0000    0.0001   -0.0000   -0.0074
    85 C19    4pz       -0.0002    0.0000   -0.0000    0.0000   -0.0000   -0.0000    0.0000   -0.0002    0.0000    0.0080
    86 C19    3d2-       0.0000   -0.0000    0.0001    0.0000   -0.0000    0.0000   -0.0000    0.0001   -0.0000    0.0018
    87 C19    3d1-       0.0000   -0.0000   -0.0000    0.0000    0.0000    0.0000    0.0000    0.0001   -0.0000    0.0018
    88 C19    3d0        0.0001   -0.0000    0.0000    0.0000   -0.0001   -0.0000    0.0000   -0.0000   -0.0000   -0.0065
    89 C19    3d1+       0.0001   -0.0000   -0.0000    0.0000    0.0000    0.0001    0.0000    0.0001   -0.0000    0.0001
    90 C19    3d2+       0.0000    0.0000    0.0000    0.0000   -0.0000    0.0000   -0.0000    0.0001   -0.0000    0.0015
    91 N2     1s         0.0001   -0.0001    0.9998    0.0001   -0.0002    0.0001    0.0001   -0.0001    0.0000   -0.0169
    92 N2     2s         0.0004   -0.0003    0.0001    0.0004   -0.0001    0.0014    0.0004   -0.0005    0.0000    0.1164
    93 N2     3s         0.0003   -0.0001   -0.0013    0.0003   -0.0002    0.0007    0.0003   -0.0004    0.0001   -0.0457
    94 N2     4s         0.0001    0.0000    0.0004    0.0001    0.0001    0.0002    0.0001   -0.0001    0.0000   -0.0113
    95 N2     2px       -0.0015    0.0003   -0.0008    0.0000    0.0006    0.0008    0.0001    0.0001    0.0001    0.0280
    96 N2     3px       -0.0018    0.0004   -0.0000   -0.0001    0.0007    0.0009    0.0001    0.0000    0.0002    0.0118
    97 N2     4px       -0.0000    0.0001    0.0003   -0.0001    0.0000    0.0003   -0.0001   -0.0001    0.0000   -0.0061
    98 N2     2py       -0.0007   -0.0000   -0.0004    0.0004    0.0000    0.0001    0.0002    0.0001   -0.0003    0.0262
    99 N2     3py       -0.0008   -0.0001   -0.0004    0.0005   -0.0001   -0.0000    0.0001    0.0001   -0.0005    0.0090
   100 N2     4py        0.0000   -0.0000    0.0003    0.0001   -0.0001    0.0000   -0.0000   -0.0000   -0.0001   -0.0008
   101 N2     2pz        0.0002    0.0005    0.0005   -0.0002   -0.0001    0.0009   -0.0000    0.0003    0.0001   -0.0300
   102 N2     3pz        0.0002    0.0008    0.0005   -0.0002    0.0001    0.0008   -0.0001    0.0003    0.0000    0.0142
   103 N2     4pz        0.0000    0.0001   -0.0002    0.0000   -0.0002   -0.0000   -0.0001   -0.0001   -0.0000   -0.0054
   104 N2     3d2-       0.0000   -0.0000    0.0000   -0.0000   -0.0001   -0.0001    0.0000   -0.0000    0.0000    0.0003
   105 N2     3d1-       0.0000    0.0000   -0.0001    0.0000   -0.0000   -0.0000   -0.0000    0.0000    0.0000   -0.0023
   106 N2     3d0       -0.0000    0.0000   -0.0001    0.0000   -0.0000   -0.0000   -0.0000   -0.0001   -0.0000    0.0049
   107 N2     3d1+       0.0001    0.0000   -0.0002    0.0000   -0.0001   -0.0000    0.0000    0.0000    0.0000   -0.0021
   108 N2     3d2+       0.0000   -0.0000    0.0000   -0.0000   -0.0001    0.0000    0.0000   -0.0000    0.0000   -0.0008
   109 N5     1s         0.0000    0.0001   -0.0000    0.9999    0.0001   -0.0000   -0.0002   -0.0000    0.0002   -0.0023
   110 N5     2s         0.0002    0.0010    0.0002    0.0006    0.0006    0.0000   -0.0001   -0.0003    0.0020   -0.0031
   111 N5     3s         0.0002    0.0007    0.0002   -0.0011    0.0004    0.0001   -0.0003   -0.0002    0.0012   -0.0077
   112 N5     4s         0.0000    0.0001    0.0001    0.0006    0.0001    0.0000    0.0001   -0.0000    0.0004   -0.0013
   113 N5     2px        0.0003   -0.0010    0.0003   -0.0011    0.0003    0.0002    0.0001   -0.0000    0.0008   -0.0093
   114 N5     3px        0.0005   -0.0011    0.0005   -0.0011    0.0006    0.0003   -0.0000   -0.0002    0.0010   -0.0155
   115 N5     4px        0.0000    0.0000    0.0001    0.0002    0.0001    0.0001   -0.0001   -0.0001    0.0003   -0.0034
   116 N5     2py       -0.0003    0.0001   -0.0000    0.0003   -0.0006   -0.0001    0.0001    0.0003   -0.0011    0.0154
   117 N5     3py       -0.0005    0.0002   -0.0001    0.0005   -0.0010   -0.0002    0.0001    0.0004   -0.0011    0.0221
   118 N5     4py       -0.0001   -0.0000   -0.0001    0.0002   -0.0002   -0.0001    0.0003    0.0000   -0.0001    0.0041
   119 N5     2pz        0.0002   -0.0012    0.0004   -0.0012    0.0004    0.0001    0.0001    0.0000    0.0004   -0.0065
   120 N5     3pz        0.0003   -0.0014    0.0006   -0.0010    0.0008    0.0003   -0.0001   -0.0001    0.0007   -0.0128
   121 N5     4pz        0.0000   -0.0000    0.0001    0.0002    0.0002    0.0001   -0.0000   -0.0001    0.0003   -0.0035
   122 N5     3d2-       0.0000   -0.0001    0.0000    0.0001    0.0000    0.0000    0.0001    0.0000    0.0000   -0.0001
   123 N5     3d1-      -0.0000   -0.0001    0.0000    0.0001    0.0000   -0.0000    0.0000   -0.0000   -0.0000   -0.0000
   124 N5     3d0       -0.0000   -0.0000   -0.0000    0.0001    0.0000    0.0000    0.0000   -0.0000    0.0000   -0.0002
   125 N5     3d1+      -0.0000    0.0001   -0.0000    0.0000    0.0000    0.0000   -0.0001   -0.0000   -0.0000   -0.0003
   126 N5     3d2+      -0.0000   -0.0000   -0.0000    0.0001    0.0000    0.0000    0.0001   -0.0000    0.0001   -0.0003
   127 O7     1s         0.9997    0.0000    0.0000    0.0000   -0.0003   -0.0000    0.0000   -0.0001    0.0000   -0.0243
   128 O7     2s        -0.0013    0.0002    0.0002    0.0001    0.0004   -0.0002    0.0001   -0.0003   -0.0000    0.6904
   129 O7     3s        -0.0013    0.0001    0.0001    0.0001   -0.0001   -0.0001    0.0001   -0.0003   -0.0000   -0.0352
   130 O7     4s         0.0001    0.0000    0.0000    0.0000   -0.0000   -0.0000    0.0000   -0.0001   -0.0000   -0.0141
   131 O7     2px       -0.0002   -0.0000   -0.0002    0.0001   -0.0006   -0.0000    0.0000    0.0001   -0.0000   -0.1030
   132 O7     3px        0.0004    0.0000   -0.0002    0.0001   -0.0004   -0.0001    0.0001    0.0001    0.0000    0.0332
   133 O7     4px       -0.0009    0.0000    0.0000    0.0000   -0.0003   -0.0001    0.0000   -0.0000    0.0000    0.0003
   134 O7     2py       -0.0001   -0.0000   -0.0000    0.0000   -0.0004    0.0000    0.0001    0.0001   -0.0000   -0.0700
   135 O7     3py        0.0002   -0.0000   -0.0000    0.0000   -0.0001   -0.0000    0.0001    0.0001   -0.0000    0.0215
   136 O7     4py       -0.0007   -0.0000    0.0000    0.0000   -0.0001   -0.0000    0.0000   -0.0000   -0.0000    0.0001
   137 O7     2pz        0.0002    0.0001   -0.0003    0.0001    0.0002   -0.0002    0.0001   -0.0001   -0.0000    0.0834
   138 O7     3pz       -0.0002    0.0001   -0.0004    0.0002   -0.0003   -0.0002    0.0001   -0.0001   -0.0000   -0.0228
   139 O7     4pz        0.0008    0.0000   -0.0001    0.0000    0.0000   -0.0000    0.0000    0.0000   -0.0000   -0.0008
   140 O7     3d2-       0.0000    0.0000    0.0001   -0.0000    0.0001    0.0000   -0.0000   -0.0000   -0.0000    0.0124
   141 O7     3d1-       0.0000   -0.0000    0.0000   -0.0000   -0.0001    0.0000    0.0000    0.0000   -0.0000   -0.0098
   142 O7     3d0        0.0000   -0.0000   -0.0000    0.0000   -0.0000   -0.0000    0.0000   -0.0000   -0.0000   -0.0016
   143 O7     3d1+       0.0001   -0.0000    0.0000    0.0000   -0.0002    0.0000   -0.0000   -0.0000   -0.0000   -0.0146
   144 O7     3d2+       0.0000   -0.0000    0.0000   -0.0000    0.0000   -0.0000   -0.0000   -0.0000   -0.0000    0.0050
   145 O8     1s         0.0000    0.9997    0.0000    0.0000    0.0000    0.0001   -0.0002   -0.0000   -0.0000   -0.0010
   146 O8     2s         0.0001   -0.0013    0.0001    0.0001    0.0001    0.0005    0.0006   -0.0001   -0.0003    0.0065
   147 O8     3s         0.0001   -0.0013    0.0001    0.0001    0.0001    0.0003    0.0001   -0.0001   -0.0002   -0.0029
   148 O8     4s         0.0000    0.0001    0.0000    0.0000    0.0000    0.0001    0.0001   -0.0000   -0.0000   -0.0008
   149 O8     2px       -0.0000   -0.0002   -0.0001   -0.0001   -0.0000   -0.0002   -0.0004   -0.0000    0.0000   -0.0014
   150 O8     3px       -0.0000    0.0003   -0.0001   -0.0001   -0.0000   -0.0001   -0.0002   -0.0000    0.0000    0.0008
   151 O8     4px        0.0000   -0.0008   -0.0000    0.0001    0.0000    0.0000   -0.0001   -0.0000   -0.0000   -0.0002
   152 O8     2py        0.0000   -0.0001    0.0000    0.0003   -0.0000   -0.0001   -0.0003   -0.0000    0.0001   -0.0003
   153 O8     3py        0.0000    0.0002    0.0000    0.0003   -0.0001   -0.0001   -0.0000   -0.0000    0.0001    0.0012
   154 O8     4py       -0.0000   -0.0005    0.0000    0.0000   -0.0000    0.0001   -0.0000    0.0000   -0.0000    0.0003
   155 O8     2pz       -0.0000   -0.0003   -0.0000   -0.0000   -0.0000   -0.0003   -0.0006    0.0000    0.0000   -0.0007
   156 O8     3pz       -0.0000    0.0003   -0.0001    0.0000   -0.0001   -0.0002   -0.0002   -0.0000    0.0000    0.0013
   157 O8     4pz       -0.0000   -0.0010   -0.0000    0.0001   -0.0000    0.0000   -0.0001   -0.0000   -0.0000   -0.0000
   158 O8     3d2-       0.0000   -0.0001    0.0000   -0.0000    0.0000    0.0000    0.0001   -0.0000   -0.0000    0.0000
   159 O8     3d1-       0.0000   -0.0000   -0.0000   -0.0000    0.0000    0.0000    0.0001    0.0000   -0.0000    0.0001
   160 O8     3d0       -0.0000   -0.0000   -0.0000    0.0000    0.0000    0.0000    0.0001   -0.0000    0.0000    0.0001
   161 O8     3d1+       0.0000   -0.0000    0.0000    0.0001   -0.0000    0.0001    0.0002    0.0000    0.0000    0.0003
   162 O8     3d2+      -0.0000   -0.0000    0.0000    0.0000    0.0000    0.0000    0.0001   -0.0000    0.0000    0.0001
   163 H9     1s         0.0001    0.0001    0.0001   -0.0002    0.0003   -0.0000   -0.0001   -0.0004    0.0000    0.0103
   164 H9     2s         0.0000    0.0000    0.0001   -0.0002    0.0002   -0.0000   -0.0001    0.0002    0.0000    0.0003
   165 H9     2px       -0.0001   -0.0000    0.0000   -0.0000    0.0000   -0.0000    0.0000   -0.0001   -0.0000    0.0007
   166 H9     2py       -0.0000    0.0000   -0.0000   -0.0000    0.0001   -0.0000   -0.0000    0.0000   -0.0000    0.0008
   167 H9     2pz       -0.0000    0.0000    0.0000   -0.0000    0.0001   -0.0000   -0.0000    0.0000    0.0000    0.0006
   168 H10    1s         0.0002   -0.0001    0.0000    0.0002    0.0001   -0.0003   -0.0001   -0.0003   -0.0001    0.0144
   169 H10    2s         0.0001   -0.0001   -0.0000    0.0001    0.0001   -0.0002   -0.0001    0.0002   -0.0000    0.0034
   170 H10    2px       -0.0000   -0.0000   -0.0000   -0.0000    0.0001   -0.0000   -0.0000    0.0000   -0.0000    0.0013
   171 H10    2py       -0.0001    0.0000   -0.0000   -0.0000   -0.0000    0.0000    0.0000   -0.0001    0.0000   -0.0000
   172 H10    2pz       -0.0000   -0.0000    0.0000    0.0000    0.0000   -0.0000   -0.0000    0.0000   -0.0000    0.0009
   173 H11    1s        -0.0005    0.0000    0.0004   -0.0000    0.0004   -0.0000   -0.0001   -0.0004   -0.0001    0.0194
   174 H11    2s        -0.0003    0.0000    0.0003   -0.0000    0.0003   -0.0000   -0.0000    0.0002   -0.0001    0.0051
   175 H11    2px       -0.0000    0.0000    0.0000    0.0000    0.0001    0.0000    0.0000    0.0000   -0.0000    0.0015
   176 H11    2py       -0.0000   -0.0000    0.0000    0.0000    0.0001   -0.0000   -0.0000    0.0000   -0.0000    0.0013
   177 H11    2pz       -0.0000    0.0000   -0.0001    0.0000   -0.0000    0.0000    0.0000   -0.0001   -0.0000    0.0002
   178 H12    1s        -0.0012    0.0002   -0.0010    0.0004    0.0002   -0.0005   -0.0001    0.0004   -0.0002    0.0397
   179 H12    2s        -0.0007    0.0001   -0.0006    0.0002    0.0000   -0.0002   -0.0000    0.0002   -0.0001   -0.0013
   180 H12    2px       -0.0000    0.0000   -0.0005    0.0000    0.0000   -0.0000   -0.0000    0.0000   -0.0000    0.0045
   181 H12    2py       -0.0000    0.0000   -0.0002    0.0000    0.0000    0.0000    0.0000    0.0000    0.0000    0.0020
   182 H12    2pz        0.0000   -0.0000    0.0002   -0.0000   -0.0001    0.0000   -0.0000   -0.0000    0.0000   -0.0037
   183 H13    1s        -0.0000   -0.0004   -0.0003    0.0001   -0.0002    0.0010   -0.0003   -0.0002   -0.0002    0.0140
   184 H13    2s         0.0001   -0.0003   -0.0001    0.0000   -0.0001    0.0001   -0.0001   -0.0001   -0.0001   -0.0019
   185 H13    2px       -0.0000   -0.0000   -0.0000   -0.0000    0.0000   -0.0001    0.0000    0.0000    0.0000   -0.0008
   186 H13    2py        0.0000    0.0001    0.0000   -0.0000    0.0000   -0.0001   -0.0000    0.0000    0.0000   -0.0009
   187 H13    2pz        0.0000   -0.0000    0.0000   -0.0000   -0.0000    0.0001    0.0000   -0.0000   -0.0000   -0.0004
   188 H14    1s         0.0005    0.0004   -0.0002   -0.0001   -0.0003    0.0011   -0.0003    0.0001   -0.0001    0.0047
   189 H14    2s         0.0003    0.0002   -0.0000   -0.0001   -0.0002    0.0003   -0.0001    0.0001   -0.0001   -0.0015
   190 H14    2px        0.0000   -0.0000    0.0001   -0.0000   -0.0000   -0.0000    0.0001   -0.0000   -0.0000   -0.0001
   191 H14    2py       -0.0000    0.0000   -0.0000   -0.0000    0.0000   -0.0000   -0.0000   -0.0000    0.0000   -0.0005
   192 H14    2pz       -0.0001   -0.0000    0.0000    0.0000    0.0000   -0.0000    0.0000    0.0000    0.0000   -0.0003
   193 H15    1s         0.0004   -0.0014    0.0005   -0.0012   -0.0004   -0.0002    0.0000    0.0005   -0.0004    0.0085
   194 H15    2s         0.0003   -0.0008    0.0004   -0.0008   -0.0003   -0.0001   -0.0001    0.0004   -0.0002    0.0030
   195 H15    2px       -0.0000   -0.0001   -0.0000   -0.0003   -0.0000    0.0000    0.0000    0.0000   -0.0000    0.0008
   196 H15    2py        0.0000   -0.0000    0.0001   -0.0001   -0.0000    0.0000    0.0001    0.0000   -0.0001    0.0004
   197 H15    2pz       -0.0000   -0.0001    0.0000   -0.0004   -0.0000    0.0000    0.0001    0.0001   -0.0000    0.0013
   198 H16    1s        -0.0001    0.0005   -0.0001   -0.0005   -0.0002    0.0001   -0.0003    0.0000    0.0006    0.0048
   199 H16    2s        -0.0001    0.0003   -0.0001   -0.0002   -0.0001    0.0000   -0.0003    0.0000   -0.0001    0.0034
   200 H16    2px        0.0000   -0.0000    0.0000    0.0000    0.0000   -0.0000    0.0000   -0.0000   -0.0000   -0.0002
   201 H16    2py       -0.0000    0.0000   -0.0000   -0.0000   -0.0000   -0.0000   -0.0000   -0.0000    0.0000    0.0001
   202 H16    2pz       -0.0000    0.0000   -0.0000    0.0000   -0.0000    0.0000   -0.0000    0.0000   -0.0000    0.0003
   203 H17    1s        -0.0000   -0.0001    0.0001   -0.0003    0.0000    0.0001   -0.0000   -0.0001    0.0011    0.0016
   204 H17    2s        -0.0000   -0.0000    0.0000   -0.0001   -0.0000    0.0001    0.0001   -0.0001    0.0002    0.0010
   205 H17    2px        0.0000    0.0000   -0.0000    0.0000   -0.0000   -0.0000   -0.0000    0.0000   -0.0001   -0.0000
   206 H17    2py        0.0000   -0.0000   -0.0000    0.0000   -0.0000    0.0000    0.0000    0.0000   -0.0000   -0.0000
   207 H17    2pz        0.0000    0.0000   -0.0000    0.0000    0.0000   -0.0000    0.0000    0.0000   -0.0001   -0.0002
   208 H18    1s        -0.0000    0.0003    0.0000   -0.0005   -0.0000    0.0001   -0.0002    0.0000    0.0005    0.0027
   209 H18    2s        -0.0000    0.0002    0.0000   -0.0002   -0.0001    0.0001   -0.0002    0.0000   -0.0001    0.0022
   210 H18    2px       -0.0000    0.0000    0.0000    0.0000    0.0000    0.0000   -0.0000   -0.0000   -0.0000    0.0000
   211 H18    2py        0.0000    0.0000    0.0000   -0.0001    0.0000    0.0000   -0.0000   -0.0000    0.0000    0.0000
   212 H18    2pz        0.0000   -0.0000    0.0000    0.0000    0.0000   -0.0000    0.0000   -0.0000    0.0000   -0.0002
 
 
      Orbital                11        12        13        14        15        16        17        18        19        20
      Energy            -1.3556   -1.2656   -1.2074   -1.0353   -0.9713   -0.9171   -0.8254   -0.7705   -0.7223   -0.7027
      Occ. No.           2.0000    2.0000    2.0000    2.0000    2.0000    2.0000    2.0000    2.0000    2.0000    2.0000
 
     1 C1     1s         0.0020   -0.0076    0.0046   -0.0165   -0.0038    0.0045    0.0149    0.0013    0.0055    0.0036
     2 C1     2s         0.0080    0.1246   -0.0291    0.2681   -0.0094   -0.0700   -0.3974   -0.0405   -0.2300   -0.1162
     3 C1     3s         0.0111    0.0008    0.0127   -0.0209   -0.0112    0.0054    0.0053    0.0003    0.0033    0.0162
     4 C1     4s         0.0032   -0.0000    0.0038   -0.0061   -0.0037    0.0020    0.0032    0.0011    0.0030    0.0032
     5 C1     2px        0.0133   -0.0273    0.0214   -0.1471    0.0407    0.0123   -0.0483    0.0370    0.0739   -0.0987
     6 C1     3px        0.0256    0.0405    0.0101    0.0087   -0.0446    0.0362    0.0115   -0.0044   -0.0212    0.0484
     7 C1     4px        0.0020   -0.0047    0.0049   -0.0240    0.0041    0.0031   -0.0055    0.0028   -0.0026   -0.0064
     8 C1     2py        0.0029   -0.0345    0.0091   -0.0794    0.0088    0.0162    0.0008    0.0183    0.0317   -0.1056
     9 C1     3py        0.0107    0.0258   -0.0056    0.0143   -0.0227    0.0172    0.0007   -0.0068    0.0006    0.0363
    10 C1     4py        0.0007   -0.0055    0.0006   -0.0108    0.0002    0.0047   -0.0020   -0.0007    0.0005   -0.0076
    11 C1     2pz        0.0286    0.1357   -0.0178   -0.0318    0.1175   -0.0697   -0.1347   -0.0043    0.1407    0.2734
    12 C1     3pz        0.0193   -0.0494    0.0310   -0.0492   -0.0246    0.0200    0.0313   -0.0107   -0.0657   -0.0674
    13 C1     4pz        0.0064    0.0224   -0.0013   -0.0128    0.0150   -0.0063   -0.0089   -0.0016    0.0040    0.0164
    14 C1     3d2-      -0.0013   -0.0088    0.0016    0.0070   -0.0042    0.0006   -0.0040   -0.0015   -0.0115   -0.0115
    15 C1     3d1-       0.0005    0.0018   -0.0004    0.0020   -0.0069    0.0055   -0.0001    0.0036    0.0077   -0.0008
    16 C1     3d0        0.0020    0.0266   -0.0064    0.0057    0.0143   -0.0093   -0.0163    0.0000    0.0117    0.0150
    17 C1     3d1+       0.0021    0.0126   -0.0020    0.0090   -0.0087    0.0049   -0.0129    0.0064    0.0139    0.0081
    18 C1     3d2+      -0.0002   -0.0034    0.0005    0.0055   -0.0044    0.0015   -0.0043   -0.0000   -0.0044   -0.0067
    19 C3     1s        -0.0154   -0.0295    0.0029    0.0325    0.0294   -0.0211    0.0042   -0.0032    0.0022    0.0015
    20 C3     2s         0.0206    0.1635   -0.0064   -0.2496   -0.3067    0.3096   -0.0913    0.0718   -0.0647    0.0303
    21 C3     3s        -0.0410   -0.0512    0.0063    0.0587    0.0439   -0.0186    0.0073   -0.0001    0.0093    0.0003
    22 C3     4s        -0.0056   -0.0112    0.0031    0.0151    0.0113   -0.0064    0.0031   -0.0011    0.0038   -0.0017
    23 C3     2px        0.0119   -0.0782    0.0271   -0.0004   -0.0307   -0.0054   -0.1213   -0.0853   -0.1116    0.2164
    24 C3     3px        0.0026    0.0038    0.0151   -0.0231    0.0393    0.0204    0.0030    0.0059    0.0283   -0.0340
    25 C3     4px        0.0070   -0.0045    0.0100   -0.0064   -0.0022    0.0058   -0.0094   -0.0057    0.0000    0.0070
    26 C3     2py       -0.0028   -0.0449   -0.0220    0.0230    0.0293    0.0456   -0.0658    0.0822   -0.0065    0.0450
    27 C3     3py        0.0139    0.0219   -0.0014   -0.0187   -0.0103    0.0098   -0.0067   -0.0035    0.0006   -0.0070
    28 C3     4py       -0.0065    0.0062    0.0025   -0.0107   -0.0124    0.0186   -0.0070    0.0051   -0.0057    0.0047
    29 C3     2pz        0.0348   -0.0480    0.0284   -0.0173   -0.0369    0.0380    0.0359   -0.1011   -0.2599    0.0626
    30 C3     3pz        0.0247    0.0234    0.0255   -0.0418    0.0175    0.0574   -0.0111    0.0172    0.0290   -0.0134
    31 C3     4pz        0.0069    0.0004    0.0090   -0.0105   -0.0030    0.0108    0.0013   -0.0065   -0.0078    0.0030
    32 C3     3d2-      -0.0014    0.0099   -0.0035   -0.0019    0.0098    0.0030    0.0098    0.0127    0.0211   -0.0163
    33 C3     3d1-      -0.0020    0.0086   -0.0027   -0.0003    0.0076    0.0029    0.0053    0.0110    0.0111   -0.0150
    34 C3     3d0        0.0020   -0.0030   -0.0034    0.0012    0.0021    0.0024   -0.0135    0.0061    0.0065    0.0067
    35 C3     3d1+       0.0035    0.0171   -0.0045   -0.0068    0.0002    0.0003    0.0037    0.0005    0.0112   -0.0090
    36 C3     3d2+       0.0045    0.0053   -0.0048   -0.0014    0.0041    0.0031    0.0048    0.0039    0.0061   -0.0062
    37 C4     1s        -0.0401    0.0037   -0.0077    0.0062    0.0130    0.0063    0.0044    0.0171    0.0018   -0.0028
    38 C4     2s         0.3671    0.0362    0.0993   -0.0871   -0.2337   -0.0953   -0.0551   -0.3976   -0.0523    0.0843
    39 C4     3s        -0.0040    0.0164   -0.0019    0.0121    0.0059    0.0035    0.0102    0.0132    0.0040   -0.0042
    40 C4     4s         0.0033    0.0046    0.0002    0.0041    0.0025    0.0023    0.0031    0.0063    0.0025   -0.0026
    41 C4     2px        0.0679   -0.0374   -0.0132    0.0463    0.0904    0.0225    0.0016    0.0096    0.0699   -0.0339
    42 C4     3px       -0.0363    0.0117    0.0507   -0.0169   -0.0079    0.0570   -0.0132   -0.0017   -0.0351    0.0126
    43 C4     4px        0.0178   -0.0065   -0.0010    0.0050    0.0108    0.0077   -0.0031   -0.0012    0.0018    0.0011
    44 C4     2py        0.0042   -0.0182   -0.1682   -0.0149   -0.0368    0.0647   -0.0037    0.1044   -0.1743    0.1165
    45 C4     3py       -0.0339   -0.0039   -0.0176    0.0257   -0.0347   -0.1207    0.0167   -0.0153    0.0695   -0.0437
    46 C4     4py        0.0018   -0.0063   -0.0368   -0.0010   -0.0087   -0.0049   -0.0003    0.0087   -0.0069    0.0045
    47 C4     2pz        0.0672   -0.0477   -0.0650    0.0533    0.1034    0.0314    0.0161    0.0356    0.0361   -0.0294
    48 C4     3pz       -0.0539    0.0091    0.0489   -0.0102   -0.0143    0.0199   -0.0140   -0.0124   -0.0113    0.0092
    49 C4     4pz        0.0199   -0.0078   -0.0106    0.0047    0.0106    0.0054   -0.0006   -0.0008   -0.0006    0.0006
    50 C4     3d2-       0.0134   -0.0052   -0.0051    0.0064    0.0065   -0.0105    0.0024    0.0101    0.0033   -0.0005
    51 C4     3d1-       0.0217   -0.0036    0.0042    0.0054    0.0023   -0.0169    0.0042    0.0017    0.0038   -0.0040
    52 C4     3d0        0.0090   -0.0028   -0.0147    0.0015    0.0052    0.0033    0.0001    0.0110   -0.0012    0.0033
    53 C4     3d1+       0.0343   -0.0027   -0.0113   -0.0036   -0.0055    0.0014   -0.0005   -0.0045   -0.0042    0.0034
    54 C4     3d2+      -0.0002   -0.0027   -0.0237    0.0012    0.0088    0.0108    0.0044    0.0148   -0.0070    0.0007
    55 C6     1s        -0.0100    0.0013   -0.0332   -0.0100   -0.0332   -0.0420   -0.0006    0.0080    0.0039   -0.0027
    56 C6     2s         0.0254    0.0458    0.1709    0.0822    0.2204    0.4199   -0.0304   -0.1028   -0.0267    0.0185
    57 C6     3s        -0.0167    0.0183   -0.0533   -0.0105   -0.0631   -0.0583   -0.0053    0.0184    0.0098   -0.0078
    58 C6     4s        -0.0011    0.0052   -0.0086   -0.0014   -0.0139   -0.0123   -0.0007    0.0056    0.0021   -0.0020
    59 C6     2px       -0.0116   -0.0160   -0.0622   -0.0122   -0.0102    0.0086   -0.0071   -0.1061    0.0140    0.0059
    60 C6     3px        0.0024   -0.0081    0.0107    0.0029    0.0104   -0.0038    0.0018    0.0052    0.0041   -0.0017
    61 C6     4px       -0.0021   -0.0008   -0.0011    0.0019    0.0068    0.0120   -0.0016   -0.0085    0.0014    0.0001
    62 C6     2py        0.0208    0.0137    0.0783    0.0184    0.0073   -0.0300    0.0007   -0.0075    0.1003   -0.0717
    63 C6     3py       -0.0029    0.0062   -0.0157    0.0002   -0.0184   -0.0112    0.0007   -0.0007   -0.0119    0.0093
    64 C6     4py        0.0033    0.0016   -0.0020   -0.0021   -0.0109   -0.0163    0.0013    0.0018    0.0054   -0.0036
    65 C6     2pz       -0.0058   -0.0092   -0.0410   -0.0085   -0.0095    0.0084   -0.0099   -0.1193    0.0426   -0.0282
    66 C6     3pz        0.0019   -0.0020    0.0073    0.0023    0.0045   -0.0012   -0.0034    0.0032   -0.0007    0.0001
    67 C6     4pz       -0.0009    0.0005   -0.0022    0.0015    0.0045    0.0078    0.0000   -0.0086    0.0024   -0.0015
    68 C6     3d2-      -0.0037   -0.0020   -0.0169   -0.0031   -0.0043    0.0022   -0.0008   -0.0083   -0.0050    0.0036
    69 C6     3d1-      -0.0024   -0.0018   -0.0123   -0.0019   -0.0020    0.0018   -0.0010   -0.0118    0.0015    0.0002
    70 C6     3d0       -0.0015   -0.0005   -0.0055   -0.0008   -0.0012    0.0010    0.0002    0.0014   -0.0038    0.0027
    71 C6     3d1+       0.0021    0.0009    0.0100    0.0027    0.0044    0.0010    0.0007    0.0077    0.0030   -0.0033
    72 C6     3d2+      -0.0014    0.0002   -0.0028   -0.0002   -0.0002    0.0009    0.0007    0.0087   -0.0066    0.0042
    73 C19    1s         0.0011   -0.0085    0.0025   -0.0603    0.0386   -0.0130   -0.0136   -0.0057   -0.0086    0.0001
    74 C19    2s         0.0082    0.0085   -0.0091    0.3264   -0.2716    0.1327    0.0857    0.0272    0.0979    0.0122
    75 C19    3s         0.0081   -0.0223    0.0093   -0.1203    0.0680   -0.0153   -0.0348   -0.0151   -0.0157    0.0067
    76 C19    4s         0.0030   -0.0027    0.0030   -0.0264    0.0156   -0.0039   -0.0097   -0.0034   -0.0052    0.0019
    77 C19    2px        0.0047    0.0095    0.0045    0.0429   -0.0030   -0.0100   -0.0661   -0.0358   -0.1896   -0.0832
    78 C19    3px        0.0049   -0.0017    0.0099   -0.0282    0.0142    0.0016    0.0098    0.0039    0.0192    0.0148
    79 C19    4px       -0.0002   -0.0003    0.0010   -0.0130    0.0132   -0.0074   -0.0119   -0.0010   -0.0075   -0.0027
    80 C19    2py        0.0012   -0.0041    0.0003    0.0123    0.0008   -0.0088   -0.0265   -0.0173   -0.0916   -0.0715
    81 C19    3py        0.0020   -0.0058    0.0012   -0.0201    0.0103   -0.0047    0.0070   -0.0016    0.0078    0.0095
    82 C19    4py        0.0003    0.0007   -0.0006   -0.0056    0.0052   -0.0020   -0.0058   -0.0016   -0.0030   -0.0023
    83 C19    2pz        0.0011    0.0248   -0.0052    0.0553    0.0070   -0.0214   -0.0496   -0.0343   -0.0826    0.1126
    84 C19    3pz       -0.0018   -0.0002    0.0022    0.0020    0.0033   -0.0004    0.0045    0.0067    0.0149   -0.0092
    85 C19    4pz       -0.0012    0.0005   -0.0000   -0.0094    0.0131   -0.0075   -0.0032   -0.0025   -0.0069    0.0022
    86 C19    3d2-      -0.0000   -0.0008    0.0001    0.0090   -0.0038   -0.0001   -0.0035   -0.0030   -0.0114    0.0021
    87 C19    3d1-       0.0002    0.0026   -0.0005    0.0046   -0.0006   -0.0005   -0.0037   -0.0012   -0.0074   -0.0054
    88 C19    3d0        0.0003    0.0029   -0.0006   -0.0014    0.0020   -0.0006    0.0008    0.0003    0.0060    0.0087
    89 C19    3d1+       0.0002    0.0049   -0.0013    0.0106   -0.0009   -0.0022   -0.0079   -0.0032   -0.0133   -0.0019
    90 C19    3d2+      -0.0001    0.0001   -0.0000    0.0068   -0.0024   -0.0006   -0.0036   -0.0022   -0.0096   -0.0005
    91 N2     1s        -0.0033   -0.0403    0.0061   -0.0025   -0.0037    0.0021   -0.0051    0.0015    0.0040   -0.0004
    92 N2     2s         0.0460    0.5811   -0.1368   -0.0430    0.2160   -0.0770    0.1309    0.0053    0.1447   -0.0324
    93 N2     3s        -0.0096   -0.0773    0.0061   -0.0077    0.0056   -0.0003   -0.0100    0.0052    0.0169   -0.0005
    94 N2     4s        -0.0035   -0.0257    0.0031   -0.0002   -0.0013    0.0003   -0.0034    0.0004    0.0011    0.0000
    95 N2     2px        0.0016   -0.0206    0.0149   -0.1050   -0.0774    0.0835   -0.1837    0.1485    0.2600   -0.1217
    96 N2     3px       -0.0109   -0.0468    0.0028    0.0296    0.0579   -0.0534    0.0323   -0.0337   -0.0557    0.0085
    97 N2     4px       -0.0023   -0.0155    0.0025   -0.0013    0.0030   -0.0063   -0.0087   -0.0029   -0.0012    0.0030
    98 N2     2py        0.0030    0.0222    0.0012   -0.0410   -0.0126    0.0740   -0.1201    0.0799    0.1880   -0.0914
    99 N2     3py       -0.0007   -0.0078    0.0154    0.0213    0.0294    0.0045    0.0230   -0.0245   -0.0295    0.0058
   100 N2     4py       -0.0000   -0.0014    0.0026    0.0015    0.0022    0.0040   -0.0039   -0.0019   -0.0011    0.0027
   101 N2     2pz        0.0048   -0.0293    0.0173   -0.1448   -0.0796    0.0910    0.3713    0.0043   -0.0651   -0.3103
   102 N2     3pz       -0.0025   -0.0148    0.0013    0.0165    0.0445   -0.0463   -0.1039   -0.0189   -0.0003    0.0558
   103 N2     4pz        0.0011    0.0028    0.0015   -0.0073    0.0063   -0.0026   -0.0004   -0.0047   -0.0017    0.0069
   104 N2     3d2-       0.0003    0.0083   -0.0024   -0.0054   -0.0002    0.0035    0.0083    0.0017    0.0034   -0.0066
   105 N2     3d1-       0.0001    0.0010   -0.0002   -0.0029   -0.0063    0.0064    0.0029    0.0043    0.0039   -0.0059
   106 N2     3d0        0.0009    0.0119   -0.0032    0.0063    0.0074   -0.0063   -0.0183   -0.0023    0.0005    0.0111
   107 N2     3d1+       0.0013    0.0075   -0.0010   -0.0012   -0.0076    0.0058   -0.0067    0.0051    0.0084   -0.0010
   108 N2     3d2+       0.0014    0.0055   -0.0015   -0.0019   -0.0004   -0.0006    0.0077   -0.0030   -0.0025   -0.0008
   109 N5     1s        -0.0210   -0.0092   -0.0410   -0.0035    0.0012    0.0015   -0.0003   -0.0021    0.0027   -0.0020
   110 N5     2s         0.1327    0.0595    0.5756    0.0340   -0.0118   -0.2265    0.0193    0.1776    0.0533   -0.0457
   111 N5     3s        -0.0532   -0.0223   -0.0749   -0.0108   -0.0041   -0.0203    0.0009    0.0071    0.0104   -0.0085
   112 N5     4s        -0.0126   -0.0055   -0.0253   -0.0034   -0.0027   -0.0027   -0.0002   -0.0000    0.0010   -0.0009
   113 N5     2px        0.0269   -0.0215   -0.0064    0.0226    0.0600    0.0696   -0.0103   -0.1427    0.1088   -0.0640
   114 N5     3px        0.0073   -0.0254   -0.0416   -0.0128   -0.0252   -0.0816    0.0103    0.0238   -0.0170    0.0126
   115 N5     4px       -0.0042   -0.0063   -0.0076   -0.0034    0.0005   -0.0078   -0.0008   -0.0045    0.0013   -0.0003
   116 N5     2py        0.0200    0.0336    0.0183   -0.0367   -0.1463   -0.1443   -0.0229   -0.2962    0.1269   -0.0593
   117 N5     3py       -0.0223    0.0386    0.0007    0.0211    0.0270    0.0872    0.0010    0.0739   -0.0213    0.0051
   118 N5     4py        0.0071    0.0061   -0.0029   -0.0022   -0.0061    0.0061   -0.0018   -0.0002   -0.0006   -0.0003
   119 N5     2pz        0.0313   -0.0156   -0.0128    0.0198    0.0351    0.0394   -0.0073   -0.2360    0.1649   -0.0958
   120 N5     3pz        0.0049   -0.0182   -0.0383   -0.0061   -0.0186   -0.0627    0.0202    0.0518   -0.0284    0.0190
   121 N5     4pz       -0.0028   -0.0059   -0.0086   -0.0045   -0.0007   -0.0061    0.0007   -0.0055    0.0002    0.0001
   122 N5     3d2-       0.0020   -0.0020   -0.0075   -0.0010   -0.0039   -0.0085   -0.0002   -0.0014    0.0012    0.0004
   123 N5     3d1-       0.0044   -0.0004    0.0017   -0.0008   -0.0041   -0.0104    0.0003   -0.0042    0.0027   -0.0012
   124 N5     3d0       -0.0015   -0.0016   -0.0070   -0.0001    0.0016   -0.0009    0.0010    0.0104   -0.0041    0.0019
   125 N5     3d1+       0.0012    0.0007    0.0099    0.0009    0.0036   -0.0012    0.0008    0.0113   -0.0025    0.0007
   126 N5     3d2+      -0.0040   -0.0025   -0.0125    0.0009    0.0051    0.0053    0.0014    0.0139   -0.0054    0.0022
   127 O7     1s         0.0004    0.0029   -0.0005   -0.0042    0.0016    0.0004    0.0138   -0.0008    0.0111    0.0234
   128 O7     2s        -0.0446   -0.2939    0.0567   -0.2066    0.0362    0.0166    0.3593   -0.0215    0.1800    0.3820
   129 O7     3s        -0.0016   -0.0069    0.0007   -0.0193    0.0074    0.0008    0.0434   -0.0036    0.0309    0.0661
   130 O7     4s        -0.0000    0.0007   -0.0004   -0.0032    0.0019   -0.0001    0.0081   -0.0011    0.0060    0.0137
   131 O7     2px        0.0048    0.0356   -0.0067   -0.0290    0.0166    0.0032    0.1318   -0.0008    0.1814    0.3732
   132 O7     3px       -0.0033    0.0005   -0.0029    0.0114   -0.0015   -0.0001   -0.0224    0.0000   -0.0235   -0.0427
   133 O7     4px       -0.0008   -0.0007   -0.0004   -0.0007   -0.0007    0.0013   -0.0027    0.0005   -0.0029   -0.0062
   134 O7     2py        0.0030    0.0206   -0.0020   -0.0162    0.0088    0.0027    0.1007    0.0010    0.1124    0.2453
   135 O7     3py       -0.0017   -0.0018    0.0013    0.0075    0.0023   -0.0022   -0.0160    0.0016   -0.0147   -0.0257
   136 O7     4py       -0.0005   -0.0012    0.0008   -0.0001    0.0009    0.0000   -0.0018    0.0006   -0.0019   -0.0035
   137 O7     2pz       -0.0045    0.0020   -0.0046   -0.0066    0.0285   -0.0182   -0.1690    0.0184   -0.0513   -0.2106
   138 O7     3pz       -0.0012    0.0036   -0.0026   -0.0058   -0.0030    0.0051    0.0211   -0.0023    0.0014    0.0175
   139 O7     4pz       -0.0001    0.0011   -0.0004   -0.0007   -0.0018    0.0017    0.0015    0.0001   -0.0003    0.0009
   140 O7     3d2-      -0.0007   -0.0056    0.0012    0.0001   -0.0020    0.0008   -0.0045    0.0000   -0.0085   -0.0170
   141 O7     3d1-       0.0004    0.0017   -0.0002    0.0012   -0.0015    0.0010    0.0069   -0.0005    0.0029    0.0093
   142 O7     3d0        0.0002    0.0023   -0.0006   -0.0031    0.0035   -0.0013   -0.0025    0.0011    0.0069    0.0072
   143 O7     3d1+       0.0007    0.0026   -0.0003    0.0009   -0.0021    0.0015    0.0100   -0.0005    0.0051    0.0150
   144 O7     3d2+      -0.0002   -0.0026    0.0006    0.0002   -0.0015    0.0009   -0.0007   -0.0000   -0.0040   -0.0079
   145 O8     1s        -0.0237    0.0029    0.0039    0.0003    0.0028    0.0004    0.0015    0.0122    0.0024   -0.0038
   146 O8     2s         0.6678   -0.1532   -0.3103    0.0846    0.1775    0.0108    0.0629    0.3474    0.0477   -0.0817
[...]
AIVX     1  Mu1.0001  In1.026 Se1.045               0.24210062     -0.00029359      0.00045288     -0.00000013
AIVX     1  Mu1.0001  In1.027 Se1.045               0.18867813     -0.00138863      0.00241518     -0.00000335
AIVX     1  Mu1.0001  In1.028 Se1.045               0.11062060     -0.00000593      0.00011235     -0.00000000
AIVX     1  Mu1.0001  In1.029 Se1.045               0.08232674      0.00002418     -0.00024419     -0.00000001
AIVX     1  Mu1.0001  In1.021 Se1.046               0.26394447     -0.00005996     -0.00002553      0.00000000
AIVX     1  Mu1.0001  In1.022 Se1.046               0.15848027      0.00040230     -0.00095171     -0.00000038
AIVX     1  Mu1.0001  In1.024 Se1.046               0.27914311      0.00010254     -0.00013723     -0.00000001
AIVX     1  Mu1.0001  In1.025 Se1.046               0.17199435      0.00021257     -0.00061305     -0.00000013
AIVX     1  Mu1.0001  In1.026 Se1.046               0.26047409      0.00020413     -0.00048943     -0.00000010
AIVX     1  Mu1.0001  In1.027 Se1.046               0.20705159     -0.00095184      0.00148321     -0.00000141
AIVX     1  Mu1.0001  In1.028 Se1.046               0.12899406     -0.00011377     -0.00001479      0.00000000
AIVX     1  Mu1.0001  In1.029 Se1.046               0.10070020      0.00019294     -0.00030302     -0.00000006
AIVX     1  Mu1.0001  In1.021 Se1.047               0.25794798     -0.00051028      0.00093026     -0.00000047
AIVX     1  Mu1.0001  In1.022 Se1.047               0.15248379     -0.00011550      0.00002477     -0.00000000
AIVX     1  Mu1.0001  In1.024 Se1.047               0.27314662      0.00068823     -0.00125191     -0.00000086
AIVX     1  Mu1.0001  In1.025 Se1.047               0.16599787      0.00044805     -0.00109551     -0.00000049
AIVX     1  Mu1.0001  In1.026 Se1.047               0.25447760     -0.00089454      0.00107297     -0.00000096
AIVX     1  Mu1.0001  In1.027 Se1.047               0.20105510     -0.00094886      0.00158254     -0.00000150
AIVX     1  Mu1.0001  In1.028 Se1.047               0.12299757      0.00004022      0.00020254      0.00000001
AIVX     1  Mu1.0001  In1.029 Se1.047               0.09470372      0.00001688      0.00007727      0.00000000
AIVX     1  Mu1.0001  In1.021 Se1.048               0.28558738     -0.00033962      0.00036446     -0.00000012
AIVX     1  Mu1.0001  In1.022 Se1.048               0.18012318     -0.00038277      0.00097337     -0.00000037
AIVX     1  Mu1.0001  In1.025 Se1.048               0.19363726     -0.00007119      0.00014101     -0.00000001
AIVX     1  Mu1.0001  In1.026 Se1.048               0.28211700     -0.00006325      0.00016891     -0.00000001
AIVX     1  Mu1.0001  In1.027 Se1.048               0.22869450      0.00011309     -0.00021099     -0.00000002
AIVX     1  Mu1.0001  In1.028 Se1.048               0.15063697     -0.00082464      0.00151117     -0.00000125
AIVX     1  Mu1.0001  In1.029 Se1.048               0.12234311      0.00019200     -0.00033694     -0.00000006
AIVX     1  Mu1.0001  In1.021 Se1.049               0.29004682     -0.00042729      0.00068144     -0.00000029
AIVX     1  Mu1.0001  In1.022 Se1.049               0.18458263      0.00009679     -0.00020145     -0.00000002
AIVX     1  Mu1.0001  In1.025 Se1.049               0.19809671     -0.00033499      0.00061515     -0.00000021
AIVX     1  Mu1.0001  In1.026 Se1.049               0.28657644     -0.00077560      0.00107900     -0.00000084
AIVX     1  Mu1.0001  In1.027 Se1.049               0.23315394     -0.00000219     -0.00001226      0.00000000
AIVX     1  Mu1.0001  In1.028 Se1.049               0.15509641     -0.00036956      0.00072971     -0.00000027
AIVX     1  Mu1.0001  In1.029 Se1.049               0.12680256      0.00032713     -0.00063603     -0.00000021
AIVX     1  Mu1.0001  In1.022 Se1.050               0.20117817      0.00055226     -0.00100810     -0.00000056
AIVX     1  Mu1.0001  In1.025 Se1.050               0.21469225     -0.00012826      0.00011362     -0.00000001
AIVX     1  Mu1.0001  In1.027 Se1.050               0.24974948     -0.00094140      0.00165187     -0.00000156
AIVX     1  Mu1.0001  In1.028 Se1.050               0.17169195      0.00044549     -0.00073693     -0.00000033
AIVX     1  Mu1.0001  In1.029 Se1.050               0.14339810     -0.00033855      0.00092072     -0.00000031
AIVX     1  Mu1.0001  In1.022 Se1.051               0.20878731      0.00006877     -0.00013012     -0.00000001
AIVX     1  Mu1.0001  In1.025 Se1.051               0.22230139     -0.00031173      0.00069266     -0.00000022
AIVX     1  Mu1.0001  In1.027 Se1.051               0.25735863      0.00183123     -0.00283072     -0.00000518
AIVX     1  Mu1.0001  In1.028 Se1.051               0.17930110     -0.00035399      0.00050284     -0.00000018
AIVX     1  Mu1.0001  In1.029 Se1.051               0.15100724     -0.00007040      0.00020330     -0.00000001
AIVX     1  Mu1.0001  In1.022 Se1.052               0.23433826      0.00023013     -0.00006310     -0.00000001
AIVX     1  Mu1.0001  In1.025 Se1.052               0.24785234      0.00018475     -0.00028661     -0.00000005
AIVX     1  Mu1.0001  In1.027 Se1.052               0.28290957     -0.00029342      0.00039811     -0.00000012
AIVX     1  Mu1.0001  In1.028 Se1.052               0.20485204      0.00016002     -0.00095509     -0.00000015
AIVX     1  Mu1.0001  In1.029 Se1.052               0.17655819     -0.00034368      0.00104813     -0.00000036
AIVX     1  Mu1.0001  In1.022 Se1.053               0.25088087      0.00022419     -0.00039117     -0.00000009
AIVX     1  Mu1.0001  In1.025 Se1.053               0.26439495     -0.00019463      0.00042368     -0.00000008
AIVX     1  Mu1.0001  In1.027 Se1.053               0.29945218      0.00125859     -0.00192729     -0.00000243
AIVX     1  Mu1.0001  In1.028 Se1.053               0.22139465     -0.00034168      0.00041420     -0.00000014
AIVX     1  Mu1.0001  In1.029 Se1.053               0.19310080     -0.00027749      0.00067905     -0.00000019
AIVX     1  Mu1.0001  In1.022 Se1.054               0.28518292     -0.00018768      0.00039922     -0.00000007
AIVX     1  Mu1.0001  In1.025 Se1.054               0.29869700      0.00041459     -0.00063946     -0.00000027
AIVX     1  Mu1.0001  In1.028 Se1.054               0.25569670     -0.00008121      0.00038658     -0.00000003
AIVX     1  Mu1.0001  In1.029 Se1.054               0.22740285      0.00030191     -0.00055609     -0.00000017
AIVX     1  Mu1.0001  In1.022 Se1.055               0.29854010     -0.00001853      0.00006652     -0.00000000
AIVX     1  Mu1.0001  In1.028 Se1.055               0.26905388      0.00061035     -0.00100094     -0.00000061
AIVX     1  Mu1.0001  In1.029 Se1.055               0.24076003      0.00005302     -0.00011612     -0.00000001
AIVX     1  Mu1.0001  In1.022 Se1.056               0.28023315      0.00044002     -0.00065581     -0.00000029
AIVX     1  Mu1.0001  In1.025 Se1.056               0.29374723     -0.00005122      0.00008696     -0.00000000
AIVX     1  Mu1.0001  In1.028 Se1.056               0.25074693      0.00007587     -0.00018195     -0.00000001
AIVX     1  Mu1.0001  In1.029 Se1.056               0.22245308      0.00004257     -0.00026685     -0.00000001
AIVX     1  Mu1.0001  In1.029 Se1.057               0.27445343      0.00049092     -0.00093018     -0.00000046
AIVX     1  Mu1.0001  In1.029 Se1.058               0.28198068      0.00105922     -0.00198084     -0.00000210
AIVX     1  Mu1.0001  In1.028 Se1.059               0.28544713     -0.00033305      0.00053303     -0.00000018
AIVX     1  Mu1.0001  In1.029 Se1.059               0.25715327     -0.00019871      0.00017968     -0.00000004
AIVX     1  Mu1.0001  In1.029 Se1.060               0.29085714      0.00005764     -0.00006650     -0.00000000
--
 
   (Skipping property calculation,
    use PROP keyword to activate)
--
 
  Total CASPT2 energies:
::    CASPT2 Root  1     Total energy:   -455.38060781
::    CASPT2 Root  2     Total energy:   -455.17071528
::    CASPT2 Root  3     Total energy:   -455.16961887
::    CASPT2 Root  4     Total energy:   -455.12347510
::    CASPT2 Root  5     Total energy:   -455.12926209
::    CASPT2 Root  6     Total energy:   -455.06237633
::    CASPT2 Root  7     Total energy:   -455.04958038
 
++ Multi-State CASPT2 section:
********************************************************************************
  MULTI-STATE CASPT2 SECTION
--------------------------------------------------------------------------------
 
  Output diagonal energies have been shifted. Add   -455.000000000000     
 
  Effective Hamiltonian matrix (Symmetric):
 
                1               2               3               4               5
   1        -0.38060781
   2         0.00028341     -0.17071528
   3        -0.00071350     -0.00002321     -0.16961887
   4         0.00754375      0.00003647      0.00081707     -0.12347510
   5        -0.02328038      0.00162151      0.00048851      0.00156438     -0.12926209
   6         0.00019120     -0.00004430      0.00304123      0.00144234      0.00159878
   7        -0.01019639     -0.00052759     -0.00002805      0.00041294     -0.01668404
 
                6               7
   6        -0.06237633
   7         0.00006666     -0.04958038
 
       Total MS-CASPT2 energies:
::    MS-CASPT2 Root  1     Total energy:   -455.38338553
::    MS-CASPT2 Root  2     Total energy:   -455.17077404
::    MS-CASPT2 Root  3     Total energy:   -455.16971936
::    MS-CASPT2 Root  4     Total energy:   -455.13023452
::    MS-CASPT2 Root  5     Total energy:   -455.12317244
::    MS-CASPT2 Root  6     Total energy:   -455.06222088
::    MS-CASPT2 Root  7     Total energy:   -455.04612912
 
       Eigenvectors:
            0.99454570      0.00524363     -0.00273766     -0.10133960      0.01733065
           -0.00194682      0.99851666     -0.04038336      0.03554222      0.00466560
            0.00323643      0.03997022      0.99860192      0.00962515      0.01661083
           -0.02948982     -0.00107968     -0.01590880     -0.11954060      0.99196230
            0.09360854     -0.03658023     -0.01096799      0.96858691      0.11868560
           -0.00096431     -0.00016855     -0.02792597     -0.02058732     -0.02756285
            0.03509187     -0.00023475     -0.00162955      0.18841442      0.02380699
 
           -0.00098063     -0.01651742
           -0.00020434     -0.00669417
            0.02856466     -0.00127149
            0.02442545     -0.00057478
            0.02004396     -0.19269249
            0.99889860     -0.01540200
            0.01965406      0.98097543
 
--
 
  THE ORIGINAL CI ARRAYS ARE NOW MIXED AS LINEAR
  COMBINATIONS, GIVEN BY THE EIGENVECTORS.
  A NEW JOBIPH FILE NAMED 'JOBMIX' IS PREPARED.
********************************************************************************
 
++ Mixed CI coefficients:
  The CI coefficients for the MIXED state nr.   1
--------------------------------------------------------------------------------
 CI COEFFICIENTS LARGER THAN  0.50D-01
  Occupation of active orbitals, and spin coupling
  of open shells. (u,d: Spin up or down).
  SGUGA info is (Midvert:IsyUp:UpperWalk/LowerWalk)
        Conf  SGUGA info        Occupation    Coefficient         Weight
           1  ( 1:1:   1/   1)   22222200       -0.967013       0.935113
           4  ( 1:1:   4/   1)   22222020        0.088512       0.007834
           8  ( 1:1:   8/   1)   2222u20d       -0.064919       0.004214
          17  ( 1:1:  17/   1)   22220202        0.089302       0.007975
          44  ( 2:1:   4/   2)   22u2220d        0.056866       0.003234
          61  ( 2:1:   1/   3)   2u2222d0        0.107163       0.011484
          84  ( 2:1:   4/   4)   u222220d       -0.084406       0.007124
         171  ( 3:1:   1/   8)   20222220        0.076272       0.005817
         195  ( 3:1:   5/  10)   02222202        0.085550       0.007319
 
  The CI coefficients for the MIXED state nr.   2
--------------------------------------------------------------------------------
 CI COEFFICIENTS LARGER THAN  0.50D-01
  Occupation of active orbitals, and spin coupling
  of open shells. (u,d: Spin up or down).
  SGUGA info is (Midvert:IsyUp:UpperWalk/LowerWalk)
        Conf  SGUGA info        Occupation    Coefficient         Weight
           8  ( 1:1:   8/   1)   2222u20d       -0.070541       0.004976
          24  ( 2:1:   4/   1)   222u220d       -0.955217       0.912439
          29  ( 2:1:   9/   1)   222u202d        0.083225       0.006926
          34  ( 2:1:  14/   1)   222ud202        0.086980       0.007566
         115  ( 3:1:   5/   2)   22ud2202        0.107951       0.011653
         135  ( 3:1:   5/   4)   u22d2202        0.178441       0.031841
         207  ( 4:1:   1/   2)   2u2u22dd       -0.083247       0.006930
         261  ( 5:1:   1/   7)   202u222d       -0.077690       0.006036
 
  The CI coefficients for the MIXED state nr.   3
--------------------------------------------------------------------------------
 CI COEFFICIENTS LARGER THAN  0.50D-01
  Occupation of active orbitals, and spin coupling
  of open shells. (u,d: Spin up or down).
  SGUGA info is (Midvert:IsyUp:UpperWalk/LowerWalk)
        Conf  SGUGA info        Occupation    Coefficient         Weight
           2  ( 1:1:   2/   1)   22222ud0        0.179219       0.032119
           3  ( 1:1:   3/   1)   2222u2d0       -0.392016       0.153676
           4  ( 1:1:   4/   1)   22222020        0.059405       0.003529
          41  ( 2:1:   1/   2)   22u222d0        0.844522       0.713217
          42  ( 2:1:   2/   2)   22u22d20        0.145184       0.021079
          46  ( 2:1:   6/   2)   22u2d2ud        0.073000       0.005329
          48  ( 2:1:   8/   2)   22u2u2dd       -0.104936       0.011012
          58  ( 2:1:  18/   2)   22u202d2        0.076228       0.005811
          81  ( 2:1:   1/   4)   u22222d0       -0.050365       0.002537
         141  ( 3:1:   1/   5)   22022220       -0.052863       0.002795
         151  ( 3:1:   1/   6)   2ud22220        0.116900       0.013666
         225  ( 4:1:   1/   5)   u2u222dd        0.058782       0.003455
         229  ( 4:1:   5/   5)   u2u2d2d2       -0.050908       0.002592
         302  ( 5:1:   2/  17)   02u222d2       -0.083078       0.006902
 
  The CI coefficients for the MIXED state nr.   4
--------------------------------------------------------------------------------
 CI COEFFICIENTS LARGER THAN  0.50D-01
  Occupation of active orbitals, and spin coupling
  of open shells. (u,d: Spin up or down).
  SGUGA info is (Midvert:IsyUp:UpperWalk/LowerWalk)
        Conf  SGUGA info        Occupation    Coefficient         Weight
           2  ( 1:1:   2/   1)   22222ud0       -0.164734       0.027137
           8  ( 1:1:   8/   1)   2222u20d        0.896755       0.804170
          13  ( 1:1:  13/   1)   2222u02d       -0.078558       0.006171
          17  ( 1:1:  17/   1)   22220202        0.168566       0.028414
          21  ( 2:1:   1/   1)   222u22d0        0.055246       0.003052
          24  ( 2:1:   4/   1)   222u220d       -0.072170       0.005208
          44  ( 2:1:   4/   2)   22u2220d        0.116539       0.013581
          54  ( 2:1:  14/   2)   22u2d202       -0.051102       0.002611
          61  ( 2:1:   1/   3)   2u2222d0        0.078317       0.006133
          68  ( 2:1:   8/   3)   2u22u2dd        0.081917       0.006710
          94  ( 2:1:  14/   4)   u222d202       -0.228518       0.052220
         165  ( 3:1:   5/   7)   u2d22202       -0.063779       0.004068
         174  ( 3:1:   4/   8)   2022u22d        0.073804       0.005447
         195  ( 3:1:   5/  10)   02222202       -0.098988       0.009799
 
  The CI coefficients for the MIXED state nr.   5
--------------------------------------------------------------------------------
 CI COEFFICIENTS LARGER THAN  0.50D-01
  Occupation of active orbitals, and spin coupling
  of open shells. (u,d: Spin up or down).
  SGUGA info is (Midvert:IsyUp:UpperWalk/LowerWalk)
        Conf  SGUGA info        Occupation    Coefficient         Weight
           2  ( 1:1:   2/   1)   22222ud0        0.901960       0.813531
           8  ( 1:1:   8/   1)   2222u20d        0.166469       0.027712
          10  ( 1:1:  10/   1)   2222udud        0.061971       0.003840
          12  ( 1:1:  12/   1)   2222uudd        0.119531       0.014288
          19  ( 1:1:  19/   1)   22220ud2       -0.070579       0.004981
          41  ( 2:1:   1/   2)   22u222d0       -0.181904       0.033089
          61  ( 2:1:   1/   3)   2u2222d0       -0.059406       0.003529
          62  ( 2:1:   2/   3)   2u222d20        0.229919       0.052863
          87  ( 2:1:   7/   4)   u2222udd        0.070720       0.005001
          96  ( 2:1:  16/   4)   u222dud2       -0.060442       0.003653
         151  ( 3:1:   1/   6)   2ud22220       -0.050651       0.002566
         171  ( 3:1:   1/   8)   20222220        0.056662       0.003211
         196  ( 3:1:   6/  10)   02222ud2       -0.089038       0.007928
 
  The CI coefficients for the MIXED state nr.   6
--------------------------------------------------------------------------------
 CI COEFFICIENTS LARGER THAN  0.50D-01
  Occupation of active orbitals, and spin coupling
  of open shells. (u,d: Spin up or down).
  SGUGA info is (Midvert:IsyUp:UpperWalk/LowerWalk)
        Conf  SGUGA info        Occupation    Coefficient         Weight
           2  ( 1:1:   2/   1)   22222ud0        0.052905       0.002799
           3  ( 1:1:   3/   1)   2222u2d0        0.859603       0.738918
           5  ( 1:1:   5/   1)   2222ud20       -0.082071       0.006736
          21  ( 2:1:   1/   1)   222u22d0        0.051365       0.002638
          41  ( 2:1:   1/   2)   22u222d0        0.375601       0.141076
          46  ( 2:1:   6/   2)   22u2d2ud        0.051887       0.002692
          81  ( 2:1:   1/   4)   u22222d0       -0.068149       0.004644
          86  ( 2:1:   6/   4)   u222d2ud       -0.156046       0.024350
          88  ( 2:1:   8/   4)   u222u2dd        0.207927       0.043234
         197  ( 3:1:   7/  10)   0222u2d2       -0.120192       0.014446
 
  The CI coefficients for the MIXED state nr.   7
--------------------------------------------------------------------------------
 CI COEFFICIENTS LARGER THAN  0.50D-01
  Occupation of active orbitals, and spin coupling
  of open shells. (u,d: Spin up or down).
  SGUGA info is (Midvert:IsyUp:UpperWalk/LowerWalk)
        Conf  SGUGA info        Occupation    Coefficient         Weight
           3  ( 1:1:   3/   1)   2222u2d0        0.066679       0.004446
          21  ( 2:1:   1/   1)   222u22d0       -0.833808       0.695236
          26  ( 2:1:   6/   1)   222ud2ud        0.262815       0.069072
          28  ( 2:1:   8/   1)   222uu2dd       -0.338101       0.114312
          44  ( 2:1:   4/   2)   22u2220d        0.076233       0.005811
         112  ( 3:1:   2/   2)   22ud22ud       -0.184670       0.034103
         201  ( 4:1:   1/   1)   22uu22dd       -0.180704       0.032654
         202  ( 4:1:   2/   1)   22uu2d2d       -0.054483       0.002968
         217  ( 4:1:   5/   3)   u22ud2d2       -0.077393       0.005990
         250  ( 5:1:   2/   4)   220u22d2        0.054908       0.003015
         258  ( 5:1:   2/   6)   u2du22d2        0.061483       0.003780
         270  ( 5:1:   2/   9)   022u22d2        0.069589       0.004843
 
--
 
--- Stop Module: caspt2 at Tue Jun 10 18:22:39 2025 /rc=_RC_ALL_IS_WELL_ ---
*** files: xmldump
    saved to directory /home/pcaah4/diamide_project
--- Module caspt2 spent 7 minutes 18 seconds ---

.##################.
.# Happy landing! #.
.##################.

    Timing: Wall=781.17 User=680.58 System=89.45
******************************************************
*** WorkDir at /srv/COMMUNAL_SCRATCH/12402 cleaned ***
******************************************************
