   This run of MOLCAS is using the pymolcas driver

                             OPE
                             OPE          NMOL  CASOP  ENMOLC A   SO
                 OPE        NMOLC        AS  OP EN  MO LC     AS  OP
                OPENM       OL CA        SO  PE NM  OL CA     SOP EN
                OP EN      MO   LC       AS  OP ENMOL  CASO   PENMOL
                OP  EN     MO   LC       AS  OP EN     MO     LC ASO
               OP   E  NMOL  C  AS       OP  EN MO     LC     AS  OP
               OP  E   NMO   LC AS        OPEN  MO     LCASOP EN   M
               O  PEN   MO  LCA  SO
            OPE   NMO   L   CAS    OP
        OPENMOL  CASOP     ENMOL   CASOPE
     OPENMOLCA   SOPENMOLCASOPEN   MOLCASOPE
    OPENMOLCAS   OP           EN   MOL    CAS
    OPENMOLCAS       OP  ENM        O     LCA
    OPENMOLCAS    OPEN  MOLCASO     P  E  NMO
    OPENMOLCAS     OP               E  N  MOL
    OPENMOLCA   SO           PENM   O  L  CAS    OPEN    MO    LCAS
    OPENMOLCA   SOP           ENM   O  L  CAS   OP  EN  MOLC  AS   O
    OPENMOLCA   SOPE           NM      O  LCA   S      OP  EN MO
    OPENMOLC                AS         O  PEN   M      OL  CA  SOPE
    OPENMO        LCASOPE  NMOL        C  ASO   P      ENMOLC     AS
    OPE     NMO      LCA  SO     P     E   NM   OL  CA SO  PE N   MO
          OPENMOLCA            SOPE   NMO        LCAS  O    P  ENMO
     OPENMOLCASOPENMOLCASOPENMOLCASOPENMOLCA
        OPENMOLCASOPENMOLCASOPENMOLCASOPE
            OPENMOLCASOPENMOLCASOPENM
               OPENMOLCASOPENMOLCA        version: v23.06
                   OPENMOLCASO
                       OPE                tag:

 OpenMolcas is free software; you can redistribute it and/or modify it
 under the terms of the GNU Lesser General Public License version 2.1.
 OpenMolcas is distributed in the hope that it will be useful, but it
 is provided "as is" and without any express or implied warranties.
 For more details see the full text of the license in the file
 LICENSE or in <http://www.gnu.org/licenses/>.

                 Copyright (C) The OpenMolcas Authors
           For the author list and the recommended citation,
                   consult the file CONTRIBUTORS.md

           *************************************************
           * pymolcas version py2.24                       *
           *   build 4567b286dd94b1984b333a4ddf893180      *
           *   (after the EMIL interpreter by V. Veryazov) *
           *************************************************

configuration info
------------------
Host name: loginchem01.nottingham.ac.uk (Linux)
C Compiler ID: Intel
C flags: -std=gnu99 -gcc-sys -qopenmp
Fortran Compiler ID: Intel
Fortran flags: -fpp -i8 -heap-arrays -qopenmp
Definitions: _MOLCAS_;_I8_;_LINUX_
Parallel: OFF (GA=OFF)


   ---------------------------------------------------------------------------------------------------
  |
  |              Project: orca_geometry_optimisation_15_315_BP86_def2-SVP_def2J_scf_cas1_ras12i11_cas8
  |       Submitted from: /home/pcaah4/diamide_project
  |         Scratch area: /srv/COMMUNAL_SCRATCH/12380
  |      Save outputs to: /home/pcaah4/diamide_project
  |               Molcas: /software/chemistry/openmolcas/openmolcas-23.06-openmp
  |
  | Scratch area is empty
  |
  |       MOLCAS_DRIVER = /software/chemistry/openmolcas/openmolcas-23.06-openmp/sbin/pymolcas
  | MOLCAS_KEEP_WORKDIR = NO
  |       MOLCAS_NPROCS = 1
  |       MOLCAS_SOURCE = /software/chemistry/openmolcas/openmolcas-23.06-openmp
  |    MOLCAS_STRUCTURE = 0
  |
   ---------------------------------------------------------------------------------------------------

++ ---------   Input file   ---------

&SEWARD
TITLE
orca_geometry_optimisation_15_315_BP86_def2-SVP_def2J_scf_cas1_ras12i11
MULTIPOLES
2
SDIPOLE
ANGMOM
0 0 0
BASIS SET
C.ANO-S...4S3P1D.
C1           -0.195049   -0.516687   -0.090460 /Angstrom
C3            1.749693    1.209200    0.000315 /Angstrom
C4            1.019182    2.526937    0.384636 /Angstrom
C6           -0.902991    4.010518    0.083249 /Angstrom
C19          -0.412168   -2.017262    0.082402 /Angstrom
END OF BASIS
BASIS SET
N.ANO-S...4S3P1D.
N2            1.113405   -0.119383   -0.063522 /Angstrom
N5           -0.197104    2.767931   -0.172523 /Angstrom
END OF BASIS
BASIS SET
O.ANO-S...4S3P1D.
O7           -1.165863    0.231645   -0.267906 /Angstrom
O8            1.677493    3.348018    1.029516 /Angstrom
END OF BASIS
BASIS SET
H.ANO-S...2S1P.
H9           -1.020795   -2.385003   -0.766649 /Angstrom
H10          -1.010565   -2.179995    1.001382 /Angstrom
H11           0.517728   -2.615058    0.150700 /Angstrom
H12           1.779351   -0.878496    0.090108 /Angstrom
H13           2.570179    1.144718    0.739998 /Angstrom
H14           2.229308    1.426398   -0.983120 /Angstrom
H15          -0.735724    1.919199   -0.442577 /Angstrom
H16          -1.746073    3.870834    0.795347 /Angstrom
H17          -0.188236    4.732059    0.522311 /Angstrom
H18          -1.314665    4.429315   -0.858904 /Angstrom
END OF BASIS
END OF INPUT

&RASSCF
TITLE
orca_geometry_optimisation_15_315_BP86_def2-SVP_def2J_scf_cas1_ras12i11
LUMORB
SPIN
1
SYMMETRY
1
NACTEL
12  0  0
INACTIVE
29
DELETED  ! delete Rydberg orbitals from an initial CAS(12,11) if done
3
FROZEN
0
RAS2
8
ITERATIONS
64 25
CIROOT
7 7
1 2 3 4 5 6 7
1 1 1 1 1 1 1
LEVSHFT
0.3
CIMX
20
FILEorb = /home/pcaah4/diamide_project/cas/ras12i11/ras_orb/orca_geometry_optimisation_15_315_BP86_def2-SVP_def2J_scf_cas1_ras12i11.RasOrb
ALTEr
0
END OF INPUT

&RASSI
NROF JOBIPH
    1 7
    1 2 3 5 4 6 7
TOFILE
TRDI
TDMN
1.0D-6
END OF INPUT

&CASPT2
TITLE
orca_geometry_optimisation_15_315_BP86_def2-SVP_def2J_scf_cas1_ras12i11
MULTISTATE
7 1 2 3 4 5 6 7
SHIFT
0.35
MAXITER
50
END OF INPUT

-- ----------------------------------

--- Start Module: seward at Tue Jun 10 17:12:31 2025 ---
 
()()()()()()()()()()()()()()()()()()()()()()()()()()()()()()()()()()()()()()()()()()()()()()()()()()

                                              &SEWARD

                                   only a single process is used
                       available to each process: 2.0 GB of memory, 1 thread
                                            pid: 3120645
()()()()()()()()()()()()()()()()()()()()()()()()()()()()()()()()()()()()()()()()()()()()()()()()()()
 
               SEWARD will generate:
                  Multipole Moment integrals up to order  2
                  Kinetic Energy integrals
                  Nuclear Attraction integrals (point charge)
                  One-Electron Hamiltonian integrals
                  Velocity integrals
                  Orbital angular momentum around ( 0.0000  0.0000  0.0000 )
                  Velocity quadrupole around ( 0.5406  2.4180  0.2128 )
                  Two-Electron Repulsion integrals
 
 Title:
            orca_geometry_optimisation_15_315_BP86_def2-SVP_def2J_scf_cas1_ras12i11     
 
 
                   Integrals are discarded if absolute value <: 0.10E-13
                   Integral cutoff threshold is set to       <: 0.10E-15
 
++    Symmetry information:
      ---------------------
 
                    Character Table for C1 
 
                             E  
                    a        1  x, y, xy, Rz, z, xz, Ry, yz, Rx, I
--
 
 
++    Basis set information:
      ----------------------
 
 
      Basis set label: C.ANO-S...4S3P1D......
 
      Electronic valence basis set:
      ------------------
      Associated Effective Charge   6.000000 au
      Associated Actual Charge      6.000000 au
      Nuclear Model: Point charge
 
      Shell  nPrim  nBasis  Cartesian Spherical Contaminant
         s      10       4        X                  
         p       6       3        X                  
         d       3       1                 X         
 
 
      Basis set label: N.ANO-S...4S3P1D......
 
      Electronic valence basis set:
      ------------------
      Associated Effective Charge   7.000000 au
      Associated Actual Charge      7.000000 au
      Nuclear Model: Point charge
 
      Shell  nPrim  nBasis  Cartesian Spherical Contaminant
         s      10       4        X                  
         p       6       3        X                  
         d       3       1                 X         
 
 
      Basis set label: O.ANO-S...4S3P1D......
 
      Electronic valence basis set:
      ------------------
      Associated Effective Charge   8.000000 au
      Associated Actual Charge      8.000000 au
      Nuclear Model: Point charge
 
      Shell  nPrim  nBasis  Cartesian Spherical Contaminant
         s      10       4        X                  
         p       6       3        X                  
         d       3       1                 X         
 
 
      Basis set label: H.ANO-S...2S1P......
 
      Electronic valence basis set:
      ------------------
      Associated Effective Charge   1.000000 au
      Associated Actual Charge      1.000000 au
      Nuclear Model: Point charge
 
      Shell  nPrim  nBasis  Cartesian Spherical Contaminant
         s       7       2        X                  
         p       3       1        X                  
--
 
 
++    Molecular structure info:
      -------------------------
 
                    ************************************************ 
                    **** Cartesian Coordinates / Bohr, Angstrom **** 
                    ************************************************ 
 
     Center  Label                x              y              z                     x              y              z
        1      C1              -0.368589      -0.976397      -0.170945             -0.195049      -0.516687      -0.090460
        2      C3               3.306441       2.285057       0.000595              1.749693       1.209200       0.000315
        3      C4               1.925975       4.775219       0.726857              1.019182       2.526937       0.384636
        4      C6              -1.706406       7.578781       0.157318             -0.902991       4.010518       0.083249
        5      C19             -0.778885      -3.812073       0.155717             -0.412168      -2.017262       0.082402
        6      N2               2.104031      -0.225601      -0.120039              1.113405      -0.119383      -0.063522
        7      N5              -0.372473       5.230632      -0.326021             -0.197104       2.767931      -0.172523
        8      O7              -2.203162       0.437746      -0.506269             -1.165863       0.231645      -0.267906
        9      O8               3.170002       6.326837       1.945503              1.677493       3.348018       1.029516
       10      H9              -1.929023      -4.507002      -1.448757             -1.020795      -2.385003      -0.766649
       11      H10             -1.909691      -4.119594       1.892338             -1.010565      -2.179995       1.001382
       12      H11              0.978364      -4.941743       0.284782              0.517728      -2.615058       0.150700
       13      H12              3.362486      -1.660117       0.170279              1.779351      -0.878496       0.090108
       14      H13              4.856934       2.163204       1.398394              2.570179       1.144718       0.739998
       15      H14              4.212782       2.695502      -1.857828              2.229308       1.426398      -0.983120
       16      H15             -1.390317       3.626760      -0.836349             -0.735724       1.919199      -0.442577
       17      H16             -3.299600       7.314816       1.502988             -1.746073       3.870834       0.795347
       18      H17             -0.355714       8.942296       0.987025             -0.188236       4.732059       0.522311
       19      H18             -2.484357       8.370192      -1.623093             -1.314665       4.429315      -0.858904
 
                    ************************************************* 
                    **** InterNuclear Distances / Bohr, Angstrom **** 
                    ************************************************* 
 
     Atom centers         Bohr        Angstrom
   13 H12       6 N2      1.930241        1.021440
   16 H15       7 N5      1.966938        1.040859
   18 H17       4 C6      2.090922        1.106468
   14 H13       2 C3      2.091105        1.106565
   10 H9        5 C19     2.092865        1.107496
   12 H11       5 C19     2.093021        1.107579
   11 H10       5 C19     2.095028        1.108641
   19 H18       4 C6      2.097952        1.110189
   17 H16       4 C6      2.102088        1.112377
   15 H14       2 C3      2.107998        1.115504
    9 O8        3 C4      2.332429        1.234268
    8 O7        1 C1      2.340491        1.238534
    7 N5        3 C4      2.568816        1.359359
    6 N2        1 C1      2.584595        1.367709
    7 N5        4 C6      2.743501        1.451798
    6 N2        2 C3      2.786350        1.474473
    5 C19       1 C1      2.883766        1.526023
    3 C4        2 C3      2.938375        1.554921
   16 H15       8 O7      3.307489        1.750248
   15 H14      14 H13     3.361733        1.778953
   11 H10      10 H9      3.363535        1.779906
   19 H18      17 H16     3.398650        1.798488
   18 H17      17 H16     3.403141        1.800865
   12 H11      11 H10     3.406028        1.802393
   12 H11      10 H9      3.412778        1.805964
   19 H18      18 H17     3.416305        1.807830
   13 H12       1 C1      3.808521        2.015382
   16 H15       3 C4      3.841921        2.033057
   18 H17       7 N5      3.937108        2.083428
   14 H13       6 N2      3.948481        2.089446
   13 H12       2 C3      3.949219        2.089837
   14 H13       3 C4      3.982978        2.107701
   19 H18       7 N5      3.999912        2.116662
   15 H14       6 N2      3.999948        2.116681
   15 H14       3 C4      4.029305        2.132217
   17 H16       7 N5      4.032019        2.133652
   13 H12      12 H11     4.057859        2.147327
   11 H10       1 C1      4.063473        2.150297
   10 H9        1 C1      4.066071        2.151672
   16 H15       4 C6      4.087267        2.162888
   12 H11       1 C1      4.212593        2.229208
   14 H13      13 H12     4.284789        2.267413
    9 O8        7 N5      4.348634        2.301198
    8 O7        6 N2      4.375055        2.315179
    9 O8        2 C3      4.487457        2.374660
   18 H17       9 O8      4.493327        2.377766
   14 H13       9 O8      4.525584        2.394836
    8 O7        5 C19     4.530756        2.397573
    6 N2        5 C19     4.609774        2.439388
    4 C6        3 C4      4.623691        2.446752
   13 H12       5 C19     4.667127        2.469737
    7 N5        2 C3      4.724139        2.499907
   18 H17       3 C4      4.757975        2.517812
   16 H15       1 C1      4.761906        2.519892
   17 H16      16 H15     4.766510        2.522328
   12 H11       6 N2      4.865491        2.574707
   15 H14      13 H12     4.879307        2.582018
    2 C3        1 C1      4.916538        2.601720
   19 H18      16 H15     4.931129        2.609441
   16 H15       2 C3      4.955822        2.622508
   10 H9        8 O7      5.041227        2.667702
    6 N2        3 C4      5.075149        2.685653
    8 O7        7 N5      5.133777        2.716678
   11 H10       8 O7      5.158370        2.729692
   16 H15       6 N2      5.250167        2.778269
    9 O8        4 C6      5.342689        2.827229
   15 H14       9 O8      5.360906        2.836869
   15 H14       7 N5      5.458743        2.888642
--
 
 
            Nuclear Potential Energy            458.96921148 au
 
 
      Basis set specifications :
      Symmetry species         a  
      Basis functions          212
 
 
      Input file to MOLDEN was generated!
 
--- Stop Module: seward at Tue Jun 10 17:14:22 2025 /rc=_RC_ALL_IS_WELL_ ---
*** files: orca_geometry_optimisation_15_315_BP86_def2-SVP_def2J_scf_cas1_ras12i11_cas8.GssOrb
           orca_geometry_optimisation_15_315_BP86_def2-SVP_def2J_scf_cas1_ras12i11_cas8.guessorb.molden xmldump
    saved to directory /home/pcaah4/diamide_project
--- Module seward spent 1 minute 50 seconds ---

*** symbolic link created: INPORB -> orca_geometry_optimisation_15_315_BP86_def2-SVP_def2J_scf_cas1_ras12i11_cas8.GssOrb
--- Start Module: rasscf at Tue Jun 10 17:14:22 2025 ---
 
()()()()()()()()()()()()()()()()()()()()()()()()()()()()()()()()()()()()()()()()()()()()()()()()()()

                                              &RASSCF

                                   only a single process is used
                       available to each process: 2.0 GB of memory, 1 thread
                                            pid: 3120675
()()()()()()()()()()()()()()()()()()()()()()()()()()()()()()()()()()()()()()()()()()()()()()()()()()
 
 
      Header of the ONEINT file:
      --------------------------
      orca_geometry_optimisation_15_315_BP86_def2-SVP_def2J_scf_cas1_ras12i11
      Integrals generated by Gateway/Seward, Tue Jun 10 17:12:32 2025
 
 
      OrdInt status: non-squared
 
 
      Cartesian coordinates in Angstrom:
      -----------------------------------------------------
      No.  Label        X            Y            Z        
      -----------------------------------------------------
       1   C1        -0.19504900  -0.51668700  -0.09046000
       2   C3         1.74969300   1.20920000   0.00031500
       3   C4         1.01918200   2.52693700   0.38463600
       4   C6        -0.90299100   4.01051800   0.08324900
       5   C19       -0.41216800  -2.01726200   0.08240200
       6   N2         1.11340500  -0.11938300  -0.06352200
       7   N5        -0.19710400   2.76793100  -0.17252300
       8   O7        -1.16586300   0.23164500  -0.26790600
       9   O8         1.67749300   3.34801800   1.02951600
      10   H9        -1.02079500  -2.38500300  -0.76664900
      11   H10       -1.01056500  -2.17999500   1.00138200
      12   H11        0.51772800  -2.61505800   0.15070000
      13   H12        1.77935100  -0.87849600   0.09010800
      14   H13        2.57017900   1.14471800   0.73999800
      15   H14        2.22930800   1.42639800  -0.98312000
      16   H15       -0.73572400   1.91919900  -0.44257700
      17   H16       -1.74607300   3.87083400   0.79534700
      18   H17       -0.18823600   4.73205900   0.52231100
      19   H18       -1.31466500   4.42931500  -0.85890400
      -----------------------------------------------------
      Nuclear repulsion energy =  458.96921148
 
++    Wave function specifications:
      -----------------------------
 
      Number of closed shell electrons          58
      Number of electrons in active shells      12
      Max number of holes in RAS1 space          0
      Max nr of electrons in RAS3 space          0
      Number of inactive orbitals               29
      Number of active orbitals                  8
      Number of secondary orbitals             172
      Spin quantum number                      0.0
      State symmetry                             1
--
 
++    Orbital specifications:
      -----------------------
 
      Symmetry species                           1
                                                 a
      Frozen orbitals                            0
      Inactive orbitals                         29
      Active orbitals                            8
      RAS1 orbitals                              0
      RAS2 orbitals                              8
      RAS3 orbitals                              0
      Secondary orbitals                       172
      Deleted orbitals                           3
      Number of basis functions                212
--
 
++    CI expansion specifications:
      ----------------------------
 
      Number of CSFs                           336
      Number of determinants                   406
      Number of root(s) required                 7
      Root chosen for geometry opt.              7
      CI roots used                              1     2     3     4     5     6     7
      weights                                0.143 0.143 0.143 0.143 0.143 0.143 0.143
      highest root included in the CI            7
      max. size of the explicit Hamiltonian    200
--
 
++    Optimization specifications:
      ----------------------------
 
      RASSCF algorithm: Conventional
      Maximum number of macro iterations        64
      Maximum number of SX iterations           25
      Threshold for RASSCF energy            0.100E-07
      Threshold for max MO rotation          0.100E+00
      Threshold for max BLB element          0.100E-03
      Level shift parameter                  0.300E+00
      Make Quasi-Newton update
--
 
      The MO-coefficients are taken from the file:
      /home/pcaah4/diamide_project/cas/ras12i11/ras_orb/orca_geometry_optimisation_15_315_BP86_def2-SVP_def2J_scf_cas1_ras12i11.RasOrb                                                                                                                                
      Title: RASSCF average (pseudo-natural) orbitals                                      
 
      Total molecular charge    0.00
 
      ************************************************************************************************************************
      *                                                                                                                      *
      *                                            Wave function control section                                             *
      *                                                                                                                      *
      ************************************************************************************************************************
 
 
                                         RASSCF iterations: Energy and convergence statistics
                                         ----------------------------------------------------
 
      Iter CI   SX   CI       RASSCF       Energy    max ROT     max BLB   max BLB  Level Ln srch  Step   QN   Walltime
          iter iter root      energy       change     param      element    value   shift minimum  type update hh:mm:ss
 Nr of preliminary CI iterations:   5
        1   1   25    0  -453.68721630    0.00E+00   0.35E-01   34  39 1 -0.33E-01*  0.19   0.00    SX    NO    0:00:13
        2   4   20    0  -453.69548868   -0.83E-02* -0.17E-01   31  38 1  0.66E-02*  0.19   0.00    SX    NO    0:00:07
        3   1   12    0  -453.69654189   -0.11E-02*  0.90E-02   34  39 1 -0.49E-02*  0.19   0.00    SX    NO    0:00:06
        4   5   12    0  -453.69684802   -0.31E-03* -0.51E-02   32  40 1 -0.21E-02*  0.19   0.00    SX    NO    0:00:06
        5   3   11    0  -453.69693640   -0.88E-04* -0.72E-02   34  39 1 -0.75E-03*  0.19   1.49    QN   YES    0:00:07
        6   5   10    0  -453.69698127   -0.45E-04* -0.21E-02   32  40 1  0.48E-03*  0.19   1.15    QN   YES    0:00:07
        7   3    9    0  -453.69698561   -0.43E-05*  0.13E-02   34  39 1  0.16E-03*  0.19   1.34    QN   YES    0:00:07
        8   4    9    0  -453.69698718   -0.16E-05*  0.56E-03   34  39 1  0.12E-03*  0.19   1.14    QN   YES    0:00:06
        9   3    8    0  -453.69698752   -0.35E-06* -0.50E-03   37  41 1 -0.44E-04   0.19   1.40    QN   YES    0:00:06
       10   3    7    0  -453.69698761   -0.91E-07* -0.31E-03   34  39 1 -0.27E-04   0.19   1.29    QN   YES    0:00:06
       11   3    7    0  -453.69698764   -0.30E-07* -0.26E-03   34  39 1 -0.21E-04   0.19   1.63    QN   YES    0:00:06
       12   1    6    0  -453.69698766   -0.13E-07*  0.50E-04   33  38 1  0.66E-05   0.19   1.18    QN   YES    0:00:06
       13   1    5    0  -453.69698766   -0.19E-08  -0.18E-04   34  39 1  0.16E-05   0.19   1.35    QN   YES    0:00:06
      Convergence after 13 iterations
       14   1    5    0  -453.69698766   -0.43E-09  -0.18E-04   34  39 1  0.17E-05   0.19   1.35    QN   YES    0:00:06
 
      ************************************************************************************************************************
                                                      Wave function printout:
                       occupation of active orbitals, and spin coupling of open shells (u,d: Spin up or down)
      ************************************************************************************************************************
 
      Note: transformation to natural orbitals
      has been made, which may change the order of the CSFs.
 
      printout of CI-coefficients larger than  0.05 for root  1
      energy=    -453.941734
      conf/sym  11111111     Coeff  Weight
             1  22222200   0.96186 0.92518
             2  22222ud0  -0.09577 0.00917
             4  22222020  -0.09666 0.00934
            64  2u22220d   0.12384 0.01534
            81  u22222d0  -0.09295 0.00864
            82  u2222d20  -0.06397 0.00409
           105  22202202  -0.08002 0.00640
           175  20222202  -0.07730 0.00598
           191  02222220  -0.09644 0.00930
 
      printout of CI-coefficients larger than  0.05 for root  2
      energy=    -453.734194
      conf/sym  11111111     Coeff  Weight
             2  22222ud0   0.06212 0.00386
             3  2222u2d0   0.95360 0.90935
             5  2222ud20   0.13745 0.01889
             8  2222u20d  -0.06644 0.00441
            66  2u22d2ud   0.06435 0.00414
            68  2u22u2dd   0.10870 0.01182
            83  u222d220   0.16577 0.02748
           107  2220u2d2  -0.08012 0.00642
           177  2022u2d2  -0.07763 0.00603
 
      printout of CI-coefficients larger than  0.05 for root  3
      energy=    -453.712931
      conf/sym  11111111     Coeff  Weight
             7  22222u0d  -0.14089 0.01985
             8  2222u20d   0.06937 0.00481
            44  22u2220d   0.94154 0.88649
            45  22u22dud  -0.06557 0.00430
            47  22u22udd  -0.10832 0.01173
            49  22u2202d  -0.08688 0.00755
           115  22ud2202   0.15185 0.02306
           155  2ud22202  -0.11330 0.01284
           225  u2u222dd   0.07163 0.00513
           226  u2u22d2d   0.06017 0.00362
           301  02u2222d   0.09830 0.00966
 
      printout of CI-coefficients larger than  0.05 for root  4
      energy=    -453.643781
      conf/sym  11111111     Coeff  Weight
             1  22222200   0.05282 0.00279
             2  22222ud0   0.40147 0.16118
             3  2222u2d0  -0.06148 0.00378
             4  22222020  -0.09912 0.00982
             7  22222u0d  -0.37596 0.14134
             8  2222u20d  -0.40810 0.16654
            10  2222udud  -0.07207 0.00519
            12  2222uudd  -0.10652 0.01135
            24  222u220d   0.63594 0.40442
            27  222u2udd  -0.05594 0.00313
            29  222u202d  -0.07174 0.00515
            44  22u2220d  -0.05581 0.00311
            81  u22222d0  -0.05615 0.00315
            82  u2222d20   0.09605 0.00923
            85  u2222dud  -0.05092 0.00259
            87  u2222udd  -0.05330 0.00284
           125  2u2d2202  -0.15317 0.02346
           213  u22u22dd   0.06674 0.00445
           269  022u222d   0.06320 0.00399
 
      printout of CI-coefficients larger than  0.05 for root  5
      energy=    -453.626447
      conf/sym  11111111     Coeff  Weight
             2  22222ud0  -0.14247 0.02030
             7  22222u0d  -0.86507 0.74834
             8  2222u20d   0.14726 0.02169
            24  222u220d  -0.32005 0.10243
            44  22u2220d  -0.12442 0.01548
            73  2u222d02   0.06846 0.00469
            85  u2222dud  -0.15278 0.02334
            87  u2222udd  -0.15829 0.02506
           125  2u2d2202   0.07174 0.00515
           193  02222u2d  -0.12308 0.01515
 
      printout of CI-coefficients larger than  0.05 for root  6
      energy=    -453.617271
      conf/sym  11111111     Coeff  Weight
             1  22222200   0.07658 0.00586
             2  22222ud0   0.80857 0.65379
             4  22222020  -0.16810 0.02826
             8  2222u20d   0.14466 0.02093
            24  222u220d  -0.43012 0.18500
            65  2u222dud   0.05353 0.00287
            67  2u222udd   0.08943 0.00800
            82  u2222d20   0.20209 0.04084
           106  22202ud2  -0.07313 0.00535
           125  2u2d2202   0.10524 0.01107
           176  20222ud2  -0.05956 0.00355
           191  02222220   0.09691 0.00939
 
      printout of CI-coefficients larger than  0.05 for root  7
      energy=    -453.602555
      conf/sym  11111111     Coeff  Weight
             2  22222ud0  -0.08904 0.00793
             4  22222020   0.05059 0.00256
             8  2222u20d  -0.79662 0.63460
            10  2222udud  -0.17765 0.03156
            12  2222uudd  -0.26420 0.06980
            24  222u220d  -0.44244 0.19575
            44  22u2220d   0.08294 0.00688
            74  2u22d202   0.05581 0.00312
            81  u22222d0   0.05729 0.00328
            91  u222ud2d   0.07001 0.00490
           125  2u2d2202   0.10052 0.01011
           194  0222u22d  -0.06792 0.00461
 
      Natural orbitals and occupation numbers for root  1
      sym 1:   1.994305   1.974200   1.999909   1.993099   1.999703   1.951907   0.054020   0.032856
 
      Natural orbitals and occupation numbers for root  2
      sym 1:   1.999862   1.972897   1.999827   1.993341   1.007008   1.999476   0.993801   0.033787
 
      Natural orbitals and occupation numbers for root  3
      sym 1:   1.995458   1.999966   0.987706   1.999679   1.999386   1.948918   0.055508   1.013379
 
      Natural orbitals and occupation numbers for root  4
      sym 1:   1.942514   1.966493   1.999678   1.188688   1.992857   1.796344   0.253183   0.860244
 
      Natural orbitals and occupation numbers for root  5
      sym 1:   1.912160   1.995458   1.999295   1.986467   1.998735   1.048401   0.095488   0.963997
 
      Natural orbitals and occupation numbers for root  6
      sym 1:   1.946913   1.968816   1.999716   1.759211   1.997982   1.265026   0.788269   0.274067
 
      Natural orbitals and occupation numbers for root  7
      sym 1:   1.974557   1.995199   1.999672   1.954077   1.103772   1.922695   0.103312   0.946716
 
      ************************************************************************************************************************
      *                                                                                                                      *
      *                                                    Final results                                                     *
      *                                                                                                                      *
      ************************************************************************************************************************
 
 
++    Wave function specifications:
      -----------------------------
 
      Number of closed shell electrons          58
      Number of electrons in active shells      12
      Max number of holes in RAS1 space          0
      Max nr of electrons in RAS3 space          0
      Number of inactive orbitals               29
      Number of active orbitals                  8
      Number of secondary orbitals             172
      Spin quantum number                      0.0
      State symmetry                             1
--
 
++    Orbital specifications:
      -----------------------
 
      Symmetry species                           1
                                                 a
      Frozen orbitals                            0
      Inactive orbitals                         29
      Active orbitals                            8
      RAS1 orbitals                              0
      RAS2 orbitals                              8
      RAS3 orbitals                              0
      Secondary orbitals                       172
      Deleted orbitals                           3
      Number of basis functions                212
--
 
++    CI expansion specifications:
      ----------------------------
 
      Number of CSFs                           336
      Number of determinants                   406
      Number of root(s) required                 7
      CI roots used                              1     2     3     4     5     6     7
      weights                                0.143 0.143 0.143 0.143 0.143 0.143 0.143
      highest root included in the CI            7
      Root passed to geometry opt.               7
--
 
++    Final optimization conditions:
      ------------------------------
 
      Average CI energy                            -453.69698766
      RASSCF energy for state  7                   -453.60255479
      Super-CI energy                                -0.00000000
      RASSCF energy change                            0.00000000
      Max change in MO coefficients              -0.306E-04
      Max non-diagonal density matrix element    -0.179E-04
      Maximum BLB matrix element                  0.172E-05
      (orbital pair  34,  39 in symmetry   1)
      Norm of electronic gradient            0.327E+00
--
 
 
      Final state energy(ies):
      ------------------------
 
::    RASSCF root number  1 Total energy:   -453.94173357
::    RASSCF root number  2 Total energy:   -453.73419417
::    RASSCF root number  3 Total energy:   -453.71293135
::    RASSCF root number  4 Total energy:   -453.64378132
::    RASSCF root number  5 Total energy:   -453.62644708
::    RASSCF root number  6 Total energy:   -453.61727132
::    RASSCF root number  7 Total energy:   -453.60255479
 
++    Molecular orbitals:
      -------------------
 
      Pseudonatural active orbitals and approximate occupation numbers
 
 
 
 
      Molecular orbitals for symmetry species 1: a  
 
 
      Orbital                 1         2         3         4         5         6         7         8         9        10
      Energy           -20.6004  -20.5236  -15.6221  -15.5946  -11.3440  -11.3018  -11.2841  -11.2834  -11.2257   -1.4238
      Occ. No.           2.0000    2.0000    2.0000    2.0000    2.0000    2.0000    2.0000    2.0000    2.0000    2.0000
 
     1 C1     1s        -0.0001    0.0003    0.0000    0.0002   -0.0001   -0.0009    0.9999   -0.0000   -0.0052   -0.0003
     2 C1     2s        -0.0007    0.0006    0.0000    0.0006   -0.0004   -0.0016    0.0020   -0.0005   -0.0005    0.0266
     3 C1     3s        -0.0005   -0.0007   -0.0001    0.0002   -0.0003   -0.0012   -0.0004   -0.0004   -0.0007    0.0097
     4 C1     4s        -0.0001   -0.0004   -0.0001    0.0001   -0.0001   -0.0003    0.0012   -0.0001   -0.0002    0.0035
     5 C1     2px       -0.0003   -0.0018    0.0001    0.0015   -0.0003   -0.0009    0.0011   -0.0001   -0.0001    0.0101
     6 C1     3px       -0.0005   -0.0011    0.0001    0.0012   -0.0003   -0.0009    0.0008   -0.0003    0.0001    0.0171
     7 C1     4px       -0.0001    0.0003   -0.0000   -0.0001   -0.0000   -0.0001    0.0002   -0.0001    0.0001    0.0038
     8 C1     2py        0.0003    0.0021   -0.0001    0.0007   -0.0006   -0.0003    0.0010   -0.0001   -0.0008    0.0159
     9 C1     3py        0.0003    0.0012   -0.0002    0.0004   -0.0008   -0.0007    0.0010   -0.0001   -0.0000    0.0181
    10 C1     4py       -0.0000   -0.0004   -0.0001   -0.0001   -0.0001   -0.0003    0.0007   -0.0000    0.0003    0.0068
    11 C1     2pz       -0.0001   -0.0004    0.0000    0.0001    0.0000    0.0000   -0.0001    0.0001    0.0001   -0.0017
    12 C1     3pz       -0.0000   -0.0002   -0.0000    0.0000   -0.0000    0.0001    0.0001    0.0000    0.0000   -0.0013
    13 C1     4pz        0.0000    0.0001   -0.0000   -0.0000   -0.0000    0.0000   -0.0001   -0.0000   -0.0000   -0.0002
    14 C1     3d2-       0.0000    0.0002    0.0000   -0.0000   -0.0000   -0.0000   -0.0003    0.0000    0.0000   -0.0009
    15 C1     3d1-       0.0000   -0.0000   -0.0000    0.0000    0.0000    0.0000   -0.0001    0.0000    0.0000   -0.0004
    16 C1     3d0       -0.0000   -0.0000   -0.0000    0.0001    0.0000   -0.0000   -0.0003    0.0000    0.0001   -0.0010
    17 C1     3d1+      -0.0000   -0.0000    0.0000    0.0000   -0.0000    0.0000    0.0001   -0.0000   -0.0000    0.0004
    18 C1     3d2+       0.0000   -0.0000    0.0000   -0.0002    0.0000    0.0000    0.0003    0.0000   -0.0001    0.0004
    19 C3     1s         0.0001    0.0001    0.0000    0.0005    0.0064    0.9996    0.0006    0.0000    0.0000   -0.0126
    20 C3     2s         0.0005    0.0006    0.0003    0.0028    0.0002   -0.0008    0.0001    0.0009    0.0003    0.0103
    21 C3     3s         0.0004    0.0004    0.0002    0.0015   -0.0001   -0.0022    0.0000    0.0005    0.0001   -0.0353
    22 C3     4s         0.0000    0.0001    0.0000    0.0002   -0.0000    0.0007   -0.0001    0.0000   -0.0000   -0.0044
    23 C3     2px       -0.0006   -0.0004    0.0003   -0.0006    0.0002    0.0001    0.0006   -0.0002    0.0001    0.0052
    24 C3     3px       -0.0004   -0.0004    0.0002   -0.0001    0.0004    0.0001    0.0007   -0.0003    0.0002    0.0130
    25 C3     4px        0.0001    0.0000    0.0000    0.0003   -0.0000   -0.0007    0.0002   -0.0000    0.0001   -0.0039
    26 C3     2py       -0.0010   -0.0000    0.0002   -0.0003   -0.0001   -0.0005    0.0004   -0.0001   -0.0002    0.0285
    27 C3     3py       -0.0012   -0.0000    0.0000    0.0004   -0.0008   -0.0005    0.0004   -0.0004   -0.0000    0.0075
    28 C3     4py       -0.0002   -0.0000   -0.0001    0.0003   -0.0003   -0.0005    0.0000   -0.0002    0.0001    0.0079
    29 C3     2pz       -0.0008   -0.0001    0.0006    0.0001    0.0003   -0.0000    0.0003   -0.0002   -0.0001    0.0183
    30 C3     3pz       -0.0008   -0.0001    0.0005    0.0002    0.0002    0.0000    0.0003   -0.0003   -0.0001    0.0054
    31 C3     4pz       -0.0001    0.0000   -0.0000   -0.0000    0.0000   -0.0000    0.0001   -0.0001    0.0000    0.0007
    32 C3     3d2-      -0.0000    0.0000   -0.0000    0.0000   -0.0000   -0.0000    0.0000   -0.0001    0.0000   -0.0012
    33 C3     3d1-      -0.0000    0.0000    0.0001   -0.0000   -0.0000   -0.0000    0.0000    0.0000   -0.0000    0.0022
    34 C3     3d0       -0.0001    0.0000   -0.0000    0.0000    0.0001    0.0001   -0.0000   -0.0000   -0.0000    0.0000
    35 C3     3d1+       0.0000   -0.0000    0.0001   -0.0000   -0.0001    0.0000    0.0000   -0.0000   -0.0000   -0.0015
    36 C3     3d2+       0.0001   -0.0000   -0.0000    0.0001   -0.0000    0.0000    0.0001   -0.0000   -0.0000   -0.0058
    37 C4     1s         0.0004   -0.0000    0.0003   -0.0002    1.0000   -0.0063   -0.0001    0.0002   -0.0000   -0.0407
    38 C4     2s         0.0017   -0.0002    0.0011   -0.0012    0.0025    0.0007   -0.0005   -0.0000    0.0000    0.3415
    39 C4     3s         0.0001   -0.0002    0.0003   -0.0008    0.0001    0.0002   -0.0004   -0.0001    0.0000   -0.0150
    40 C4     4s        -0.0003   -0.0000    0.0000   -0.0002    0.0013    0.0001   -0.0001   -0.0001   -0.0000    0.0012
    41 C4     2px        0.0018    0.0001   -0.0015   -0.0004   -0.0004    0.0004   -0.0003    0.0002   -0.0001    0.0412
    42 C4     3px        0.0014    0.0002   -0.0010   -0.0005   -0.0004    0.0006   -0.0003    0.0008   -0.0001   -0.0419
    43 C4     4px       -0.0001    0.0001    0.0002   -0.0001   -0.0001    0.0002   -0.0000    0.0004   -0.0001    0.0090
    44 C4     2py        0.0020   -0.0001    0.0006    0.0010    0.0010   -0.0008    0.0004    0.0001    0.0000    0.0925
    45 C4     3py        0.0014   -0.0001    0.0003    0.0010    0.0005   -0.0001    0.0007   -0.0004    0.0002   -0.0463
    46 C4     4py       -0.0002   -0.0000   -0.0002    0.0001    0.0005    0.0003    0.0002   -0.0004    0.0001    0.0192
    47 C4     2pz        0.0015    0.0000   -0.0006   -0.0001   -0.0005   -0.0004   -0.0004    0.0000   -0.0000    0.0512
    48 C4     3pz        0.0010    0.0001   -0.0006   -0.0002   -0.0002   -0.0002   -0.0004   -0.0001   -0.0000   -0.0268
    49 C4     4pz       -0.0001    0.0000   -0.0000   -0.0000   -0.0000    0.0001   -0.0000   -0.0000    0.0000    0.0138
    50 C4     3d2-      -0.0001   -0.0000   -0.0000    0.0000    0.0003   -0.0000   -0.0000   -0.0000   -0.0000    0.0233
    51 C4     3d1-      -0.0001   -0.0000    0.0000    0.0000    0.0003   -0.0001   -0.0000    0.0000   -0.0000    0.0264
    52 C4     3d0       -0.0001    0.0000    0.0000   -0.0000   -0.0002    0.0000    0.0000   -0.0001   -0.0000   -0.0076
    53 C4     3d1+      -0.0000   -0.0000   -0.0002   -0.0000    0.0005   -0.0000   -0.0000    0.0001   -0.0000    0.0260
    54 C4     3d2+      -0.0000    0.0000   -0.0002    0.0001    0.0002   -0.0001    0.0000    0.0000   -0.0000   -0.0008
    55 C6     1s         0.0001   -0.0000    0.0004   -0.0001   -0.0001    0.0002   -0.0001    0.9996    0.0000   -0.0085
    56 C6     2s         0.0006   -0.0001    0.0021   -0.0011    0.0004    0.0007   -0.0003   -0.0002    0.0000    0.0166
    57 C6     3s         0.0004   -0.0000    0.0008   -0.0009    0.0001    0.0005   -0.0004   -0.0018   -0.0000   -0.0141
    58 C6     4s         0.0001   -0.0000   -0.0000   -0.0003   -0.0001    0.0001   -0.0001    0.0009   -0.0000   -0.0005
    59 C6     2px        0.0004   -0.0001    0.0003   -0.0002   -0.0003    0.0003   -0.0002   -0.0000   -0.0000    0.0109
    60 C6     3px        0.0003   -0.0001   -0.0001   -0.0002   -0.0004    0.0002   -0.0003   -0.0001   -0.0000   -0.0033
    61 C6     4px       -0.0001   -0.0000   -0.0002   -0.0000   -0.0002   -0.0001   -0.0001    0.0004   -0.0000    0.0030
    62 C6     2py       -0.0000   -0.0000   -0.0005    0.0004    0.0000   -0.0002    0.0001   -0.0001    0.0001   -0.0170
    63 C6     3py       -0.0001    0.0000    0.0001    0.0003    0.0001   -0.0002    0.0001    0.0002    0.0000    0.0004
    64 C6     4py       -0.0000    0.0000    0.0002   -0.0001    0.0000    0.0000    0.0000   -0.0006   -0.0000   -0.0024
    65 C6     2pz       -0.0001   -0.0000   -0.0001    0.0001    0.0000    0.0000   -0.0000    0.0000   -0.0001    0.0056
    66 C6     3pz       -0.0001   -0.0000   -0.0001    0.0001   -0.0001    0.0000   -0.0000    0.0002   -0.0001    0.0048
    67 C6     4pz        0.0000    0.0000    0.0000   -0.0000   -0.0001    0.0000    0.0000   -0.0001    0.0000   -0.0008
    68 C6     3d2-      -0.0000   -0.0000    0.0000    0.0000   -0.0000   -0.0000   -0.0000    0.0000    0.0000   -0.0032
    69 C6     3d1-       0.0000   -0.0000   -0.0001   -0.0000   -0.0000    0.0000   -0.0000   -0.0001    0.0000    0.0006
    70 C6     3d0       -0.0000    0.0000    0.0001    0.0000   -0.0000   -0.0000    0.0000    0.0001    0.0000   -0.0025
    71 C6     3d1+       0.0000    0.0000   -0.0000    0.0000    0.0000    0.0000    0.0000    0.0000    0.0000   -0.0007
    72 C6     3d2+      -0.0000   -0.0000    0.0000    0.0000    0.0000   -0.0000    0.0000    0.0001   -0.0000   -0.0014
    73 C19    1s         0.0000    0.0001   -0.0000    0.0000   -0.0000    0.0001    0.0052    0.0000    1.0000   -0.0004
    74 C19    2s         0.0001    0.0009   -0.0003    0.0003   -0.0003    0.0007    0.0008   -0.0000    0.0020    0.0023
    75 C19    3s         0.0000    0.0005   -0.0003    0.0002   -0.0002    0.0004    0.0003   -0.0001   -0.0005    0.0035
    76 C19    4s        -0.0000    0.0000   -0.0001    0.0000   -0.0001    0.0000    0.0001   -0.0000    0.0012    0.0025
    77 C19    2px        0.0001    0.0007    0.0001   -0.0003    0.0001    0.0002   -0.0002    0.0000    0.0000   -0.0030
    78 C19    3px        0.0001    0.0005    0.0001   -0.0002    0.0001    0.0003   -0.0003    0.0000   -0.0000   -0.0036
    79 C19    4px        0.0000   -0.0001   -0.0000   -0.0000   -0.0000    0.0000   -0.0000   -0.0000    0.0001   -0.0003
    80 C19    2py       -0.0000    0.0000   -0.0001    0.0003   -0.0001    0.0001    0.0003   -0.0001   -0.0005    0.0044
    81 C19    3py       -0.0001   -0.0001   -0.0001    0.0003   -0.0001    0.0000   -0.0002   -0.0001   -0.0001    0.0042
    82 C19    4py       -0.0000   -0.0002    0.0000   -0.0001    0.0000   -0.0001   -0.0002   -0.0000    0.0003    0.0009
    83 C19    2pz       -0.0001    0.0000    0.0001   -0.0002    0.0001   -0.0001   -0.0002   -0.0000    0.0001   -0.0005
    84 C19    3pz       -0.0001    0.0000    0.0001   -0.0001    0.0001   -0.0001   -0.0001   -0.0000   -0.0000   -0.0008
    85 C19    4pz        0.0000    0.0000    0.0000    0.0000    0.0000    0.0000    0.0000    0.0000   -0.0000   -0.0003
    86 C19    3d2-       0.0000    0.0001   -0.0000   -0.0000   -0.0000    0.0000   -0.0000   -0.0000   -0.0001   -0.0001
    87 C19    3d1-       0.0000    0.0000   -0.0000   -0.0000    0.0000    0.0000    0.0000   -0.0000    0.0000    0.0000
    88 C19    3d0       -0.0000   -0.0001   -0.0000   -0.0001   -0.0000   -0.0000    0.0001    0.0000    0.0001    0.0002
    89 C19    3d1+       0.0000    0.0000   -0.0000    0.0000    0.0000    0.0000   -0.0000    0.0000    0.0000   -0.0001
    90 C19    3d2+      -0.0000    0.0001    0.0000   -0.0000    0.0000   -0.0000   -0.0001    0.0000    0.0001    0.0000
    91 N2     1s        -0.0000    0.0001    0.0000    0.9998    0.0001    0.0002   -0.0003   -0.0000    0.0001   -0.0014
    92 N2     2s        -0.0001    0.0004    0.0001   -0.0001    0.0005    0.0022   -0.0002   -0.0002    0.0004    0.0216
    93 N2     3s        -0.0001    0.0003    0.0000   -0.0015    0.0004    0.0014   -0.0003   -0.0001    0.0003   -0.0031
    94 N2     4s         0.0000    0.0000    0.0000    0.0005    0.0001    0.0004    0.0000   -0.0000    0.0001   -0.0012
    95 N2     2px       -0.0003    0.0005    0.0001    0.0004   -0.0003   -0.0003   -0.0002   -0.0003   -0.0003    0.0013
    96 N2     3px       -0.0005    0.0005   -0.0000    0.0001   -0.0004   -0.0005   -0.0001   -0.0004   -0.0003    0.0063
    97 N2     4px       -0.0001   -0.0000   -0.0001   -0.0001   -0.0001    0.0001   -0.0002   -0.0001    0.0001    0.0021
    98 N2     2py       -0.0004   -0.0012   -0.0000   -0.0004    0.0003    0.0010    0.0006    0.0000   -0.0003    0.0105
    99 N2     3py       -0.0006   -0.0014   -0.0001    0.0004    0.0003    0.0009    0.0005   -0.0000   -0.0002    0.0046
   100 N2     4py       -0.0000    0.0000   -0.0000    0.0006   -0.0000    0.0001   -0.0002   -0.0000    0.0001   -0.0005
   101 N2     2pz        0.0003    0.0002   -0.0001    0.0001   -0.0001    0.0000   -0.0002    0.0000    0.0000   -0.0003
   102 N2     3pz        0.0004    0.0002   -0.0002   -0.0001   -0.0001   -0.0000   -0.0000    0.0000    0.0000   -0.0009
   103 N2     4pz        0.0000   -0.0000   -0.0000    0.0001   -0.0000   -0.0000    0.0000    0.0000    0.0000    0.0007
   104 N2     3d2-      -0.0000    0.0001    0.0000   -0.0001    0.0000   -0.0000   -0.0001    0.0000   -0.0000    0.0001
   105 N2     3d1-       0.0000   -0.0000   -0.0000   -0.0000   -0.0000    0.0000    0.0000    0.0000   -0.0000   -0.0003
   106 N2     3d0       -0.0000   -0.0000    0.0000    0.0001   -0.0000    0.0000    0.0001    0.0000   -0.0001   -0.0004
   107 N2     3d1+       0.0000   -0.0000    0.0000    0.0000   -0.0000   -0.0000    0.0000    0.0000    0.0000    0.0001
   108 N2     3d2+      -0.0000   -0.0001   -0.0000    0.0001   -0.0000   -0.0000    0.0001   -0.0000    0.0000   -0.0002
   109 N5     1s         0.0001   -0.0000    0.9998    0.0000   -0.0003   -0.0000    0.0000    0.0001   -0.0000   -0.0173
   110 N5     2s         0.0008   -0.0002   -0.0004    0.0002   -0.0004   -0.0002    0.0000    0.0017   -0.0000    0.1112
   111 N5     3s         0.0006   -0.0002   -0.0016    0.0002   -0.0005   -0.0001    0.0000    0.0010   -0.0000   -0.0446
   112 N5     4s         0.0001   -0.0000    0.0004    0.0001    0.0000   -0.0000    0.0000    0.0004   -0.0000   -0.0105
   113 N5     2px       -0.0003    0.0000   -0.0001   -0.0004    0.0004    0.0000   -0.0002   -0.0008    0.0000    0.0302
   114 N5     3px       -0.0003   -0.0000   -0.0000   -0.0006    0.0001    0.0000   -0.0002   -0.0006   -0.0000   -0.0119
   115 N5     4px       -0.0000   -0.0000    0.0002   -0.0001    0.0002   -0.0001    0.0000    0.0000   -0.0000    0.0054
   116 N5     2py       -0.0014    0.0004   -0.0009    0.0005    0.0000   -0.0004    0.0002    0.0007   -0.0001    0.0344
   117 N5     3py       -0.0016    0.0004   -0.0007    0.0006   -0.0004   -0.0005    0.0004    0.0008   -0.0001    0.0258
   118 N5     4py        0.0000   -0.0000    0.0003    0.0000   -0.0003    0.0000    0.0001    0.0003   -0.0000   -0.0044
   119 N5     2pz       -0.0004    0.0000   -0.0001    0.0001   -0.0001   -0.0000    0.0000    0.0001    0.0000    0.0183
   120 N5     3pz       -0.0005    0.0001   -0.0003    0.0001    0.0001   -0.0000    0.0001    0.0003    0.0000   -0.0106
   121 N5     4pz       -0.0000    0.0000    0.0005    0.0000    0.0001    0.0000    0.0000    0.0001   -0.0000    0.0002
   122 N5     3d2-      -0.0001    0.0000    0.0002   -0.0000    0.0001    0.0000    0.0000    0.0001   -0.0000    0.0014
   123 N5     3d1-      -0.0000    0.0000   -0.0000   -0.0000   -0.0001    0.0000    0.0000   -0.0000   -0.0000    0.0010
   124 N5     3d0       -0.0001    0.0000   -0.0000    0.0000    0.0001   -0.0000   -0.0000    0.0000    0.0000   -0.0004
   125 N5     3d1+      -0.0000    0.0000    0.0000   -0.0000   -0.0000    0.0000    0.0000   -0.0001    0.0000    0.0040
   126 N5     3d2+      -0.0001    0.0000    0.0000    0.0000    0.0001    0.0000    0.0000   -0.0000    0.0000    0.0043
   127 O7     1s        -0.0000    0.9997   -0.0000    0.0000    0.0000   -0.0000   -0.0002    0.0000    0.0001   -0.0010
   128 O7     2s        -0.0001   -0.0011   -0.0001    0.0003    0.0000   -0.0002    0.0006    0.0002    0.0004    0.0256
   129 O7     3s        -0.0001   -0.0012   -0.0001    0.0002   -0.0000   -0.0001    0.0001    0.0001    0.0003   -0.0016
   130 O7     4s        -0.0000    0.0002   -0.0000    0.0001   -0.0000   -0.0000    0.0001    0.0000    0.0001   -0.0009
   131 O7     2px        0.0001    0.0002   -0.0001   -0.0002   -0.0000   -0.0000    0.0007    0.0001    0.0001    0.0032
   132 O7     3px        0.0001   -0.0005   -0.0001   -0.0003   -0.0000    0.0001    0.0001    0.0001    0.0002   -0.0048
   133 O7     4px        0.0000    0.0011   -0.0000   -0.0001   -0.0000    0.0001    0.0001    0.0000   -0.0000   -0.0011
   134 O7     2py       -0.0000   -0.0003   -0.0003   -0.0004    0.0000    0.0001   -0.0004   -0.0000   -0.0002   -0.0009
   135 O7     3py       -0.0000    0.0001   -0.0004   -0.0004    0.0000    0.0001   -0.0003   -0.0001   -0.0002    0.0005
   136 O7     4py       -0.0000   -0.0007   -0.0000   -0.0000    0.0000    0.0000   -0.0002   -0.0000   -0.0000   -0.0001
   137 O7     2pz        0.0000    0.0000    0.0000    0.0001   -0.0000   -0.0000   -0.0000   -0.0000    0.0000    0.0009
   138 O7     3pz        0.0001   -0.0000    0.0000    0.0000   -0.0000   -0.0000    0.0000   -0.0001    0.0000    0.0001
   139 O7     4pz        0.0000    0.0002   -0.0000   -0.0000   -0.0000   -0.0000    0.0000   -0.0000   -0.0000    0.0001
   140 O7     3d2-       0.0000    0.0001   -0.0000   -0.0000   -0.0000    0.0000   -0.0002   -0.0000   -0.0000   -0.0005
   141 O7     3d1-       0.0000    0.0000    0.0000   -0.0000   -0.0000    0.0000   -0.0000   -0.0000   -0.0000   -0.0001
   142 O7     3d0       -0.0000    0.0000    0.0000   -0.0000    0.0000    0.0000   -0.0001   -0.0000   -0.0000   -0.0004
   143 O7     3d1+       0.0000   -0.0000    0.0000    0.0000   -0.0000   -0.0000    0.0000   -0.0000    0.0000    0.0001
   144 O7     3d2+      -0.0000   -0.0000    0.0000   -0.0001    0.0000   -0.0000    0.0001    0.0000   -0.0000    0.0002
   145 O8     1s         0.9997    0.0000    0.0000    0.0000   -0.0003    0.0001    0.0000   -0.0000    0.0000   -0.0241
   146 O8     2s        -0.0014    0.0001    0.0001    0.0001    0.0004    0.0004    0.0003   -0.0002    0.0000    0.6902
   147 O8     3s        -0.0013    0.0001    0.0001    0.0000   -0.0000    0.0003    0.0002   -0.0001    0.0000   -0.0357
   148 O8     4s         0.0001    0.0000   -0.0000    0.0000    0.0000    0.0001    0.0001   -0.0000    0.0000   -0.0145
   149 O8     2px       -0.0002   -0.0000    0.0003    0.0000   -0.0002   -0.0001   -0.0001    0.0001   -0.0000   -0.0781
   150 O8     3px        0.0002   -0.0001    0.0003    0.0001   -0.0000   -0.0001   -0.0001    0.0000   -0.0000    0.0260
   151 O8     4px       -0.0008   -0.0000    0.0001    0.0000   -0.0001    0.0000   -0.0000   -0.0000   -0.0000    0.0015
   152 O8     2py       -0.0002   -0.0000   -0.0002   -0.0001   -0.0003   -0.0002   -0.0002   -0.0000   -0.0000   -0.0901
   153 O8     3py        0.0003   -0.0000   -0.0001   -0.0002   -0.0003   -0.0001   -0.0002   -0.0000   -0.0000    0.0287
   154 O8     4py       -0.0009   -0.0000    0.0001   -0.0001   -0.0003    0.0000   -0.0000   -0.0000   -0.0000   -0.0006
   155 O8     2pz       -0.0001   -0.0000    0.0001    0.0000   -0.0007   -0.0001    0.0000    0.0001   -0.0000   -0.0864
   156 O8     3pz        0.0003   -0.0000    0.0001    0.0001   -0.0001   -0.0001    0.0001    0.0001   -0.0000    0.0227
   157 O8     4pz       -0.0007    0.0000    0.0001    0.0000   -0.0001    0.0000    0.0001    0.0000    0.0000    0.0006
   158 O8     3d2-      -0.0001    0.0000   -0.0000    0.0000    0.0002    0.0000    0.0000   -0.0000    0.0000    0.0133
   159 O8     3d1-      -0.0000    0.0000    0.0000   -0.0000    0.0001    0.0000    0.0000    0.0000    0.0000    0.0130
   160 O8     3d0       -0.0000    0.0000   -0.0000   -0.0000    0.0000   -0.0000   -0.0000   -0.0000   -0.0000   -0.0010
   161 O8     3d1+      -0.0000    0.0000    0.0000   -0.0000    0.0001    0.0000    0.0000   -0.0000    0.0000    0.0111
   162 O8     3d2+       0.0000   -0.0000   -0.0001   -0.0000    0.0000   -0.0000   -0.0000   -0.0000    0.0000   -0.0020
   163 H9     1s        -0.0001    0.0001    0.0002    0.0000   -0.0001   -0.0004   -0.0002   -0.0001    0.0002    0.0058
   164 H9     2s        -0.0000    0.0001    0.0001   -0.0000   -0.0001   -0.0003   -0.0001   -0.0001   -0.0003    0.0040
   165 H9     2px       -0.0000   -0.0000    0.0000    0.0000   -0.0000   -0.0000   -0.0000   -0.0000   -0.0000    0.0005
   166 H9     2py        0.0000   -0.0001    0.0000   -0.0000   -0.0000   -0.0000    0.0001   -0.0000    0.0000    0.0005
   167 H9     2pz       -0.0000    0.0000    0.0000   -0.0000   -0.0000   -0.0000    0.0000   -0.0000   -0.0001    0.0004
   168 H10    1s         0.0002    0.0001    0.0000    0.0002   -0.0001   -0.0001   -0.0000   -0.0000    0.0003    0.0050
   169 H10    2s         0.0001    0.0000    0.0000    0.0001   -0.0001   -0.0001    0.0000   -0.0000   -0.0003    0.0035
   170 H10    2px        0.0000   -0.0000   -0.0000    0.0000   -0.0000   -0.0000    0.0000   -0.0000   -0.0000    0.0004
   171 H10    2py       -0.0000   -0.0001    0.0000   -0.0000    0.0000   -0.0000    0.0000    0.0000    0.0000    0.0002
   172 H10    2pz       -0.0000   -0.0000   -0.0000   -0.0000    0.0000    0.0000   -0.0000    0.0000    0.0001   -0.0004
   173 H11    1s        -0.0001   -0.0005   -0.0001    0.0003   -0.0002   -0.0002    0.0001   -0.0001    0.0001    0.0073
   174 H11    2s        -0.0001   -0.0002   -0.0001    0.0003   -0.0001   -0.0001    0.0001   -0.0000   -0.0004    0.0048
   175 H11    2px        0.0000    0.0000    0.0000   -0.0000    0.0000    0.0000   -0.0000    0.0000    0.0002   -0.0006
   176 H11    2py       -0.0000   -0.0000   -0.0000   -0.0000   -0.0000    0.0000    0.0001   -0.0000   -0.0000    0.0003
   177 H11    2pz        0.0000   -0.0000   -0.0000    0.0000   -0.0000    0.0000    0.0000    0.0000    0.0000   -0.0000
   178 H12    1s        -0.0003   -0.0010   -0.0002   -0.0002    0.0001    0.0003    0.0005    0.0002   -0.0003    0.0079
   179 H12    2s        -0.0002   -0.0005   -0.0001   -0.0002    0.0001    0.0002    0.0002    0.0001   -0.0001    0.0019
   180 H12    2px        0.0000    0.0000    0.0000    0.0003    0.0000    0.0000   -0.0002   -0.0000    0.0000   -0.0007
   181 H12    2py       -0.0000   -0.0000   -0.0000   -0.0003   -0.0000    0.0001   -0.0000    0.0000   -0.0000    0.0012
   182 H12    2pz       -0.0000    0.0000    0.0000    0.0001    0.0000   -0.0000   -0.0000   -0.0000    0.0000   -0.0001
   183 H13    1s         0.0005    0.0003   -0.0002   -0.0005   -0.0003    0.0007   -0.0005   -0.0002    0.0000    0.0122
   184 H13    2s         0.0003    0.0002   -0.0001   -0.0002   -0.0002   -0.0000   -0.0004   -0.0001    0.0000   -0.0038
   185 H13    2px       -0.0000   -0.0000   -0.0000    0.0000   -0.0000   -0.0000    0.0000    0.0000   -0.0000   -0.0010
   186 H13    2py       -0.0000    0.0000    0.0000    0.0000    0.0000   -0.0000   -0.0000   -0.0000    0.0000    0.0008
   187 H13    2pz       -0.0000   -0.0000    0.0000   -0.0000   -0.0000   -0.0000    0.0001    0.0000    0.0000   -0.0006
   188 H14    1s        -0.0002    0.0001    0.0003   -0.0005   -0.0001    0.0008   -0.0003   -0.0004   -0.0001    0.0230
   189 H14    2s        -0.0002    0.0001    0.0001   -0.0003    0.0000    0.0000   -0.0002   -0.0002   -0.0001    0.0084
   190 H14    2px        0.0000   -0.0000    0.0000    0.0000   -0.0000   -0.0000    0.0000    0.0000   -0.0000   -0.0021
   191 H14    2py       -0.0000   -0.0000   -0.0001    0.0000    0.0001   -0.0000    0.0000    0.0000    0.0000    0.0007
   192 H14    2pz       -0.0000    0.0000    0.0000    0.0000    0.0000    0.0000   -0.0001   -0.0000   -0.0000    0.0018
   193 H15    1s        -0.0012    0.0009    0.0001    0.0003    0.0003   -0.0004   -0.0002   -0.0005    0.0001    0.0342
   194 H15    2s        -0.0007    0.0006   -0.0000    0.0002    0.0000   -0.0002   -0.0001   -0.0002    0.0001   -0.0021
   195 H15    2px       -0.0001    0.0000   -0.0002    0.0000    0.0002    0.0000    0.0000   -0.0001    0.0000    0.0031
   196 H15    2py       -0.0001   -0.0002   -0.0004   -0.0000    0.0000   -0.0000   -0.0001   -0.0000    0.0000    0.0045
   197 H15    2pz        0.0000    0.0001   -0.0000    0.0000    0.0001    0.0000    0.0000   -0.0000    0.0000    0.0012
   198 H16    1s         0.0005   -0.0001   -0.0006   -0.0000   -0.0004    0.0000   -0.0002    0.0006    0.0000    0.0058
   199 H16    2s         0.0003   -0.0001   -0.0003   -0.0001   -0.0003    0.0000   -0.0001   -0.0001    0.0000   -0.0010
   200 H16    2px        0.0000    0.0000   -0.0001   -0.0000   -0.0001    0.0000   -0.0000    0.0000    0.0000    0.0006
   201 H16    2py       -0.0000   -0.0000    0.0000   -0.0000    0.0000    0.0000   -0.0000   -0.0000   -0.0000   -0.0005
   202 H16    2pz       -0.0000    0.0000    0.0000    0.0000    0.0000   -0.0000    0.0000   -0.0000   -0.0000   -0.0005
   203 H17    1s        -0.0001    0.0000   -0.0003   -0.0002   -0.0001   -0.0001   -0.0000    0.0010   -0.0000    0.0133
   204 H17    2s        -0.0000    0.0000   -0.0001   -0.0001   -0.0000   -0.0001   -0.0000    0.0001   -0.0000   -0.0017
   205 H17    2px       -0.0000   -0.0000   -0.0000    0.0000    0.0000    0.0000    0.0000   -0.0000    0.0000    0.0002
   206 H17    2py        0.0000    0.0000    0.0000    0.0000    0.0000    0.0000    0.0000   -0.0001    0.0000   -0.0011
   207 H17    2pz        0.0000   -0.0000    0.0000    0.0000    0.0000    0.0000    0.0000   -0.0000    0.0000   -0.0006
   208 H18    1s         0.0001   -0.0002   -0.0005   -0.0000   -0.0002    0.0001   -0.0002    0.0006   -0.0001    0.0103
   209 H18    2s         0.0001   -0.0001   -0.0002   -0.0000   -0.0002    0.0001   -0.0001   -0.0001   -0.0001    0.0025
   210 H18    2px        0.0000    0.0000   -0.0000   -0.0000   -0.0000    0.0000    0.0000    0.0000   -0.0000    0.0007
   211 H18    2py       -0.0000    0.0000    0.0000   -0.0000    0.0000   -0.0000    0.0000   -0.0000    0.0000   -0.0005
   212 H18    2pz        0.0000   -0.0000   -0.0000   -0.0000   -0.0001    0.0000   -0.0000   -0.0000   -0.0000    0.0010
 
 
      Orbital                11        12        13        14        15        16        17        18        19        20
      Energy            -1.3623   -1.2500   -1.2219   -1.0167   -0.9663   -0.9298   -0.8154   -0.7733   -0.7121   -0.6917
      Occ. No.           2.0000    2.0000    2.0000    2.0000    2.0000    2.0000    2.0000    2.0000    2.0000    2.0000
 
     1 C1     1s        -0.0390    0.0060   -0.0077   -0.0122   -0.0089    0.0025    0.0106   -0.0118   -0.0048   -0.0079
     2 C1     2s         0.3530   -0.0042    0.1186    0.2252    0.1503    0.0007   -0.2388    0.2861    0.1349    0.2010
     3 C1     3s        -0.0045    0.0186    0.0015   -0.0038   -0.0110    0.0047    0.0017   -0.0026   -0.0069   -0.0126
     4 C1     4s         0.0031    0.0051    0.0007   -0.0021   -0.0021    0.0026    0.0019   -0.0021   -0.0023   -0.0053
     5 C1     2px       -0.0639    0.0293    0.1517    0.0593   -0.0219   -0.0832   -0.0802    0.1266   -0.0848   -0.0797
     6 C1     3px        0.0398   -0.0033   -0.0427   -0.0529   -0.0325    0.0456   -0.0093   -0.0416    0.0316    0.0408
     7 C1     4px       -0.0201    0.0073    0.0307    0.0004   -0.0073   -0.0069   -0.0088    0.0066   -0.0075   -0.0044
     8 C1     2py        0.0787    0.0234    0.0062   -0.0928   -0.1124   -0.0633   -0.0338    0.0692    0.0561   -0.0776
     9 C1     3py       -0.0402    0.0467    0.0321   -0.0151    0.0382    0.0656    0.0339    0.0106   -0.0291    0.0136
    10 C1     4py        0.0200    0.0077    0.0013   -0.0191   -0.0149   -0.0033   -0.0000    0.0106   -0.0003   -0.0009
    11 C1     2pz       -0.0203   -0.0013    0.0129    0.0127    0.0120    0.0050    0.0016   -0.0037   -0.0210    0.0015
    12 C1     3pz        0.0093   -0.0079   -0.0057   -0.0019   -0.0072   -0.0017   -0.0063   -0.0068    0.0055    0.0026
    13 C1     4pz       -0.0045   -0.0004    0.0026    0.0017    0.0012    0.0020   -0.0015   -0.0018   -0.0016   -0.0004
    14 C1     3d2-      -0.0287    0.0066    0.0256    0.0084    0.0045   -0.0036   -0.0035    0.0170    0.0045   -0.0143
    15 C1     3d1-      -0.0071    0.0012    0.0021   -0.0010   -0.0021   -0.0019    0.0010   -0.0011   -0.0022   -0.0021
    16 C1     3d0       -0.0264    0.0019   -0.0063   -0.0099   -0.0052    0.0024    0.0100   -0.0104   -0.0040   -0.0050
    17 C1     3d1+       0.0085   -0.0011   -0.0013   -0.0004   -0.0012    0.0001   -0.0011   -0.0017   -0.0010    0.0024
    18 C1     3d2+       0.0129   -0.0003    0.0137    0.0040   -0.0108   -0.0168   -0.0087    0.0011   -0.0068   -0.0006
    19 C3     1s        -0.0085   -0.0080   -0.0323    0.0413    0.0030   -0.0278   -0.0027   -0.0021   -0.0047   -0.0063
    20 C3     2s         0.0205    0.0389    0.1727   -0.3393   -0.0213    0.3336    0.0531    0.1031    0.1030    0.0466
    21 C3     3s        -0.0161   -0.0136   -0.0596    0.0772    0.0067   -0.0357   -0.0014    0.0028   -0.0033   -0.0203
    22 C3     4s        -0.0018   -0.0006   -0.0130    0.0193    0.0024   -0.0086   -0.0009   -0.0012   -0.0019   -0.0056
    23 C3     2px       -0.0166   -0.0319   -0.0445    0.0038   -0.0306    0.0505    0.0619   -0.0402    0.0008    0.2355
    24 C3     3px       -0.0009    0.0033    0.0149   -0.0279   -0.0195    0.0079   -0.0095   -0.0053    0.0008   -0.0218
    25 C3     4px       -0.0013    0.0054    0.0083   -0.0170   -0.0078    0.0169    0.0039    0.0027    0.0009    0.0074
    26 C3     2py       -0.0253    0.0045   -0.1088   -0.0392    0.0503    0.0311   -0.1625    0.1723   -0.1856    0.0316
    27 C3     3py       -0.0087    0.0149   -0.0177    0.0109   -0.0546   -0.0282   -0.0043   -0.0122    0.0419   -0.0190
    28 C3     4py       -0.0064    0.0081   -0.0133   -0.0067   -0.0020    0.0020   -0.0114    0.0067    0.0013   -0.0015
    29 C3     2pz        0.0013   -0.0044   -0.0006    0.0011   -0.0157    0.0217   -0.0188    0.0093   -0.1299    0.0577
    30 C3     3pz        0.0007    0.0027   -0.0017    0.0137   -0.0238    0.0068   -0.0079   -0.0075    0.0110   -0.0041
    31 C3     4pz       -0.0012    0.0015   -0.0022    0.0029   -0.0015   -0.0020   -0.0026   -0.0028   -0.0029    0.0021
    32 C3     3d2-       0.0032   -0.0018    0.0147    0.0088   -0.0125   -0.0069    0.0114   -0.0062    0.0222   -0.0068
    33 C3     3d1-       0.0004   -0.0024    0.0021   -0.0027   -0.0000    0.0019   -0.0021    0.0047   -0.0063   -0.0033
    34 C3     3d0       -0.0030   -0.0043   -0.0115    0.0065    0.0010    0.0009    0.0010    0.0034    0.0005    0.0148
    35 C3     3d1+       0.0005   -0.0012    0.0006    0.0011   -0.0031    0.0016    0.0045   -0.0022    0.0002    0.0075
    36 C3     3d2+      -0.0016    0.0005   -0.0134    0.0067    0.0035   -0.0021   -0.0045    0.0118    0.0058    0.0062
    37 C4     1s         0.0021   -0.0092    0.0036    0.0116   -0.0109    0.0039    0.0170    0.0040    0.0060    0.0009
    38 C4     2s         0.0049    0.1550    0.0304   -0.2258    0.2033    0.0362   -0.3399   -0.1040   -0.2265   -0.0673
    39 C4     3s         0.0063    0.0038    0.0148    0.0124   -0.0067    0.0133    0.0270   -0.0038    0.0085   -0.0085
    40 C4     4s         0.0020    0.0019    0.0043    0.0054   -0.0027    0.0030    0.0083   -0.0024    0.0032   -0.0005
    41 C4     2px       -0.0065   -0.1608    0.0401   -0.0229   -0.0273    0.0993    0.0422    0.1351   -0.1929    0.1261
    42 C4     3px        0.0096    0.0135    0.0104   -0.0133    0.0762   -0.0528    0.0109   -0.0529    0.0651   -0.0139
    43 C4     4px       -0.0007   -0.0333    0.0071   -0.0044    0.0038    0.0046    0.0078    0.0050   -0.0107    0.0120
    44 C4     2py       -0.0178    0.0001   -0.0431    0.1261   -0.0664   -0.0631   -0.0317   -0.1540    0.0277    0.0814
    45 C4     3py       -0.0043    0.0468   -0.0063   -0.0164   -0.0560    0.0635   -0.0170    0.0548   -0.0182   -0.0396
    46 C4     4py       -0.0051    0.0035   -0.0078    0.0123   -0.0152    0.0027   -0.0065   -0.0065   -0.0037    0.0012
    47 C4     2pz       -0.0059   -0.0704    0.0063    0.0579   -0.0579    0.0154    0.0457    0.0131   -0.0734    0.0919
    48 C4     3pz        0.0079    0.0455    0.0089   -0.0237    0.0137    0.0110   -0.0035    0.0086    0.0246   -0.0292
    49 C4     4pz       -0.0016   -0.0117    0.0010    0.0033   -0.0057    0.0049    0.0020    0.0026   -0.0072    0.0042
    50 C4     3d2-      -0.0022   -0.0196   -0.0008    0.0123   -0.0037   -0.0109    0.0135    0.0031   -0.0153   -0.0044
    51 C4     3d1-      -0.0017   -0.0118    0.0022   -0.0034    0.0002    0.0037   -0.0013    0.0071   -0.0136   -0.0020
    52 C4     3d0       -0.0004   -0.0070    0.0003    0.0067   -0.0041   -0.0029    0.0081    0.0021    0.0023   -0.0019
    53 C4     3d1+      -0.0004    0.0089   -0.0021   -0.0013    0.0099   -0.0130   -0.0046   -0.0113   -0.0018   -0.0044
    54 C4     3d2+       0.0009    0.0204   -0.0064    0.0006    0.0109   -0.0121    0.0007   -0.0069    0.0064   -0.0004
    55 C6     1s         0.0003   -0.0333    0.0100   -0.0294    0.0379   -0.0308    0.0097   -0.0032    0.0050    0.0075
    56 C6     2s         0.0156    0.1540   -0.0089    0.1933   -0.3152    0.2812   -0.1172   -0.0026   -0.0356   -0.0755
    57 C6     3s         0.0076   -0.0550    0.0316   -0.0527    0.0635   -0.0474    0.0227   -0.0113    0.0125    0.0232
    58 C6     4s         0.0027   -0.0084    0.0081   -0.0109    0.0140   -0.0093    0.0067   -0.0027    0.0025    0.0072
    59 C6     2px        0.0039    0.0513   -0.0084    0.0145    0.0089   -0.0201   -0.0278   -0.0954    0.1477    0.1335
    60 C6     3px        0.0032   -0.0140    0.0068   -0.0094    0.0134   -0.0028   -0.0021    0.0064   -0.0153   -0.0188
    61 C6     4px        0.0010   -0.0011    0.0024   -0.0061    0.0112   -0.0067   -0.0004   -0.0066    0.0066    0.0079
    62 C6     2py       -0.0091   -0.0926    0.0067   -0.0214   -0.0017    0.0252   -0.1241   -0.0365   -0.0327   -0.2496
    63 C6     3py       -0.0037    0.0140   -0.0137    0.0158   -0.0123   -0.0006   -0.0021   -0.0001    0.0128    0.0363
    64 C6     4py        0.0003   -0.0008   -0.0004    0.0087   -0.0134    0.0129   -0.0104   -0.0022   -0.0012   -0.0116
    65 C6     2pz       -0.0004   -0.0170    0.0013   -0.0093    0.0173   -0.0078   -0.0426   -0.0447    0.0213   -0.0819
    66 C6     3pz        0.0004   -0.0006   -0.0016   -0.0011    0.0113   -0.0079    0.0092    0.0038   -0.0026    0.0128
    67 C6     4pz       -0.0000   -0.0017    0.0003    0.0013   -0.0008    0.0011   -0.0042   -0.0042    0.0015   -0.0026
    68 C6     3d2-      -0.0010   -0.0175    0.0030   -0.0047    0.0005    0.0030   -0.0062    0.0031   -0.0095   -0.0250
    69 C6     3d1-       0.0003    0.0050   -0.0012    0.0031   -0.0027    0.0004    0.0049    0.0010    0.0040    0.0097
    70 C6     3d0       -0.0005   -0.0113    0.0022   -0.0036    0.0009    0.0019   -0.0025    0.0049   -0.0100   -0.0139
    71 C6     3d1+      -0.0005   -0.0040    0.0002    0.0000   -0.0006    0.0008   -0.0045   -0.0031    0.0022   -0.0043
    72 C6     3d2+      -0.0005   -0.0111    0.0019   -0.0035    0.0024    0.0009   -0.0137   -0.0074   -0.0002   -0.0162
    73 C19    1s        -0.0151    0.0014   -0.0103   -0.0341   -0.0509   -0.0387   -0.0142    0.0084    0.0001    0.0080
    74 C19    2s        -0.0066    0.0023   -0.0043    0.1697    0.3091    0.2546    0.0976   -0.0427    0.0113   -0.0732
    75 C19    3s        -0.0389    0.0099   -0.0311   -0.0681   -0.0949   -0.0703   -0.0295    0.0252   -0.0021    0.0136
    76 C19    4s        -0.0032    0.0040   -0.0043   -0.0139   -0.0203   -0.0152   -0.0075    0.0073   -0.0014    0.0035
    77 C19    2px       -0.0124    0.0049    0.0202    0.0370    0.0212   -0.0115   -0.0136    0.0314   -0.0593    0.0034
    78 C19    3px       -0.0032    0.0012   -0.0021    0.0143    0.0069   -0.0022    0.0058    0.0028    0.0035   -0.0053
    79 C19    4px        0.0062   -0.0006   -0.0003   -0.0001   -0.0063   -0.0084   -0.0008   -0.0010   -0.0048    0.0022
    80 C19    2py        0.0203    0.0051    0.0149    0.0419    0.0305    0.0009   -0.0631    0.0593    0.0190    0.1694
    81 C19    3py       -0.0083    0.0082   -0.0033   -0.0168   -0.0250   -0.0130    0.0050   -0.0081   -0.0090   -0.0206
    82 C19    4py        0.0068   -0.0001    0.0009   -0.0071   -0.0166   -0.0155   -0.0109    0.0085    0.0017    0.0078
    83 C19    2pz       -0.0041   -0.0009    0.0017   -0.0036   -0.0051   -0.0014    0.0092   -0.0045   -0.0097   -0.0223
    84 C19    3pz        0.0009   -0.0018    0.0022    0.0025    0.0009   -0.0003    0.0019    0.0020    0.0006    0.0028
    85 C19    4pz       -0.0003   -0.0001   -0.0001    0.0007    0.0019    0.0012    0.0018   -0.0005   -0.0005   -0.0008
    86 C19    3d2-      -0.0025    0.0007    0.0062    0.0050    0.0027   -0.0020   -0.0037    0.0046    0.0005    0.0045
    87 C19    3d1-      -0.0010    0.0002    0.0001   -0.0019   -0.0020   -0.0010    0.0010   -0.0010   -0.0000   -0.0031
    88 C19    3d0        0.0014   -0.0001   -0.0009   -0.0057   -0.0060   -0.0026    0.0023   -0.0029    0.0032   -0.0059
    89 C19    3d1+      -0.0002    0.0000   -0.0010   -0.0005   -0.0001    0.0003    0.0006   -0.0008    0.0001   -0.0006
    90 C19    3d2+      -0.0061    0.0008   -0.0011   -0.0076   -0.0078   -0.0037    0.0053   -0.0047   -0.0038   -0.0142
    91 N2     1s        -0.0191   -0.0042   -0.0405   -0.0057    0.0010    0.0017   -0.0018    0.0032    0.0010   -0.0037
    92 N2     2s         0.1358    0.0590    0.5776    0.0904   -0.1448   -0.2069    0.0341   -0.1001   -0.0205   -0.1221
    93 N2     3s        -0.0473   -0.0068   -0.0726   -0.0056   -0.0079   -0.0121   -0.0037    0.0043   -0.0008   -0.0182
    94 N2     4s        -0.0115   -0.0023   -0.0245   -0.0008    0.0006   -0.0005   -0.0018    0.0022   -0.0005   -0.0020
    95 N2     2px       -0.0339    0.0112   -0.0160   -0.0885   -0.0731    0.0668    0.2049   -0.3578   -0.0464    0.0628
    96 N2     3px        0.0141    0.0111   -0.0074    0.0407   -0.0166   -0.0475   -0.0747    0.0826    0.0086   -0.0125
    97 N2     4px       -0.0052    0.0030    0.0021   -0.0015   -0.0087   -0.0058   -0.0015   -0.0030   -0.0038   -0.0013
    98 N2     2py        0.0164   -0.0031   -0.0265   -0.1395   -0.0570    0.0785    0.0240    0.0442    0.2865   -0.1542
    99 N2     3py        0.0067   -0.0187   -0.0469    0.0456   -0.0133   -0.0608   -0.0415   -0.0141   -0.0552    0.0389
   100 N2     4py       -0.0103   -0.0016   -0.0137   -0.0028   -0.0033   -0.0050   -0.0079    0.0044   -0.0019    0.0030
   101 N2     2pz       -0.0082    0.0055    0.0147   -0.0066    0.0026    0.0030    0.0148   -0.0285   -0.0614    0.0174
   102 N2     3pz       -0.0028    0.0054   -0.0021   -0.0067    0.0046   -0.0005   -0.0019    0.0115    0.0131   -0.0077
   103 N2     4pz        0.0008    0.0013    0.0014   -0.0012    0.0001    0.0004    0.0006   -0.0003    0.0014   -0.0006
   104 N2     3d2-       0.0005    0.0013    0.0115   -0.0002    0.0020    0.0046   -0.0022    0.0114    0.0134   -0.0029
   105 N2     3d1-       0.0009   -0.0003   -0.0007   -0.0016    0.0001    0.0013   -0.0006    0.0026    0.0017   -0.0005
   106 N2     3d0       -0.0032   -0.0018   -0.0164   -0.0007    0.0032    0.0030   -0.0005    0.0001   -0.0007    0.0014
   107 N2     3d1+       0.0010   -0.0001    0.0016   -0.0005   -0.0011   -0.0009    0.0013   -0.0026   -0.0020    0.0014
   108 N2     3d2+       0.0058   -0.0003    0.0020    0.0093   -0.0003   -0.0095   -0.0104    0.0127   -0.0021    0.0050
   109 N5     1s        -0.0027   -0.0402    0.0059   -0.0010   -0.0006    0.0002    0.0003    0.0019    0.0013    0.0017
   110 N5     2s         0.0328    0.5894   -0.1018    0.0234    0.1152   -0.1863    0.2130    0.0487    0.0967    0.1551
   111 N5     3s        -0.0040   -0.0742    0.0116   -0.0076    0.0140   -0.0152    0.0096    0.0054    0.0100    0.0119
   112 N5     4s        -0.0012   -0.0250    0.0045   -0.0036    0.0031   -0.0012   -0.0005    0.0004    0.0002    0.0006
   113 N5     2px        0.0057    0.0284    0.0212   -0.0938    0.1392   -0.0591   -0.2726   -0.2575    0.1392   -0.1829
   114 N5     3px        0.0149   -0.0026    0.0249    0.0199   -0.0418    0.0420    0.0711    0.0427   -0.0228    0.0413
   115 N5     4px        0.0028   -0.0026    0.0052   -0.0052    0.0022    0.0031    0.0005    0.0001   -0.0024    0.0048
   116 N5     2py       -0.0151   -0.0089   -0.0173    0.1069   -0.1131    0.1047   -0.1273   -0.1530    0.1510    0.2740
   117 N5     3py       -0.0069   -0.0225   -0.0161   -0.0381    0.0796   -0.0533    0.0298    0.0308   -0.0365   -0.0482
   118 N5     4py       -0.0008   -0.0044   -0.0031   -0.0013    0.0062   -0.0045   -0.0005    0.0024   -0.0018   -0.0056
   119 N5     2pz       -0.0019    0.0241   -0.0079    0.0093    0.0172   -0.0080   -0.1320   -0.1496    0.1016    0.0121
   120 N5     3pz       -0.0011   -0.0343    0.0001    0.0018    0.0083   -0.0067    0.0189    0.0156   -0.0102    0.0079
   121 N5     4pz       -0.0000   -0.0040   -0.0003   -0.0013    0.0037   -0.0020   -0.0022   -0.0012   -0.0005    0.0005
   122 N5     3d2-      -0.0000   -0.0101    0.0002   -0.0019    0.0038   -0.0071    0.0088    0.0043   -0.0074   -0.0056
   123 N5     3d1-       0.0001    0.0031   -0.0012    0.0044   -0.0044    0.0008    0.0051    0.0014    0.0003    0.0064
   124 N5     3d0       -0.0012   -0.0125    0.0020   -0.0003    0.0003    0.0006   -0.0042   -0.0046    0.0010   -0.0019
   125 N5     3d1+       0.0005    0.0097   -0.0018   -0.0032    0.0081   -0.0081   -0.0062   -0.0084    0.0033   -0.0077
   126 N5     3d2+      -0.0007    0.0033   -0.0003   -0.0058    0.0095   -0.0055   -0.0126   -0.0106    0.0022   -0.0095
   127 O7     1s        -0.0230    0.0014    0.0028   -0.0030   -0.0031   -0.0018    0.0062   -0.0081   -0.0109   -0.0096
   128 O7     2s         0.6860   -0.0994   -0.3168   -0.1674   -0.1492   -0.0204    0.1515   -0.2484   -0.2161   -0.1638
   129 O7     3s        -0.0265   -0.0035   -0.0135   -0.0178   -0.0161   -0.0103    0.0203   -0.0300   -0.0352   -0.0295
   130 O7     4s        -0.0130   -0.0009   -0.0011   -0.0033   -0.0029   -0.0032    0.0031   -0.0061   -0.0070   -0.0057
   131 O7     2px        0.1172   -0.0145   -0.0198    0.0080   -0.0034   -0.0296   -0.1030    0.1387    0.1738    0.1083
   132 O7     3px       -0.0341   -0.0028   -0.0031   -0.0064   -0.0038   -0.0081    0.0113   -0.0162   -0.0164   -0.0101
   133 O7     4px       -0.0032   -0.0019   -0.0001   -0.0002    0.0009   -0.0006   -0.0006   -0.0036   -0.0005   -0.0003
   134 O7     2py       -0.0696    0.0266    0.0325   -0.0139   -0.0250   -0.0622    0.0869    0.0109   -0.1689   -0.1778
   135 O7     3py        0.0274    0.0009   -0.0055    0.0106    0.0097   -0.0091   -0.0066    0.0066    0.0139    0.0195
   136 O7     4py       -0.0008    0.0009   -0.0023    0.0011    0.0016   -0.0010   -0.0002    0.0009    0.0038    0.0041
   137 O7     2pz        0.0129   -0.0024   -0.0050    0.0010    0.0018    0.0064   -0.0191    0.0091    0.0305    0.0312
   138 O7     3pz       -0.0062    0.0017    0.0005   -0.0014   -0.0031    0.0034    0.0003   -0.0027   -0.0023   -0.0037
   139 O7     4pz        0.0001    0.0006    0.0002    0.0002   -0.0008    0.0011   -0.0005   -0.0006   -0.0002   -0.0008
   140 O7     3d2-      -0.0160    0.0029    0.0055   -0.0001   -0.0005   -0.0026    0.0062   -0.0019   -0.0111   -0.0103
   141 O7     3d1-      -0.0030    0.0003    0.0018    0.0005   -0.0002   -0.0007   -0.0001    0.0002   -0.0013   -0.0016
   142 O7     3d0       -0.0106    0.0008    0.0047    0.0014    0.0008    0.0003    0.0013   -0.0026   -0.0047   -0.0034
   143 O7     3d1+       0.0038   -0.0005   -0.0012   -0.0004   -0.0004    0.0001   -0.0015    0.0010    0.0022    0.0016
   144 O7     3d2+       0.0050   -0.0010    0.0019   -0.0000   -0.0030   -0.0043   -0.0059    0.0064    0.0041   -0.0008
   145 O8     1s         0.0010    0.0022   -0.0007    0.0029   -0.0031   -0.0019    0.0132    0.0055    0.0185   -0.0084
   146 O8     2s        -0.0621   -0.3091   -0.0193    0.1753   -0.1180   -0.0757    0.3322    0.1234    0.3090   -0.1465
   147 O8     3s        -0.0012   -0.0109   -0.0031    0.0135   -0.0118   -0.0092    0.0425    0.0159    0.0533   -0.0243
   148 O8     4s         0.0000   -0.0007   -0.0005    0.0019   -0.0017   -0.0024    0.0083    0.0030    0.0110   -0.0054
   149 O8     2px        0.0079    0.0056    0.0090   -0.0052   -0.0213    0.0237    0.1246    0.1187    0.1335   -0.0925
   150 O8     3px        0.0014    0.0040    0.0012    0.0004    0.0028    0.0017   -0.0193   -0.0154   -0.0121    0.0056
   151 O8     4px        0.0006    0.0006   -0.0001    0.0006    0.0011   -0.0001   -0.0018   -0.0022   -0.0010    0.0003
   152 O8     2py        0.0089    0.0353   -0.0028    0.0319   -0.0108   -0.0383    0.1215    0.0136    0.2800   -0.1422
   153 O8     3py        0.0011   -0.0034    0.0016   -0.0077    0.0127    0.0006   -0.0187   -0.0008   -0.0323    0.0165
   154 O8     4py        0.0004   -0.0025   -0.0002    0.0009    0.0006    0.0004   -0.0017    0.0005   -0.0042    0.0034
   155 O8     2pz        0.0053    0.0113    0.0003    0.0205   -0.0245   -0.0064    0.1273    0.0648    0.1968   -0.0944
   156 O8     3pz       -0.0022   -0.0030   -0.0020   -0.0065    0.0048    0.0004   -0.0194   -0.0093   -0.0190    0.0114
   157 O8     4pz       -0.0007   -0.0015   -0.0008   -0.0012   -0.0000   -0.0003   -0.0022   -0.0013   -0.0025    0.0017
   158 O8     3d2-      -0.0011   -0.0028   -0.0006    0.0001    0.0011   -0.0007   -0.0070   -0.0047   -0.0109    0.0060
   159 O8     3d1-      -0.0010   -0.0050    0.0003   -0.0008    0.0003    0.0021   -0.0061   -0.0009   -0.0136    0.0067
   160 O8     3d0        0.0003    0.0019    0.0001   -0.0011    0.0011   -0.0004   -0.0009   -0.0004    0.0011   -0.0015
[...]
AIVX     1  Mu1.0001  In1.022 Se1.049               0.17105597     -0.00284548      0.00540262     -0.00001537
AIVX     1  Mu1.0001  In1.023 Se1.049               0.29363833      0.00067701     -0.00109083     -0.00000074
AIVX     1  Mu1.0001  In1.024 Se1.049               0.28955318      0.00002493      0.00001098      0.00000000
AIVX     1  Mu1.0001  In1.025 Se1.049               0.25845926      0.00010470     -0.00010894     -0.00000001
AIVX     1  Mu1.0001  In1.026 Se1.049               0.08351868     -0.00161437      0.00352028     -0.00000568
AIVX     1  Mu1.0001  In1.027 Se1.049               0.24343469     -0.00158602      0.00257830     -0.00000409
AIVX     1  Mu1.0001  In1.028 Se1.049               0.11665087      0.00023680     -0.00072279     -0.00000017
AIVX     1  Mu1.0001  In1.029 Se1.049               0.10760191     -0.00026751      0.00040901     -0.00000011
AIVX     1  Mu1.0001  In1.021 Se1.050               0.28388742     -0.00126222      0.00178710     -0.00000226
AIVX     1  Mu1.0001  In1.022 Se1.050               0.18275991      0.00049396     -0.00038490     -0.00000019
AIVX     1  Mu1.0001  In1.025 Se1.050               0.27016320     -0.00044071      0.00081851     -0.00000036
AIVX     1  Mu1.0001  In1.026 Se1.050               0.09522262      0.00035293     -0.00061500     -0.00000022
AIVX     1  Mu1.0001  In1.027 Se1.050               0.25513863      0.00198798     -0.00371340     -0.00000738
AIVX     1  Mu1.0001  In1.028 Se1.050               0.12835481     -0.00055907      0.00180363     -0.00000101
AIVX     1  Mu1.0001  In1.029 Se1.050               0.11930585      0.00113868     -0.00225579     -0.00000257
AIVX     1  Mu1.0001  In1.021 Se1.051               0.27520226     -0.00010290      0.00001090     -0.00000000
AIVX     1  Mu1.0001  In1.022 Se1.051               0.17407475      0.00037641     -0.00076430     -0.00000029
AIVX     1  Mu1.0001  In1.023 Se1.051               0.29665711     -0.00030600      0.00067534     -0.00000021
AIVX     1  Mu1.0001  In1.024 Se1.051               0.29257195     -0.00071391      0.00109767     -0.00000078
AIVX     1  Mu1.0001  In1.025 Se1.051               0.26147804     -0.00054556      0.00088911     -0.00000049
AIVX     1  Mu1.0001  In1.026 Se1.051               0.08653745      0.00041426     -0.00090566     -0.00000038
AIVX     1  Mu1.0001  In1.027 Se1.051               0.24645347     -0.00085037      0.00143492     -0.00000122
AIVX     1  Mu1.0001  In1.028 Se1.051               0.11966964      0.00057863     -0.00121783     -0.00000070
AIVX     1  Mu1.0001  In1.029 Se1.051               0.11062068      0.00027700     -0.00062171     -0.00000017
AIVX     1  Mu1.0001  In1.022 Se1.052               0.22321842      0.00132308     -0.00236767     -0.00000313
AIVX     1  Mu1.0001  In1.026 Se1.052               0.13568113      0.00173489     -0.00317966     -0.00000552
AIVX     1  Mu1.0001  In1.027 Se1.052               0.29559715      0.00316106     -0.00507984     -0.00001606
AIVX     1  Mu1.0001  In1.028 Se1.052               0.16881332      0.00023083     -0.00046360     -0.00000011
AIVX     1  Mu1.0001  In1.029 Se1.052               0.15976436     -0.00023070      0.00043051     -0.00000010
AIVX     1  Mu1.0001  In1.022 Se1.053               0.22726546      0.00028601     -0.00031726     -0.00000009
AIVX     1  Mu1.0001  In1.026 Se1.053               0.13972816      0.00116794     -0.00208423     -0.00000243
AIVX     1  Mu1.0001  In1.027 Se1.053               0.29964418      0.00248690     -0.00390543     -0.00000971
AIVX     1  Mu1.0001  In1.028 Se1.053               0.17286035     -0.00046463      0.00110774     -0.00000051
AIVX     1  Mu1.0001  In1.029 Se1.053               0.16381139      0.00105045     -0.00198042     -0.00000208
AIVX     1  Mu1.0001  In1.022 Se1.054               0.26638911      0.00141022     -0.00220573     -0.00000311
AIVX     1  Mu1.0001  In1.026 Se1.054               0.17885181      0.00118668     -0.00227215     -0.00000270
AIVX     1  Mu1.0001  In1.028 Se1.054               0.21198401      0.00088400     -0.00183870     -0.00000163
AIVX     1  Mu1.0001  In1.029 Se1.054               0.20293505      0.00037241     -0.00064116     -0.00000024
AIVX     1  Mu1.0001  In1.022 Se1.055               0.28157705     -0.00236293      0.00347670     -0.00000822
AIVX     1  Mu1.0001  In1.026 Se1.055               0.19403976      0.00007001     -0.00009463     -0.00000001
AIVX     1  Mu1.0001  In1.028 Se1.055               0.22717195      0.00103619     -0.00194423     -0.00000201
AIVX     1  Mu1.0001  In1.029 Se1.055               0.21812299     -0.00146846      0.00253159     -0.00000372
AIVX     1  Mu1.0001  In1.022 Se1.056               0.27251650     -0.00040264      0.00066358     -0.00000027
AIVX     1  Mu1.0001  In1.026 Se1.056               0.18497921      0.00113273     -0.00192788     -0.00000218
AIVX     1  Mu1.0001  In1.028 Se1.056               0.21811140     -0.00146085      0.00303992     -0.00000444
AIVX     1  Mu1.0001  In1.029 Se1.056               0.20906244      0.00006679     -0.00009788     -0.00000001
AIVX     1  Mu1.0001  In1.022 Se1.057               0.29320700     -0.00052055      0.00067551     -0.00000035
AIVX     1  Mu1.0001  In1.026 Se1.057               0.20566970     -0.00075886      0.00139342     -0.00000106
AIVX     1  Mu1.0001  In1.028 Se1.057               0.23880190      0.00133505     -0.00262157     -0.00000350
AIVX     1  Mu1.0001  In1.029 Se1.057               0.22975294     -0.00025817      0.00027939     -0.00000007
AIVX     1  Mu1.0001  In1.026 Se1.058               0.26038684      0.00047956     -0.00097058     -0.00000047
AIVX     1  Mu1.0001  In1.028 Se1.058               0.29351903     -0.00038665      0.00038691     -0.00000015
AIVX     1  Mu1.0001  In1.029 Se1.058               0.28447007      0.00066883     -0.00089105     -0.00000060
AIVX     1  Mu1.0001  In1.026 Se1.059               0.21581413     -0.00075661      0.00046640     -0.00000035
AIVX     1  Mu1.0001  In1.028 Se1.059               0.24894633      0.00110800     -0.00230545     -0.00000255
AIVX     1  Mu1.0001  In1.029 Se1.059               0.23989737     -0.00112223      0.00213814     -0.00000240
AIVX     1  Mu1.0001  In1.026 Se1.060               0.23148164     -0.00060568      0.00088967     -0.00000054
AIVX     1  Mu1.0001  In1.028 Se1.060               0.26461383      0.00005091     -0.00011077     -0.00000001
AIVX     1  Mu1.0001  In1.029 Se1.060               0.25556487      0.00091112     -0.00122346     -0.00000111
AIVX     1  Mu1.0001  In1.026 Se1.061               0.27351733      0.00233545     -0.00413259     -0.00000965
AIVX     1  Mu1.0001  In1.029 Se1.061               0.29760056      0.00078369     -0.00117117     -0.00000092
AIVX     1  Mu1.0001  In1.026 Se1.062               0.24668934      0.00063140     -0.00097627     -0.00000062
AIVX     1  Mu1.0001  In1.028 Se1.062               0.27982153      0.00022762     -0.00041514     -0.00000009
AIVX     1  Mu1.0001  In1.029 Se1.062               0.27077257      0.00165255     -0.00273897     -0.00000453
AIVX     1  Mu1.0001  In1.026 Se1.066               0.29257675     -0.00204411      0.00304218     -0.00000622
AIVX     1  Mu1.0001  In1.022 Se1.209               0.25015415     -0.00074942      0.00102640     -0.00000077
AIVX     1  Mu1.0001  In1.026 Se1.209               0.16261686     -0.00030678      0.00092411     -0.00000028
AIVX     1  Mu1.0001  In1.028 Se1.209               0.19574905     -0.00092998      0.00226994     -0.00000211
AIVX     1  Mu1.0001  In1.029 Se1.209               0.18670009     -0.00214239      0.00393676     -0.00000843
--
 
   (Skipping property calculation,
    use PROP keyword to activate)
--
 
  Total CASPT2 energies:
::    CASPT2 Root  1     Total energy:   -455.37140397
::    CASPT2 Root  2     Total energy:   -455.16367024
::    CASPT2 Root  3     Total energy:   -455.15707009
::    CASPT2 Root  4     Total energy:   -455.13693508
::    CASPT2 Root  5     Total energy:   -455.08583200
::    CASPT2 Root  6     Total energy:   -455.12938443
::    CASPT2 Root  7     Total energy:   -455.07342271
 
++ Multi-State CASPT2 section:
********************************************************************************
  MULTI-STATE CASPT2 SECTION
--------------------------------------------------------------------------------
 
  Output diagonal energies have been shifted. Add   -455.000000000000     
 
  Effective Hamiltonian matrix (Symmetric):
 
                1               2               3               4               5
   1        -0.37140397
   2        -0.00025900     -0.16367024
   3        -0.00002700      0.00026092     -0.15707009
   4        -0.01584233     -0.00236538     -0.00119466     -0.13693508
   5         0.00435678      0.00020206      0.00025269      0.00943332     -0.08583200
   6        -0.01241000     -0.00196004      0.00043303     -0.00784922      0.00121813
   7         0.00668703     -0.00001495      0.00110969      0.01258630     -0.00582585
 
                6               7
   6        -0.12938443
   7         0.00028901     -0.07342271
 
       Total MS-CASPT2 energies:
::    MS-CASPT2 Root  1     Total energy:   -455.37343957
::    MS-CASPT2 Root  2     Total energy:   -455.16409386
::    MS-CASPT2 Root  3     Total energy:   -455.15719284
::    MS-CASPT2 Root  4     Total energy:   -455.14275814
::    MS-CASPT2 Root  5     Total energy:   -455.12541826
::    MS-CASPT2 Root  6     Total energy:   -455.08495138
::    MS-CASPT2 Root  7     Total energy:   -455.06986448
 
       Eigenvectors:
            0.99559996     -0.01523989     -0.00742608     -0.08998208     -0.01481389
            0.00253545      0.99017343      0.00945639     -0.13791227     -0.02023533
            0.00055689     -0.01949093      0.99630737     -0.07664978      0.03195100
            0.07056252      0.11186178      0.07933548      0.85909792     -0.40818220
           -0.01814067     -0.01746703     -0.01577045     -0.16016242      0.08645614
            0.05303500      0.07674678      0.00518875      0.42106220      0.90183207
           -0.02555630     -0.01536896     -0.02563815     -0.16128739      0.10469845
 
            0.00779364      0.01078701
           -0.00407662     -0.00385297
            0.00294571      0.00931098
            0.22668467      0.14200658
            0.94706891     -0.26277541
           -0.01457443     -0.02152741
            0.22666293      0.95399260
 
--
 
  THE ORIGINAL CI ARRAYS ARE NOW MIXED AS LINEAR
  COMBINATIONS, GIVEN BY THE EIGENVECTORS.
  A NEW JOBIPH FILE NAMED 'JOBMIX' IS PREPARED.
********************************************************************************
 
++ Mixed CI coefficients:
  The CI coefficients for the MIXED state nr.   1
--------------------------------------------------------------------------------
 CI COEFFICIENTS LARGER THAN  0.50D-01
  Occupation of active orbitals, and spin coupling
  of open shells. (u,d: Spin up or down).
  SGUGA info is (Midvert:IsyUp:UpperWalk/LowerWalk)
        Conf  SGUGA info        Occupation    Coefficient         Weight
           1  ( 1:1:   1/   1)   22222200        0.966285       0.933706
           4  ( 1:1:   4/   1)   22222020       -0.113914       0.012976
          64  ( 2:1:   4/   3)   2u22220d        0.124660       0.015540
          81  ( 2:1:   1/   4)   u22222d0       -0.100678       0.010136
         105  ( 3:1:   5/   1)   22202202       -0.081456       0.006635
         175  ( 3:1:   5/   8)   20222202       -0.075675       0.005727
         191  ( 3:1:   1/  10)   02222220       -0.086821       0.007538
 
  The CI coefficients for the MIXED state nr.   2
--------------------------------------------------------------------------------
 CI COEFFICIENTS LARGER THAN  0.50D-01
  Occupation of active orbitals, and spin coupling
  of open shells. (u,d: Spin up or down).
  SGUGA info is (Midvert:IsyUp:UpperWalk/LowerWalk)
        Conf  SGUGA info        Occupation    Coefficient         Weight
           2  ( 1:1:   2/   1)   22222ud0        0.173841       0.030221
           3  ( 1:1:   3/   1)   2222u2d0        0.934478       0.873250
           5  ( 1:1:   5/   1)   2222ud20        0.135153       0.018266
           8  ( 1:1:   8/   1)   2222u20d       -0.091699       0.008409
          24  ( 2:1:   4/   1)   222u220d        0.054666       0.002988
          66  ( 2:1:   6/   3)   2u22d2ud        0.062873       0.003953
          68  ( 2:1:   8/   3)   2u22u2dd        0.106807       0.011408
          83  ( 2:1:   3/   4)   u222d220        0.162464       0.026395
         107  ( 3:1:   7/   1)   2220u2d2       -0.078614       0.006180
         177  ( 3:1:   7/   8)   2022u2d2       -0.076099       0.005791
 
  The CI coefficients for the MIXED state nr.   3
--------------------------------------------------------------------------------
 CI COEFFICIENTS LARGER THAN  0.50D-01
  Occupation of active orbitals, and spin coupling
  of open shells. (u,d: Spin up or down).
  SGUGA info is (Midvert:IsyUp:UpperWalk/LowerWalk)
        Conf  SGUGA info        Occupation    Coefficient         Weight
           7  ( 1:1:   7/   1)   22222u0d       -0.157231       0.024722
           8  ( 1:1:   8/   1)   2222u20d        0.055121       0.003038
          24  ( 2:1:   4/   1)   222u220d        0.109305       0.011948
          44  ( 2:1:   4/   2)   22u2220d        0.933494       0.871412
          45  ( 2:1:   5/   2)   22u22dud       -0.065155       0.004245
          47  ( 2:1:   7/   2)   22u22udd       -0.107357       0.011526
          49  ( 2:1:   9/   2)   22u2202d       -0.086233       0.007436
         115  ( 3:1:   5/   2)   22ud2202        0.150803       0.022741
         155  ( 3:1:   5/   6)   2ud22202       -0.112047       0.012555
         225  ( 4:1:   1/   5)   u2u222dd        0.071015       0.005043
         226  ( 4:1:   2/   5)   u2u22d2d        0.059656       0.003559
         301  ( 5:1:   1/  17)   02u2222d        0.097457       0.009498
 
  The CI coefficients for the MIXED state nr.   4
--------------------------------------------------------------------------------
 CI COEFFICIENTS LARGER THAN  0.50D-01
  Occupation of active orbitals, and spin coupling
  of open shells. (u,d: Spin up or down).
  SGUGA info is (Midvert:IsyUp:UpperWalk/LowerWalk)
        Conf  SGUGA info        Occupation    Coefficient         Weight
           2  ( 1:1:   2/   1)   22222ud0        0.722769       0.522395
           3  ( 1:1:   3/   1)   2222u2d0       -0.196984       0.038803
           4  ( 1:1:   4/   1)   22222020       -0.159908       0.025571
           7  ( 1:1:   7/   1)   22222u0d       -0.161014       0.025926
           8  ( 1:1:   8/   1)   2222u20d       -0.179056       0.032061
          24  ( 2:1:   4/   1)   222u220d        0.485711       0.235916
          29  ( 2:1:   9/   1)   222u202d       -0.054525       0.002973
          44  ( 2:1:   4/   2)   22u2220d       -0.105091       0.011044
          67  ( 2:1:   7/   3)   2u222udd        0.082391       0.006788
          81  ( 2:1:   1/   4)   u22222d0       -0.070545       0.004977
          82  ( 2:1:   2/   4)   u2222d20        0.178956       0.032025
         106  ( 3:1:   6/   1)   22202ud2       -0.056098       0.003147
         125  ( 3:1:   5/   3)   2u2d2202       -0.117500       0.013806
         176  ( 3:1:   6/   8)   20222ud2       -0.061399       0.003770
         191  ( 3:1:   1/  10)   02222220        0.095663       0.009151
         213  ( 4:1:   1/   3)   u22u22dd        0.054937       0.003018
 
  The CI coefficients for the MIXED state nr.   5
--------------------------------------------------------------------------------
 CI COEFFICIENTS LARGER THAN  0.50D-01
  Occupation of active orbitals, and spin coupling
  of open shells. (u,d: Spin up or down).
  SGUGA info is (Midvert:IsyUp:UpperWalk/LowerWalk)
        Conf  SGUGA info        Occupation    Coefficient         Weight
           2  ( 1:1:   2/   1)   22222ud0        0.543769       0.295685
           4  ( 1:1:   4/   1)   22222020       -0.102179       0.010441
           7  ( 1:1:   7/   1)   22222u0d        0.114996       0.013224
           8  ( 1:1:   8/   1)   2222u20d        0.230237       0.053009
          24  ( 2:1:   4/   1)   222u220d       -0.719813       0.518130
          27  ( 2:1:   7/   1)   222u2udd        0.067382       0.004540
          29  ( 2:1:   9/   1)   222u202d        0.076333       0.005827
          44  ( 2:1:   4/   2)   22u2220d        0.067673       0.004580
          67  ( 2:1:   7/   3)   2u222udd        0.058817       0.003459
          82  ( 2:1:   2/   4)   u2222d20        0.139514       0.019464
         106  ( 3:1:   6/   1)   22202ud2       -0.053751       0.002889
         125  ( 3:1:   5/   3)   2u2d2202        0.173440       0.030081
         191  ( 3:1:   1/  10)   02222220        0.066254       0.004390
         213  ( 4:1:   1/   3)   u22u22dd       -0.062155       0.003863
         269  ( 5:1:   1/   9)   022u222d       -0.071141       0.005061
 
  The CI coefficients for the MIXED state nr.   6
--------------------------------------------------------------------------------
 CI COEFFICIENTS LARGER THAN  0.50D-01
  Occupation of active orbitals, and spin coupling
  of open shells. (u,d: Spin up or down).
  SGUGA info is (Midvert:IsyUp:UpperWalk/LowerWalk)
        Conf  SGUGA info        Occupation    Coefficient         Weight
           2  ( 1:1:   2/   1)   22222ud0       -0.076894       0.005913
           7  ( 1:1:   7/   1)   22222u0d       -0.899272       0.808689
           8  ( 1:1:   8/   1)   2222u20d       -0.135404       0.018334
          12  ( 1:1:  12/   1)   2222uudd       -0.056361       0.003177
          24  ( 2:1:   4/   1)   222u220d       -0.253020       0.064019
          44  ( 2:1:   4/   2)   22u2220d       -0.109141       0.011912
          73  ( 2:1:  13/   3)   2u222d02        0.071556       0.005120
          85  ( 2:1:   5/   4)   u2222dud       -0.156307       0.024432
          87  ( 2:1:   7/   4)   u2222udd       -0.161015       0.025926
         125  ( 3:1:   5/   3)   2u2d2202        0.054747       0.002997
         193  ( 3:1:   3/  10)   02222u2d       -0.126554       0.016016
 
  The CI coefficients for the MIXED state nr.   7
--------------------------------------------------------------------------------
 CI COEFFICIENTS LARGER THAN  0.50D-01
  Occupation of active orbitals, and spin coupling
  of open shells. (u,d: Spin up or down).
  SGUGA info is (Midvert:IsyUp:UpperWalk/LowerWalk)
        Conf  SGUGA info        Occupation    Coefficient         Weight
           3  ( 1:1:   3/   1)   2222u2d0       -0.062682       0.003929
           7  ( 1:1:   7/   1)   22222u0d        0.197538       0.039021
           8  ( 1:1:   8/   1)   2222u20d       -0.859056       0.737977
          10  ( 1:1:  10/   1)   2222udud       -0.186447       0.034762
          12  ( 1:1:  12/   1)   2222uudd       -0.274971       0.075609
          24  ( 2:1:   4/   1)   222u220d       -0.238252       0.056764
          44  ( 2:1:   4/   2)   22u2220d        0.112304       0.012612
          74  ( 2:1:  14/   3)   2u22d202        0.062705       0.003932
          91  ( 2:1:  11/   4)   u222ud2d        0.071992       0.005183
         125  ( 3:1:   5/   3)   2u2d2202        0.053372       0.002849
         194  ( 3:1:   4/  10)   0222u22d       -0.073916       0.005464
 
--
 
--- Stop Module: caspt2 at Tue Jun 10 17:24:06 2025 /rc=_RC_ALL_IS_WELL_ ---
*** files: xmldump
    saved to directory /home/pcaah4/diamide_project
--- Module caspt2 spent 7 minutes 10 seconds ---

.##################.
.# Happy landing! #.
.##################.

    Timing: Wall=690.09 User=600.89 System=79.88
******************************************************
*** WorkDir at /srv/COMMUNAL_SCRATCH/12380 cleaned ***
******************************************************
