   This run of MOLCAS is using the pymolcas driver

                             OPE
                             OPE          NMOL  CASOP  ENMOLC A   SO
                 OPE        NMOLC        AS  OP EN  MO LC     AS  OP
                OPENM       OL CA        SO  PE NM  OL CA     SOP EN
                OP EN      MO   LC       AS  OP ENMOL  CASO   PENMOL
                OP  EN     MO   LC       AS  OP EN     MO     LC ASO
               OP   E  NMOL  C  AS       OP  EN MO     LC     AS  OP
               OP  E   NMO   LC AS        OPEN  MO     LCASOP EN   M
               O  PEN   MO  LCA  SO
            OPE   NMO   L   CAS    OP
        OPENMOL  CASOP     ENMOL   CASOPE
     OPENMOLCA   SOPENMOLCASOPEN   MOLCASOPE
    OPENMOLCAS   OP           EN   MOL    CAS
    OPENMOLCAS       OP  ENM        O     LCA
    OPENMOLCAS    OPEN  MOLCASO     P  E  NMO
    OPENMOLCAS     OP               E  N  MOL
    OPENMOLCA   SO           PENM   O  L  CAS    OPEN    MO    LCAS
    OPENMOLCA   SOP           ENM   O  L  CAS   OP  EN  MOLC  AS   O
    OPENMOLCA   SOPE           NM      O  LCA   S      OP  EN MO
    OPENMOLC                AS         O  PEN   M      OL  CA  SOPE
    OPENMO        LCASOPE  NMOL        C  ASO   P      ENMOLC     AS
    OPE     NMO      LCA  SO     P     E   NM   OL  CA SO  PE N   MO
          OPENMOLCA            SOPE   NMO        LCAS  O    P  ENMO
     OPENMOLCASOPENMOLCASOPENMOLCASOPENMOLCA
        OPENMOLCASOPENMOLCASOPENMOLCASOPE
            OPENMOLCASOPENMOLCASOPENM
               OPENMOLCASOPENMOLCA        version: v23.06
                   OPENMOLCASO
                       OPE                tag:

 OpenMolcas is free software; you can redistribute it and/or modify it
 under the terms of the GNU Lesser General Public License version 2.1.
 OpenMolcas is distributed in the hope that it will be useful, but it
 is provided "as is" and without any express or implied warranties.
 For more details see the full text of the license in the file
 LICENSE or in <http://www.gnu.org/licenses/>.

                 Copyright (C) The OpenMolcas Authors
           For the author list and the recommended citation,
                   consult the file CONTRIBUTORS.md

           *************************************************
           * pymolcas version py2.24                       *
           *   build 4567b286dd94b1984b333a4ddf893180      *
           *   (after the EMIL interpreter by V. Veryazov) *
           *************************************************

configuration info
------------------
Host name: loginchem01.nottingham.ac.uk (Linux)
C Compiler ID: Intel
C flags: -std=gnu99 -gcc-sys -qopenmp
Fortran Compiler ID: Intel
Fortran flags: -fpp -i8 -heap-arrays -qopenmp
Definitions: _MOLCAS_;_I8_;_LINUX_
Parallel: OFF (GA=OFF)


   ----------------------------------------------------------------------------------------------------
  |
  |              Project: orca_geometry_optimisation_300_330_BP86_def2-SVP_def2J_scf_cas1_ras12i11_cas8
  |       Submitted from: /home/pcaah4/diamide_project
  |         Scratch area: /srv/COMMUNAL_SCRATCH/12457
  |      Save outputs to: /home/pcaah4/diamide_project
  |               Molcas: /software/chemistry/openmolcas/openmolcas-23.06-openmp
  |
  | Scratch area is empty
  |
  |       MOLCAS_DRIVER = /software/chemistry/openmolcas/openmolcas-23.06-openmp/sbin/pymolcas
  | MOLCAS_KEEP_WORKDIR = NO
  |       MOLCAS_NPROCS = 1
  |       MOLCAS_SOURCE = /software/chemistry/openmolcas/openmolcas-23.06-openmp
  |    MOLCAS_STRUCTURE = 0
  |
   ----------------------------------------------------------------------------------------------------

++ ---------   Input file   ---------

&SEWARD
TITLE
orca_geometry_optimisation_300_330_BP86_def2-SVP_def2J_scf_cas1_ras12i11
MULTIPOLES
2
SDIPOLE
ANGMOM
0 0 0
BASIS SET
C.ANO-S...4S3P1D.
C1           -0.033405   -0.112351    0.043048 /Angstrom
C3            2.123883    1.077802   -0.211352 /Angstrom
C4            1.792492    1.991869   -1.412390 /Angstrom
C6            0.912073    2.051913   -3.718388 /Angstrom
C19          -0.704110   -1.468111    0.246485 /Angstrom
END OF BASIS
BASIS SET
N.ANO-S...4S3P1D.
N2            1.342371   -0.145467   -0.094215 /Angstrom
N5            1.329311    1.341992   -2.525519 /Angstrom
END OF BASIS
BASIS SET
O.ANO-S...4S3P1D.
O7           -0.661374    0.941471    0.009531 /Angstrom
O8            2.035188    3.193963   -1.359740 /Angstrom
END OF BASIS
BASIS SET
H.ANO-S...2S1P.
H9           -1.559825   -1.548876   -0.451692 /Angstrom
H10          -1.122736   -1.507741    1.272623 /Angstrom
H11          -0.032135   -2.337206    0.102299 /Angstrom
H12           1.831120   -1.034494    0.017632 /Angstrom
H13           2.000529    1.724729    0.682654 /Angstrom
H14           3.195831    0.802226   -0.278402 /Angstrom
H15           1.080140    0.357503   -2.414603 /Angstrom
H16          -0.190375    2.019613   -3.857477 /Angstrom
H17           1.220444    3.107658   -3.594237 /Angstrom
H18           1.396501    1.638917   -4.628519 /Angstrom
END OF BASIS
END OF INPUT

&RASSCF
TITLE
orca_geometry_optimisation_300_330_BP86_def2-SVP_def2J_scf_cas1_ras12i11
LUMORB
SPIN
1
SYMMETRY
1
NACTEL
12  0  0
INACTIVE
29
DELETED  ! delete Rydberg orbitals from an initial CAS(12,11) if done
3
FROZEN
0
RAS2
8
ITERATIONS
64 25
CIROOT
7 7
1 2 3 4 5 6 7
1 1 1 1 1 1 1
LEVSHFT
0.3
CIMX
20
FILEorb = /home/pcaah4/diamide_project/cas/ras12i11/ras_orb/orca_geometry_optimisation_300_330_BP86_def2-SVP_def2J_scf_cas1_ras12i11.RasOrb
ALTEr
0
END OF INPUT

&RASSI
NROF JOBIPH
    1 7
    1 2 3 5 4 6 7
TOFILE
TRDI
TDMN
1.0D-6
END OF INPUT

&CASPT2
TITLE
orca_geometry_optimisation_300_330_BP86_def2-SVP_def2J_scf_cas1_ras12i11
MULTISTATE
7 1 2 3 4 5 6 7
SHIFT
0.35
MAXITER
50
END OF INPUT

-- ----------------------------------

--- Start Module: seward at Tue Jun 10 20:37:01 2025 ---
 
()()()()()()()()()()()()()()()()()()()()()()()()()()()()()()()()()()()()()()()()()()()()()()()()()()

                                              &SEWARD

                                   only a single process is used
                       available to each process: 2.0 GB of memory, 1 thread
                                            pid: 3126859
()()()()()()()()()()()()()()()()()()()()()()()()()()()()()()()()()()()()()()()()()()()()()()()()()()
 
               SEWARD will generate:
                  Multipole Moment integrals up to order  2
                  Kinetic Energy integrals
                  Nuclear Attraction integrals (point charge)
                  One-Electron Hamiltonian integrals
                  Velocity integrals
                  Orbital angular momentum around ( 0.0000  0.0000  0.0000 )
                  Velocity quadrupole around ( 1.6905  1.8689 -1.9201 )
                  Two-Electron Repulsion integrals
 
 Title:
            orca_geometry_optimisation_300_330_BP86_def2-SVP_def2J_scf_cas1_ras12i11    
 
 
                   Integrals are discarded if absolute value <: 0.10E-13
                   Integral cutoff threshold is set to       <: 0.10E-15
 
++    Symmetry information:
      ---------------------
 
                    Character Table for C1 
 
                             E  
                    a        1  x, y, xy, Rz, z, xz, Ry, yz, Rx, I
--
 
 
++    Basis set information:
      ----------------------
 
 
      Basis set label: C.ANO-S...4S3P1D......
 
      Electronic valence basis set:
      ------------------
      Associated Effective Charge   6.000000 au
      Associated Actual Charge      6.000000 au
      Nuclear Model: Point charge
 
      Shell  nPrim  nBasis  Cartesian Spherical Contaminant
         s      10       4        X                  
         p       6       3        X                  
         d       3       1                 X         
 
 
      Basis set label: N.ANO-S...4S3P1D......
 
      Electronic valence basis set:
      ------------------
      Associated Effective Charge   7.000000 au
      Associated Actual Charge      7.000000 au
      Nuclear Model: Point charge
 
      Shell  nPrim  nBasis  Cartesian Spherical Contaminant
         s      10       4        X                  
         p       6       3        X                  
         d       3       1                 X         
 
 
      Basis set label: O.ANO-S...4S3P1D......
 
      Electronic valence basis set:
      ------------------
      Associated Effective Charge   8.000000 au
      Associated Actual Charge      8.000000 au
      Nuclear Model: Point charge
 
      Shell  nPrim  nBasis  Cartesian Spherical Contaminant
         s      10       4        X                  
         p       6       3        X                  
         d       3       1                 X         
 
 
      Basis set label: H.ANO-S...2S1P......
 
      Electronic valence basis set:
      ------------------
      Associated Effective Charge   1.000000 au
      Associated Actual Charge      1.000000 au
      Nuclear Model: Point charge
 
      Shell  nPrim  nBasis  Cartesian Spherical Contaminant
         s       7       2        X                  
         p       3       1        X                  
--
 
 
++    Molecular structure info:
      -------------------------
 
                    ************************************************ 
                    **** Cartesian Coordinates / Bohr, Angstrom **** 
                    ************************************************ 
 
     Center  Label                x              y              z                     x              y              z
        1      C1              -0.063126      -0.212313       0.081349             -0.033405      -0.112351       0.043048
        2      C3               4.013557       2.036751      -0.399397              2.123883       1.077802      -0.211352
        3      C4               3.387319       3.764087      -2.669030              1.792492       1.991869      -1.412390
        4      C6               1.723568       3.877554      -7.026735              0.912073       2.051913      -3.718388
        5      C19             -1.330575      -2.774328       0.465789             -0.704110      -1.468111       0.246485
        6      N2               2.536714      -0.274893      -0.178041              1.342371      -0.145467      -0.094215
        7      N5               2.512034       2.535997      -4.772539              1.329311       1.341992      -2.525519
        8      O7              -1.249816       1.779122       0.018011             -0.661374       0.941471       0.009531
        9      O8               3.845948       6.035715      -2.569536              2.035188       3.193963      -1.359740
       10      H9              -2.947642      -2.926951      -0.853574             -1.559825      -1.548876      -0.451692
       11      H10             -2.121664      -2.849218       2.404909             -1.122736      -1.507741       1.272623
       12      H11             -0.060726      -4.416679       0.193317             -0.032135      -2.337206       0.102299
       13      H12              3.460315      -1.954910       0.033320              1.831120      -1.034494       0.017632
       14      H13              3.780452       3.259265       1.290029              2.000529       1.724729       0.682654
       15      H14              6.039245       1.515987      -0.526104              3.195831       0.802226      -0.278402
       16      H15              2.041169       0.675583      -4.562938              1.080140       0.357503      -2.414603
       17      H16             -0.359757       3.816515      -7.289575             -0.190375       2.019613      -3.857477
       18      H17              2.306305       5.872623      -6.792124              1.220444       3.107658      -3.594237
       19      H18              2.639004       3.097104      -8.746633              1.396501       1.638917      -4.628519
 
                    ************************************************* 
                    **** InterNuclear Distances / Bohr, Angstrom **** 
                    ************************************************* 
 
     Atom centers         Bohr        Angstrom
   13 H12       6 N2      1.928775        1.020664
   16 H15       7 N5      1.930489        1.021571
   18 H17       4 C6      2.091632        1.106844
   10 H9        5 C19     2.092587        1.107349
   12 H11       5 C19     2.093818        1.108001
   15 H14       2 C3      2.095390        1.108833
   11 H10       5 C19     2.095618        1.108953
   14 H13       2 C3      2.098343        1.110395
   19 H18       4 C6      2.098851        1.110664
   17 H16       4 C6      2.100727        1.111657
    8 O7        1 C1      2.319064        1.227196
    9 O8        3 C4      2.319598        1.227478
    7 N5        3 C4      2.588258        1.369647
    6 N2        1 C1      2.613497        1.383003
    7 N5        4 C6      2.739133        1.449487
    6 N2        2 C3      2.752047        1.456320
    5 C19       1 C1      2.884119        1.526210
    3 C4        2 C3      2.920120        1.545261
   11 H10      10 H9      3.362439        1.779326
   15 H14      14 H13     3.382234        1.789801
   18 H17      17 H16     3.403369        1.800985
   12 H11      11 H10     3.405222        1.801966
   19 H18      17 H16     3.410739        1.804885
   19 H18      18 H17     3.410909        1.804975
   12 H11      10 H9      3.413144        1.806158
   16 H15       3 C4      3.864954        2.045245
   18 H17       7 N5      3.905651        2.066782
   13 H12       1 C1      3.931106        2.080252
   15 H14       6 N2      3.949193        2.089823
   14 H13       3 C4      4.010430        2.122228
   19 H18       7 N5      4.015518        2.124921
   14 H13       6 N2      4.023977        2.129397
   17 H16       7 N5      4.027701        2.131368
   16 H15       4 C6      4.052626        2.144558
   13 H12       2 C3      4.052984        2.144747
   10 H9        1 C1      4.069862        2.153678
   11 H10       1 C1      4.073055        2.155368
   15 H14       3 C4      4.083969        2.161143
   12 H11       1 C1      4.205858        2.225644
   13 H12      12 H11     4.299260        2.275071
    8 O7        6 N2      4.312217        2.281927
    9 O8        7 N5      4.345178        2.299369
   15 H14      13 H12     4.360157        2.307296
   18 H17       9 O8      4.497482        2.379965
   16 H15       6 N2      4.514011        2.388712
    9 O8        2 C3      4.552946        2.409315
    8 O7        5 C19     4.576127        2.421582
    6 N2        5 C19     4.649474        2.460396
    7 N5        2 C3      4.650612        2.460998
    4 C6        3 C4      4.665890        2.469083
    2 C3        1 C1      4.680678        2.476908
   14 H13       9 O8      4.754914        2.516192
   18 H17       3 C4      4.755461        2.516482
   17 H16      16 H15     4.802546        2.541398
   16 H15       2 C3      4.803974        2.542154
    6 N2        3 C4      4.820987        2.551156
   19 H18      16 H15     4.870778        2.577505
   13 H12       5 C19     4.879662        2.582206
   12 H11       6 N2      4.902958        2.594534
   10 H9        8 O7      5.078327        2.687335
   16 H15       1 C1      5.175502        2.738758
   11 H10       8 O7      5.280050        2.794082
    8 O7        2 C3      5.286180        2.797326
   14 H13       1 C1      5.318445        2.814400
   14 H13      13 H12     5.373028        2.843284
    7 N5        6 N2      5.386198        2.850253
    9 O8        4 C6      5.387836        2.851120
   14 H13       8 O7      5.395595        2.855226
   15 H14       9 O8      5.423478        2.869981
   16 H15      13 H12     5.482614        2.901274
   15 H14       7 N5      5.613721        2.970653
   18 H17      16 H15     5.661165        2.995759
--
 
 
            Nuclear Potential Energy            463.95916025 au
 
 
      Basis set specifications :
      Symmetry species         a  
      Basis functions          212
 
 
      Input file to MOLDEN was generated!
 
--- Stop Module: seward at Tue Jun 10 20:38:52 2025 /rc=_RC_ALL_IS_WELL_ ---
*** files: orca_geometry_optimisation_300_330_BP86_def2-SVP_def2J_scf_cas1_ras12i11_cas8.GssOrb
           orca_geometry_optimisation_300_330_BP86_def2-SVP_def2J_scf_cas1_ras12i11_cas8.guessorb.molden xmldump
    saved to directory /home/pcaah4/diamide_project
--- Module seward spent 1 minute 51 seconds ---

*** symbolic link created: INPORB -> orca_geometry_optimisation_300_330_BP86_def2-SVP_def2J_scf_cas1_ras12i11_cas8.GssOrb
--- Start Module: rasscf at Tue Jun 10 20:38:53 2025 ---
 
()()()()()()()()()()()()()()()()()()()()()()()()()()()()()()()()()()()()()()()()()()()()()()()()()()

                                              &RASSCF

                                   only a single process is used
                       available to each process: 2.0 GB of memory, 1 thread
                                            pid: 3126933
()()()()()()()()()()()()()()()()()()()()()()()()()()()()()()()()()()()()()()()()()()()()()()()()()()
 
 
      Header of the ONEINT file:
      --------------------------
      orca_geometry_optimisation_300_330_BP86_def2-SVP_def2J_scf_cas1_ras12i11
      Integrals generated by Gateway/Seward, Tue Jun 10 20:37:01 2025
 
 
      OrdInt status: non-squared
 
 
      Cartesian coordinates in Angstrom:
      -----------------------------------------------------
      No.  Label        X            Y            Z        
      -----------------------------------------------------
       1   C1        -0.03340500  -0.11235100   0.04304800
       2   C3         2.12388300   1.07780200  -0.21135200
       3   C4         1.79249200   1.99186900  -1.41239000
       4   C6         0.91207300   2.05191300  -3.71838800
       5   C19       -0.70411000  -1.46811100   0.24648500
       6   N2         1.34237100  -0.14546700  -0.09421500
       7   N5         1.32931100   1.34199200  -2.52551900
       8   O7        -0.66137400   0.94147100   0.00953100
       9   O8         2.03518800   3.19396300  -1.35974000
      10   H9        -1.55982500  -1.54887600  -0.45169200
      11   H10       -1.12273600  -1.50774100   1.27262300
      12   H11       -0.03213500  -2.33720600   0.10229900
      13   H12        1.83112000  -1.03449400   0.01763200
      14   H13        2.00052900   1.72472900   0.68265400
      15   H14        3.19583100   0.80222600  -0.27840200
      16   H15        1.08014000   0.35750300  -2.41460300
      17   H16       -0.19037500   2.01961300  -3.85747700
      18   H17        1.22044400   3.10765800  -3.59423700
      19   H18        1.39650100   1.63891700  -4.62851900
      -----------------------------------------------------
      Nuclear repulsion energy =  463.95916025
 
++    Wave function specifications:
      -----------------------------
 
      Number of closed shell electrons          58
      Number of electrons in active shells      12
      Max number of holes in RAS1 space          0
      Max nr of electrons in RAS3 space          0
      Number of inactive orbitals               29
      Number of active orbitals                  8
      Number of secondary orbitals             172
      Spin quantum number                      0.0
      State symmetry                             1
--
 
++    Orbital specifications:
      -----------------------
 
      Symmetry species                           1
                                                 a
      Frozen orbitals                            0
      Inactive orbitals                         29
      Active orbitals                            8
      RAS1 orbitals                              0
      RAS2 orbitals                              8
      RAS3 orbitals                              0
      Secondary orbitals                       172
      Deleted orbitals                           3
      Number of basis functions                212
--
 
++    CI expansion specifications:
      ----------------------------
 
      Number of CSFs                           336
      Number of determinants                   406
      Number of root(s) required                 7
      Root chosen for geometry opt.              7
      CI roots used                              1     2     3     4     5     6     7
      weights                                0.143 0.143 0.143 0.143 0.143 0.143 0.143
      highest root included in the CI            7
      max. size of the explicit Hamiltonian    200
--
 
++    Optimization specifications:
      ----------------------------
 
      RASSCF algorithm: Conventional
      Maximum number of macro iterations        64
      Maximum number of SX iterations           25
      Threshold for RASSCF energy            0.100E-07
      Threshold for max MO rotation          0.100E+00
      Threshold for max BLB element          0.100E-03
      Level shift parameter                  0.300E+00
      Make Quasi-Newton update
--
 
      The MO-coefficients are taken from the file:
      /home/pcaah4/diamide_project/cas/ras12i11/ras_orb/orca_geometry_optimisation_300_330_BP86_def2-SVP_def2J_scf_cas1_ras12i11.RasOrb                                                                                                                               
      Title: RASSCF average (pseudo-natural) orbitals                                      
 
      Total molecular charge    0.00
 
      ************************************************************************************************************************
      *                                                                                                                      *
      *                                            Wave function control section                                             *
      *                                                                                                                      *
      ************************************************************************************************************************
 
 
                                         RASSCF iterations: Energy and convergence statistics
                                         ----------------------------------------------------
 
      Iter CI   SX   CI       RASSCF       Energy    max ROT     max BLB   max BLB  Level Ln srch  Step   QN   Walltime
          iter iter root      energy       change     param      element    value   shift minimum  type update hh:mm:ss
 Nr of preliminary CI iterations:   4
        1   1   25    0  -453.68883994    0.00E+00  -0.54E-01   24  72 1  0.17E-01*  0.15   0.00    SX    NO    0:00:13
        2   6   21    0  -453.70272574   -0.14E-01*  0.32E-01   33  38 1 -0.70E-02*  0.13   0.00    SX    NO    0:00:07
        3   3   11    0  -453.70472171   -0.20E-02*  0.18E-01   24  72 1  0.36E-02*  0.14   0.00    SX    NO    0:00:06
        4   6   11    0  -453.70573677   -0.10E-02*  0.10E-01   35  39 1  0.19E-02*  0.14   0.00    SX    NO    0:00:06
        5   5   11    0  -453.70598386   -0.25E-03*  0.19E-01   35  39 1  0.13E-02*  0.15   1.37    QN   YES    0:00:06
        6   6   10    0  -453.70616590   -0.18E-03*  0.26E-02   20  99 1  0.14E-02*  0.15   0.84    QN   YES    0:00:07
        7   5   10    0  -453.70617005   -0.41E-05*  0.54E-03   20  99 1 -0.14E-02*  0.15   0.48    SX   YES    0:00:07
        8   7    9    0  -453.70618841   -0.18E-04*  0.58E-03   32  40 1  0.59E-03*  0.15   0.79    QN   YES    0:00:07
        9   3    9    0  -453.70619033   -0.19E-05*  0.38E-03   20  99 1 -0.25E-03*  0.15   0.84    QN   YES    0:00:06
       10   5    8    0  -453.70619110   -0.78E-06*  0.57E-03   32  40 1 -0.11E-03*  0.15   2.50    LS   YES    0:00:06
       11   4    9    0  -453.70619054    0.57E-06*  0.31E-03   32  40 1 -0.37E-03*  0.15   0.23    LS   YES    0:00:06
       12   3    8    0  -453.70619110   -0.56E-06* -0.25E-03   32  40 1 -0.23E-03*  0.15   1.42    QN   YES    0:00:06
       13   3    7    0  -453.70619138   -0.28E-06* -0.10E-03   32  40 1 -0.47E-04   0.15   1.24    QN   YES    0:00:06
       14   3    7    0  -453.70619141   -0.31E-07* -0.97E-04   32  40 1  0.19E-04   0.15   1.23    QN   YES    0:00:06
       15   3    6    0  -453.70619142   -0.14E-07* -0.57E-04   32  40 1  0.73E-05   0.15   1.17    QN   YES    0:00:06
       16   1    5    0  -453.70619143   -0.32E-08  -0.16E-04   32  40 1  0.52E-05   0.15   1.18    QN   YES    0:00:06
      Convergence after 16 iterations
       17   1    5    0  -453.70619143   -0.39E-09  -0.16E-04   32  40 1 -0.14E-05   0.15   1.18    QN   YES    0:00:06
 
      ************************************************************************************************************************
                                                      Wave function printout:
                       occupation of active orbitals, and spin coupling of open shells (u,d: Spin up or down)
      ************************************************************************************************************************
 
      Note: transformation to natural orbitals
      has been made, which may change the order of the CSFs.
 
      printout of CI-coefficients larger than  0.05 for root  1
      energy=    -453.957576
      conf/sym  11111111     Coeff  Weight
             1  22222200   0.95553 0.91304
             2  22222ud0  -0.11655 0.01358
             4  22222020  -0.09170 0.00841
            41  22u222d0  -0.09707 0.00942
            61  2u2222d0  -0.08510 0.00724
            62  2u222d20  -0.06869 0.00472
            84  u222220d   0.11117 0.01236
           105  22202202  -0.08544 0.00730
           135  u22d2202   0.05944 0.00353
           171  20222220  -0.09043 0.00818
           195  02222202  -0.07804 0.00609
 
      printout of CI-coefficients larger than  0.05 for root  2
      energy=    -453.744927
      conf/sym  11111111     Coeff  Weight
             3  2222u2d0  -0.94369 0.89055
             5  2222ud20  -0.12610 0.01590
             8  2222u20d  -0.06718 0.00451
            43  22u2d220   0.06055 0.00367
            44  22u2220d  -0.13036 0.01699
            63  2u22d220  -0.16099 0.02592
            86  u222d2ud  -0.05954 0.00355
            88  u222u2dd  -0.09794 0.00959
           107  2220u2d2   0.08616 0.00742
           137  u22du2d2  -0.05934 0.00352
           197  0222u2d2   0.07752 0.00601
 
      printout of CI-coefficients larger than  0.05 for root  3
      energy=    -453.744151
      conf/sym  11111111     Coeff  Weight
             3  2222u2d0   0.13487 0.01819
             7  22222u0d  -0.06792 0.00461
            24  222u220d  -0.06694 0.00448
            44  22u2220d  -0.93328 0.87101
            45  22u22dud   0.05836 0.00341
            47  22u22udd   0.08587 0.00737
            49  22u2202d   0.09184 0.00843
           115  22ud2202  -0.16722 0.02796
           142  220222ud   0.08396 0.00705
           165  u2d22202   0.12655 0.01602
           219  2uu222dd  -0.08228 0.00677
           220  2uu22d2d  -0.05578 0.00311
           293  20u2222d  -0.08690 0.00755
 
      printout of CI-coefficients larger than  0.05 for root  4
      energy=    -453.642770
      conf/sym  11111111     Coeff  Weight
             7  22222u0d  -0.22527 0.05075
             8  2222u20d  -0.48183 0.23216
            10  2222udud  -0.05870 0.00345
            12  2222uudd  -0.08202 0.00673
            24  222u220d   0.77238 0.59657
            25  222u2dud  -0.05656 0.00320
            27  222u2udd  -0.08991 0.00808
            29  222u202d  -0.07943 0.00631
            41  22u222d0   0.06935 0.00481
            48  22u2u2dd   0.05096 0.00260
            84  u222220d   0.08120 0.00659
           135  u22d2202  -0.18121 0.03284
           195  02222202   0.05686 0.00323
           207  2u2u22dd   0.07083 0.00502
           208  2u2u2d2d   0.05207 0.00271
           261  202u222d   0.07279 0.00530
 
      printout of CI-coefficients larger than  0.05 for root  5
      energy=    -453.626681
      conf/sym  11111111     Coeff  Weight
             1  22222200  -0.06811 0.00464
             2  22222ud0  -0.67688 0.45817
             4  22222020   0.12125 0.01470
             7  22222u0d  -0.59934 0.35921
             8  2222u20d   0.21371 0.04567
            12  2222uudd   0.05908 0.00349
            41  22u222d0   0.07669 0.00588
            45  22u22dud  -0.07641 0.00584
            61  2u2222d0   0.06252 0.00391
            62  2u222d20  -0.17917 0.03210
            65  2u222dud  -0.09412 0.00886
            67  2u222udd  -0.08389 0.00704
            87  u2222udd  -0.08765 0.00768
           106  22202ud2   0.06275 0.00394
           171  20222220  -0.06979 0.00487
           173  20222u2d  -0.06888 0.00474
           196  02222ud2   0.05732 0.00329
 
      printout of CI-coefficients larger than  0.05 for root  6
      energy=    -453.620949
      conf/sym  11111111     Coeff  Weight
             1  22222200   0.06419 0.00412
             2  22222ud0   0.58674 0.34426
             4  22222020  -0.08979 0.00806
             7  22222u0d  -0.69614 0.48462
            24  222u220d  -0.20345 0.04139
            41  22u222d0  -0.06586 0.00434
            44  22u2220d   0.06549 0.00429
            45  22u22dud  -0.11286 0.01274
            62  2u222d20   0.15640 0.02446
            65  2u222dud  -0.11709 0.01371
            67  2u222udd  -0.13513 0.01826
           106  22202ud2  -0.05249 0.00276
           171  20222220   0.05495 0.00302
           173  20222u2d  -0.09428 0.00889
 
      printout of CI-coefficients larger than  0.05 for root  7
      energy=    -453.606286
      conf/sym  11111111     Coeff  Weight
             2  22222ud0  -0.18420 0.03393
             3  2222u2d0   0.05942 0.00353
             8  2222u20d  -0.74372 0.55312
            10  2222udud  -0.15057 0.02267
            12  2222uudd  -0.22300 0.04973
            24  222u220d  -0.47870 0.22915
            44  22u2220d   0.06450 0.00416
            46  22u2d2ud  -0.13914 0.01936
            48  22u2u2dd   0.16828 0.02832
           135  u22d2202   0.10268 0.01054
           174  2022u22d  -0.05926 0.00351
 
      Natural orbitals and occupation numbers for root  1
      sym 1:   1.995975   1.962511   1.999562   1.995894   1.999786   1.953015   0.051537   0.041722
 
      Natural orbitals and occupation numbers for root  2
      sym 1:   1.961020   1.995603   1.980285   1.995754   1.020430   1.999796   0.984620   0.062493
 
      Natural orbitals and occupation numbers for root  3
      sym 1:   1.999793   1.995423   1.020075   1.996249   1.980059   1.951749   0.072459   0.984192
 
      Natural orbitals and occupation numbers for root  4
      sym 1:   1.981481   1.983414   1.992890   1.091852   1.963662   1.935664   0.084841   0.966197
 
      Natural orbitals and occupation numbers for root  5
      sym 1:   1.976180   1.944512   1.988664   1.995250   1.973355   1.043250   0.975834   0.102954
 
      Natural orbitals and occupation numbers for root  6
      sym 1:   1.990304   1.931120   1.982069   1.968218   1.998610   1.032606   0.122805   0.974268
 
      Natural orbitals and occupation numbers for root  7
      sym 1:   1.992420   1.978641   1.971174   1.931524   1.162690   1.899355   0.152243   0.911953
 
      ************************************************************************************************************************
      *                                                                                                                      *
      *                                                    Final results                                                     *
      *                                                                                                                      *
      ************************************************************************************************************************
 
 
++    Wave function specifications:
      -----------------------------
 
      Number of closed shell electrons          58
      Number of electrons in active shells      12
      Max number of holes in RAS1 space          0
      Max nr of electrons in RAS3 space          0
      Number of inactive orbitals               29
      Number of active orbitals                  8
      Number of secondary orbitals             172
      Spin quantum number                      0.0
      State symmetry                             1
--
 
++    Orbital specifications:
      -----------------------
 
      Symmetry species                           1
                                                 a
      Frozen orbitals                            0
      Inactive orbitals                         29
      Active orbitals                            8
      RAS1 orbitals                              0
      RAS2 orbitals                              8
      RAS3 orbitals                              0
      Secondary orbitals                       172
      Deleted orbitals                           3
      Number of basis functions                212
--
 
++    CI expansion specifications:
      ----------------------------
 
      Number of CSFs                           336
      Number of determinants                   406
      Number of root(s) required                 7
      CI roots used                              1     2     3     4     5     6     7
      weights                                0.143 0.143 0.143 0.143 0.143 0.143 0.143
      highest root included in the CI            7
      Root passed to geometry opt.               7
--
 
++    Final optimization conditions:
      ------------------------------
 
      Average CI energy                            -453.70619143
      RASSCF energy for state  7                   -453.60628584
      Super-CI energy                                -0.00000000
      RASSCF energy change                            0.00000000
      Max change in MO coefficients              -0.248E-04
      Max non-diagonal density matrix element    -0.158E-04
      Maximum BLB matrix element                 -0.139E-05
      (orbital pair  32,  40 in symmetry   1)
      Norm of electronic gradient            0.250E+00
--
 
 
      Final state energy(ies):
      ------------------------
 
::    RASSCF root number  1 Total energy:   -453.95757580
::    RASSCF root number  2 Total energy:   -453.74492737
::    RASSCF root number  3 Total energy:   -453.74415111
::    RASSCF root number  4 Total energy:   -453.64276955
::    RASSCF root number  5 Total energy:   -453.62668138
::    RASSCF root number  6 Total energy:   -453.62094895
::    RASSCF root number  7 Total energy:   -453.60628584
 
++    Molecular orbitals:
      -------------------
 
      Pseudonatural active orbitals and approximate occupation numbers
 
 
 
 
      Molecular orbitals for symmetry species 1: a  
 
 
      Orbital                 1         2         3         4         5         6         7         8         9        10
      Energy           -20.5969  -20.5161  -15.6328  -15.5946  -11.3378  -11.2938  -11.2888  -11.2768  -11.2268   -1.4223
      Occ. No.           2.0000    2.0000    2.0000    2.0000    2.0000    2.0000    2.0000    2.0000    2.0000    2.0000
 
     1 C1     1s        -0.0001    0.0003    0.0000    0.0002   -0.0001   -0.0007   -0.0000    0.9999   -0.0060    0.0003
     2 C1     2s        -0.0007    0.0005   -0.0001    0.0009   -0.0006   -0.0010   -0.0002    0.0023   -0.0002    0.0336
     3 C1     3s        -0.0004   -0.0008   -0.0002    0.0003   -0.0004   -0.0008   -0.0002    0.0000   -0.0005    0.0136
     4 C1     4s        -0.0001   -0.0004   -0.0001    0.0001   -0.0001   -0.0003   -0.0001    0.0014   -0.0002    0.0042
     5 C1     2px       -0.0001   -0.0010    0.0001    0.0017    0.0001   -0.0001   -0.0001    0.0018   -0.0003    0.0089
     6 C1     3px       -0.0001   -0.0006    0.0002    0.0014   -0.0000   -0.0004   -0.0000    0.0018    0.0003    0.0081
     7 C1     4px        0.0000    0.0001    0.0000   -0.0000   -0.0001   -0.0003    0.0000    0.0007    0.0003    0.0011
     8 C1     2py        0.0002    0.0032    0.0001    0.0001   -0.0003    0.0001   -0.0003    0.0006   -0.0006    0.0199
     9 C1     3py        0.0002    0.0023   -0.0000    0.0000   -0.0003   -0.0003   -0.0005    0.0008    0.0002    0.0191
    10 C1     4py       -0.0000   -0.0003   -0.0000   -0.0000   -0.0000   -0.0003   -0.0001    0.0007    0.0003    0.0050
    11 C1     2pz        0.0000   -0.0002    0.0000   -0.0002    0.0001   -0.0001    0.0001   -0.0004   -0.0000   -0.0026
    12 C1     3pz        0.0000   -0.0002    0.0000   -0.0002    0.0001   -0.0001    0.0002   -0.0007   -0.0002   -0.0024
    13 C1     4pz       -0.0000   -0.0000    0.0000   -0.0000    0.0000   -0.0000    0.0001   -0.0003   -0.0001   -0.0008
    14 C1     3d2-      -0.0000    0.0001   -0.0000    0.0001   -0.0000    0.0000    0.0000   -0.0003    0.0001   -0.0007
    15 C1     3d1-      -0.0000   -0.0000    0.0000   -0.0000    0.0000    0.0000    0.0000   -0.0000    0.0000    0.0000
    16 C1     3d0       -0.0000   -0.0000   -0.0000    0.0001   -0.0000   -0.0001    0.0000   -0.0003    0.0001   -0.0016
    17 C1     3d1+       0.0000   -0.0000    0.0000    0.0000   -0.0000   -0.0000    0.0000   -0.0000    0.0000   -0.0004
    18 C1     3d2+      -0.0000    0.0001   -0.0000   -0.0002    0.0000    0.0000   -0.0000   -0.0000   -0.0001    0.0004
    19 C3     1s         0.0001    0.0002   -0.0001    0.0004    0.0063    0.9995   -0.0002    0.0006    0.0000   -0.0121
    20 C3     2s         0.0009    0.0013   -0.0003    0.0022   -0.0003   -0.0013    0.0005   -0.0003    0.0003    0.0116
    21 C3     3s         0.0006    0.0008   -0.0002    0.0010   -0.0004   -0.0026    0.0003   -0.0003    0.0001   -0.0343
    22 C3     4s         0.0001    0.0001   -0.0001    0.0001   -0.0000    0.0007    0.0000   -0.0002   -0.0000   -0.0047
    23 C3     2px        0.0001   -0.0000   -0.0002   -0.0005   -0.0001    0.0002   -0.0002    0.0006    0.0003    0.0046
    24 C3     3px        0.0002    0.0002   -0.0001   -0.0000   -0.0001    0.0001   -0.0003    0.0009    0.0004    0.0113
    25 C3     4px        0.0001    0.0001    0.0001    0.0002   -0.0001   -0.0006   -0.0000    0.0002    0.0001   -0.0013
    26 C3     2py       -0.0013   -0.0003    0.0010   -0.0006    0.0006   -0.0006   -0.0001    0.0004   -0.0004    0.0236
    27 C3     3py       -0.0014   -0.0003    0.0011    0.0000    0.0002   -0.0004   -0.0004    0.0004   -0.0003    0.0042
    28 C3     4py       -0.0001    0.0000    0.0000    0.0002   -0.0001   -0.0005   -0.0002    0.0000    0.0000    0.0026
    29 C3     2pz       -0.0005    0.0001    0.0001   -0.0002    0.0001    0.0001   -0.0002   -0.0001   -0.0003   -0.0044
    30 C3     3pz       -0.0002    0.0001    0.0001   -0.0003    0.0005    0.0001   -0.0000   -0.0004   -0.0003    0.0105
    31 C3     4pz        0.0002    0.0000    0.0000   -0.0001    0.0001   -0.0003    0.0001   -0.0002   -0.0000   -0.0070
    32 C3     3d2-       0.0000    0.0000    0.0000   -0.0000   -0.0001   -0.0001   -0.0000    0.0000    0.0000   -0.0015
    33 C3     3d1-       0.0000    0.0000    0.0000   -0.0000   -0.0001    0.0001   -0.0001    0.0000   -0.0000   -0.0050
    34 C3     3d0        0.0001    0.0000    0.0000    0.0001   -0.0000   -0.0001    0.0000   -0.0000   -0.0000   -0.0019
    35 C3     3d1+       0.0001   -0.0000    0.0000    0.0000   -0.0001   -0.0000    0.0000   -0.0000    0.0000   -0.0025
    36 C3     3d2+       0.0000   -0.0000   -0.0001    0.0000    0.0000    0.0001   -0.0000    0.0000    0.0000   -0.0019
    37 C4     1s         0.0004    0.0000    0.0002   -0.0002    1.0000   -0.0063    0.0002   -0.0001    0.0000   -0.0399
    38 C4     2s         0.0012    0.0001    0.0007   -0.0011    0.0026    0.0008    0.0001   -0.0008    0.0000    0.3515
    39 C4     3s        -0.0004    0.0001    0.0002   -0.0008    0.0001    0.0002   -0.0000   -0.0007    0.0000   -0.0092
    40 C4     4s        -0.0004    0.0000    0.0000   -0.0002    0.0013    0.0000   -0.0001   -0.0002   -0.0000    0.0021
    41 C4     2px        0.0006   -0.0003   -0.0008   -0.0000   -0.0002    0.0003    0.0001   -0.0004   -0.0002    0.0247
    42 C4     3px        0.0005   -0.0004   -0.0007   -0.0001   -0.0006    0.0003    0.0003   -0.0007   -0.0003   -0.0095
    43 C4     4px       -0.0000   -0.0001   -0.0000   -0.0000   -0.0002    0.0001    0.0002   -0.0002   -0.0000    0.0054
    44 C4     2py        0.0033   -0.0002   -0.0006    0.0003    0.0002   -0.0006    0.0002   -0.0000    0.0001    0.1066
    45 C4     3py        0.0024   -0.0000   -0.0006    0.0003   -0.0000    0.0000   -0.0001    0.0002    0.0002   -0.0666
    46 C4     4py       -0.0003    0.0001   -0.0000    0.0000    0.0003    0.0003   -0.0002    0.0001    0.0000    0.0272
    47 C4     2pz        0.0002    0.0001   -0.0016   -0.0001   -0.0013    0.0012    0.0001   -0.0002    0.0001   -0.0210
    48 C4     3pz        0.0002    0.0002   -0.0012    0.0001   -0.0009    0.0009    0.0008   -0.0001    0.0001   -0.0029
    49 C4     4pz        0.0001    0.0001    0.0001    0.0001   -0.0006    0.0000    0.0005    0.0000    0.0000   -0.0040
    50 C4     3d2-      -0.0000   -0.0000   -0.0001    0.0001    0.0003   -0.0000    0.0000   -0.0000    0.0000    0.0171
    51 C4     3d1-      -0.0000    0.0000   -0.0002    0.0000    0.0002   -0.0001    0.0000   -0.0000   -0.0000    0.0060
    52 C4     3d0        0.0002    0.0000   -0.0000   -0.0000   -0.0001    0.0000    0.0001    0.0000    0.0000   -0.0174
    53 C4     3d1+       0.0000    0.0000   -0.0001    0.0001    0.0002   -0.0001    0.0001    0.0000   -0.0000    0.0055
    54 C4     3d2+       0.0001    0.0000    0.0001    0.0000   -0.0005    0.0001   -0.0000    0.0000    0.0000   -0.0374
    55 C6     1s         0.0001    0.0000    0.0004   -0.0001   -0.0002    0.0004    0.9996   -0.0000   -0.0001   -0.0080
    56 C6     2s         0.0004    0.0003    0.0018   -0.0004    0.0001    0.0006   -0.0004   -0.0001   -0.0004    0.0223
    57 C6     3s         0.0003    0.0002    0.0006   -0.0003   -0.0002    0.0005   -0.0020   -0.0002   -0.0003   -0.0113
    58 C6     4s         0.0001   -0.0000   -0.0000   -0.0001   -0.0002    0.0001    0.0008   -0.0001   -0.0001   -0.0002
    59 C6     2px        0.0003   -0.0002    0.0003   -0.0000   -0.0002    0.0001    0.0000   -0.0001   -0.0001   -0.0001
    60 C6     3px        0.0002   -0.0001    0.0001   -0.0000   -0.0002    0.0001   -0.0001   -0.0000   -0.0001   -0.0070
    61 C6     4px       -0.0000    0.0001   -0.0001    0.0000   -0.0001   -0.0000    0.0002    0.0000    0.0000    0.0016
    62 C6     2py        0.0001   -0.0002   -0.0004   -0.0001   -0.0001   -0.0001   -0.0002   -0.0002   -0.0000   -0.0022
    63 C6     3py        0.0000   -0.0001   -0.0001   -0.0001   -0.0002   -0.0001    0.0002   -0.0002   -0.0000    0.0040
    64 C6     4py       -0.0001    0.0000    0.0001    0.0000   -0.0001    0.0000   -0.0003    0.0000   -0.0000   -0.0009
    65 C6     2pz        0.0002    0.0000    0.0003   -0.0001   -0.0004    0.0003   -0.0000   -0.0002   -0.0001    0.0225
    66 C6     3pz        0.0002   -0.0000   -0.0002   -0.0001   -0.0006    0.0002   -0.0002   -0.0003   -0.0001    0.0007
    67 C6     4pz       -0.0000   -0.0000   -0.0002    0.0000   -0.0001   -0.0001    0.0007   -0.0000   -0.0000    0.0027
    68 C6     3d2-       0.0000   -0.0000    0.0000   -0.0000    0.0000   -0.0000    0.0000   -0.0000    0.0000   -0.0005
    69 C6     3d1-      -0.0000   -0.0000    0.0001   -0.0000    0.0000   -0.0000    0.0001    0.0000   -0.0000   -0.0029
    70 C6     3d0        0.0000    0.0000    0.0000    0.0000    0.0000    0.0000   -0.0000    0.0000   -0.0000    0.0024
    71 C6     3d1+       0.0000   -0.0000   -0.0001   -0.0000    0.0000    0.0000   -0.0000   -0.0000    0.0000    0.0023
    72 C6     3d2+      -0.0000    0.0000    0.0001   -0.0000    0.0000   -0.0000    0.0000    0.0000    0.0000   -0.0003
    73 C19    1s         0.0000    0.0002    0.0000   -0.0000    0.0000    0.0001   -0.0000    0.0059    0.9999    0.0001
    74 C19    2s         0.0001    0.0012    0.0003   -0.0000    0.0001    0.0006   -0.0002    0.0003    0.0019    0.0062
    75 C19    3s        -0.0000    0.0007    0.0002    0.0001    0.0000    0.0003   -0.0002    0.0001   -0.0005    0.0057
    76 C19    4s        -0.0000    0.0001    0.0000    0.0000   -0.0000   -0.0000   -0.0001    0.0001    0.0012    0.0028
    77 C19    2px        0.0001    0.0008    0.0002   -0.0003    0.0001    0.0002   -0.0001   -0.0002   -0.0002   -0.0008
    78 C19    3px        0.0001    0.0005    0.0002   -0.0002    0.0001    0.0002   -0.0001   -0.0004   -0.0001   -0.0009
    79 C19    4px       -0.0000   -0.0002   -0.0000   -0.0000   -0.0000    0.0000   -0.0000   -0.0001    0.0002    0.0005
    80 C19    2py       -0.0000   -0.0001    0.0001    0.0004    0.0000    0.0002   -0.0001    0.0004   -0.0004    0.0052
    81 C19    3py       -0.0001   -0.0003    0.0001    0.0003    0.0000    0.0001   -0.0000    0.0000    0.0000    0.0037
    82 C19    4py       -0.0000   -0.0001   -0.0000   -0.0000   -0.0000   -0.0001    0.0000   -0.0000    0.0003   -0.0001
    83 C19    2pz        0.0000   -0.0001   -0.0001    0.0001   -0.0000    0.0000    0.0000    0.0002    0.0001   -0.0012
    84 C19    3pz        0.0000   -0.0000   -0.0002    0.0002   -0.0000    0.0001   -0.0000    0.0003    0.0001   -0.0007
    85 C19    4pz       -0.0000    0.0001   -0.0000    0.0000   -0.0000    0.0000   -0.0000    0.0000   -0.0001    0.0002
    86 C19    3d2-       0.0000    0.0001    0.0000   -0.0000    0.0000    0.0001    0.0000   -0.0000   -0.0001    0.0003
    87 C19    3d1-      -0.0000   -0.0000   -0.0000   -0.0000   -0.0000   -0.0000    0.0000    0.0000    0.0000   -0.0000
    88 C19    3d0        0.0000   -0.0001   -0.0000   -0.0001   -0.0000   -0.0000    0.0000    0.0001    0.0001    0.0002
    89 C19    3d1+      -0.0000   -0.0000   -0.0000   -0.0000   -0.0000   -0.0000   -0.0000    0.0000    0.0000    0.0002
    90 C19    3d2+      -0.0000    0.0001   -0.0000   -0.0000   -0.0000   -0.0000   -0.0000   -0.0001    0.0001   -0.0001
    91 N2     1s        -0.0000    0.0000   -0.0001    0.9998    0.0000    0.0001    0.0000   -0.0003    0.0000   -0.0010
    92 N2     2s        -0.0003    0.0000    0.0000   -0.0001    0.0002    0.0016    0.0001   -0.0007    0.0003    0.0295
    93 N2     3s        -0.0001    0.0001    0.0001   -0.0015    0.0002    0.0009    0.0001   -0.0007    0.0003   -0.0030
    94 N2     4s         0.0000    0.0000    0.0000    0.0004    0.0000    0.0003    0.0000   -0.0001    0.0001   -0.0017
    95 N2     2px       -0.0006   -0.0001    0.0003    0.0002    0.0002    0.0004   -0.0001   -0.0002   -0.0005    0.0090
    96 N2     3px       -0.0008   -0.0003    0.0005    0.0000    0.0002    0.0000   -0.0002   -0.0001   -0.0004    0.0104
    97 N2     4px       -0.0001   -0.0000    0.0001   -0.0000   -0.0000   -0.0001   -0.0000   -0.0003    0.0001   -0.0002
    98 N2     2py        0.0002   -0.0016    0.0003   -0.0006    0.0004    0.0008    0.0000    0.0007   -0.0001   -0.0024
    99 N2     3py        0.0002   -0.0019    0.0004    0.0002    0.0004    0.0007    0.0001    0.0008    0.0000   -0.0155
   100 N2     4py        0.0000    0.0000    0.0000    0.0006   -0.0000    0.0002    0.0000    0.0000    0.0001   -0.0019
   101 N2     2pz       -0.0001    0.0002    0.0001    0.0000   -0.0000   -0.0001   -0.0002    0.0001    0.0000   -0.0021
   102 N2     3pz       -0.0002    0.0003    0.0001   -0.0002   -0.0001   -0.0001   -0.0003   -0.0001   -0.0000    0.0011
   103 N2     4pz       -0.0000    0.0000    0.0000   -0.0000   -0.0000    0.0000   -0.0001   -0.0000   -0.0000    0.0007
   104 N2     3d2-       0.0000    0.0001    0.0000   -0.0002    0.0000   -0.0000    0.0000   -0.0001   -0.0000    0.0001
   105 N2     3d1-       0.0000   -0.0000    0.0000    0.0000   -0.0000   -0.0000   -0.0000    0.0000   -0.0000   -0.0006
   106 N2     3d0        0.0000   -0.0000    0.0000    0.0001   -0.0000    0.0001   -0.0000    0.0001   -0.0001   -0.0005
   107 N2     3d1+       0.0000   -0.0000    0.0000    0.0000   -0.0000    0.0000   -0.0000    0.0000   -0.0000   -0.0009
   108 N2     3d2+       0.0000   -0.0000    0.0000   -0.0000   -0.0000   -0.0000   -0.0000    0.0000    0.0000   -0.0002
   109 N5     1s         0.0002   -0.0001    0.9999    0.0001   -0.0003    0.0000    0.0001   -0.0000    0.0000   -0.0180
   110 N5     2s         0.0011   -0.0006    0.0002   -0.0001   -0.0003    0.0000    0.0018   -0.0001    0.0003    0.1127
   111 N5     3s         0.0008   -0.0005   -0.0012   -0.0000   -0.0004    0.0001    0.0010   -0.0001    0.0002   -0.0469
   112 N5     4s         0.0002   -0.0001    0.0005    0.0000    0.0000    0.0000    0.0004   -0.0000    0.0000   -0.0110
   113 N5     2px       -0.0001    0.0003   -0.0002    0.0000    0.0002    0.0001   -0.0005    0.0002    0.0000    0.0160
   114 N5     3px       -0.0001    0.0005   -0.0001    0.0000   -0.0001    0.0001   -0.0004    0.0004    0.0001    0.0005
   115 N5     4px        0.0000    0.0001   -0.0001   -0.0000    0.0000   -0.0000   -0.0000    0.0001    0.0000    0.0024
   116 N5     2py       -0.0014    0.0002   -0.0012    0.0004    0.0001   -0.0001    0.0003    0.0001    0.0000    0.0457
   117 N5     3py       -0.0016    0.0002   -0.0009    0.0005   -0.0001   -0.0001    0.0006    0.0003    0.0002    0.0049
   118 N5     4py        0.0000   -0.0000    0.0004    0.0001   -0.0000    0.0001    0.0003    0.0001    0.0001   -0.0027
   119 N5     2pz        0.0006   -0.0001    0.0005   -0.0003    0.0000    0.0003   -0.0010   -0.0002   -0.0003    0.0007
   120 N5     3pz        0.0006   -0.0001    0.0006   -0.0003    0.0003    0.0003   -0.0008   -0.0002   -0.0005   -0.0289
   121 N5     4pz       -0.0001    0.0000    0.0002   -0.0000    0.0004   -0.0001   -0.0001   -0.0000   -0.0001    0.0059
   122 N5     3d2-      -0.0000   -0.0000    0.0001    0.0000   -0.0000    0.0000    0.0000    0.0000    0.0000    0.0020
   123 N5     3d1-      -0.0001   -0.0000    0.0000    0.0000    0.0001   -0.0000   -0.0000    0.0000   -0.0000    0.0052
   124 N5     3d0        0.0001   -0.0000   -0.0001   -0.0000   -0.0001   -0.0000   -0.0001   -0.0000   -0.0000   -0.0001
   125 N5     3d1+       0.0000   -0.0000   -0.0001    0.0000   -0.0001    0.0000   -0.0001   -0.0000   -0.0000    0.0025
   126 N5     3d2+      -0.0000    0.0000   -0.0001    0.0000    0.0001   -0.0000    0.0000   -0.0000   -0.0000   -0.0015
   127 O7     1s        -0.0000    0.9997   -0.0000    0.0000    0.0000   -0.0000    0.0000   -0.0002    0.0001   -0.0015
   128 O7     2s        -0.0000   -0.0014   -0.0001    0.0000    0.0002   -0.0001    0.0001    0.0006    0.0003    0.0208
   129 O7     3s        -0.0000   -0.0014   -0.0001   -0.0000    0.0002   -0.0000    0.0000    0.0000    0.0003   -0.0032
   130 O7     4s        -0.0000    0.0001   -0.0000   -0.0001    0.0001    0.0000    0.0000   -0.0000    0.0001   -0.0007
   131 O7     2px       -0.0001    0.0002   -0.0001   -0.0004    0.0000   -0.0000   -0.0001    0.0003    0.0001    0.0072
   132 O7     3px       -0.0001   -0.0003   -0.0002   -0.0005   -0.0000    0.0000   -0.0001   -0.0002    0.0001    0.0047
   133 O7     4px       -0.0000    0.0008   -0.0000   -0.0001   -0.0000   -0.0000   -0.0001   -0.0000   -0.0000    0.0021
   134 O7     2py       -0.0000   -0.0003   -0.0000   -0.0002   -0.0001    0.0000    0.0000   -0.0008   -0.0002   -0.0024
   135 O7     3py       -0.0001    0.0004   -0.0001   -0.0002   -0.0002   -0.0000    0.0000   -0.0006   -0.0002    0.0045
   136 O7     4py       -0.0001   -0.0012   -0.0000    0.0000   -0.0001   -0.0000   -0.0000   -0.0003    0.0000    0.0014
   137 O7     2pz       -0.0000   -0.0000    0.0001    0.0001    0.0001    0.0000    0.0000    0.0002    0.0000   -0.0031
   138 O7     3pz       -0.0000   -0.0001    0.0002    0.0001    0.0001    0.0000    0.0001    0.0002    0.0000   -0.0040
   139 O7     4pz       -0.0000   -0.0000    0.0000    0.0000    0.0001    0.0000    0.0000    0.0000    0.0000   -0.0014
   140 O7     3d2-       0.0000    0.0001    0.0000    0.0000   -0.0000    0.0000    0.0000   -0.0002   -0.0000   -0.0008
   141 O7     3d1-      -0.0000   -0.0000    0.0000   -0.0000    0.0000    0.0000    0.0000   -0.0000   -0.0000    0.0000
   142 O7     3d0        0.0000   -0.0000    0.0000   -0.0000   -0.0000   -0.0000    0.0000   -0.0001   -0.0000   -0.0006
   143 O7     3d1+      -0.0000   -0.0000    0.0000   -0.0000   -0.0000   -0.0000    0.0000    0.0000   -0.0000   -0.0002
   144 O7     3d2+      -0.0000    0.0000   -0.0000   -0.0001    0.0000    0.0000    0.0000   -0.0001   -0.0000   -0.0002
   145 O8     1s         0.9997    0.0000    0.0000   -0.0000   -0.0003    0.0001   -0.0001    0.0000   -0.0000   -0.0241
   146 O8     2s        -0.0015    0.0002    0.0002   -0.0000    0.0003    0.0004   -0.0003    0.0002   -0.0000    0.6894
   147 O8     3s        -0.0014    0.0001    0.0001   -0.0000   -0.0001    0.0002   -0.0002    0.0001   -0.0000   -0.0343
   148 O8     4s         0.0001    0.0000    0.0000   -0.0000    0.0000    0.0001   -0.0001    0.0000   -0.0000   -0.0137
   149 O8     2px       -0.0001    0.0000    0.0001   -0.0000    0.0002   -0.0000    0.0000    0.0001    0.0000   -0.0251
   150 O8     3px        0.0000    0.0001    0.0002    0.0000    0.0001   -0.0000    0.0000    0.0001    0.0001    0.0072
   151 O8     4px       -0.0003    0.0000    0.0001    0.0000   -0.0000    0.0000   -0.0000    0.0001    0.0000   -0.0006
   152 O8     2py       -0.0003   -0.0001    0.0000   -0.0000   -0.0007   -0.0002    0.0001   -0.0001   -0.0000   -0.1462
   153 O8     3py        0.0005   -0.0001    0.0001   -0.0001   -0.0002   -0.0002    0.0000   -0.0001   -0.0000    0.0442
   154 O8     4py       -0.0014   -0.0000    0.0001   -0.0000   -0.0003    0.0000   -0.0000    0.0000   -0.0000    0.0006
   155 O8     2pz       -0.0000   -0.0000    0.0003    0.0000   -0.0002   -0.0001    0.0001    0.0000   -0.0000   -0.0154
   156 O8     3pz        0.0000   -0.0000    0.0003    0.0000    0.0001   -0.0001    0.0000    0.0000   -0.0000    0.0047
   157 O8     4pz       -0.0001   -0.0000    0.0000    0.0000    0.0001   -0.0000   -0.0000   -0.0000   -0.0000    0.0019
   158 O8     3d2-      -0.0000    0.0000   -0.0000    0.0000    0.0001    0.0000   -0.0000    0.0000   -0.0000    0.0071
   159 O8     3d1-      -0.0000    0.0000   -0.0001   -0.0000    0.0001   -0.0000   -0.0000   -0.0000    0.0000    0.0030
   160 O8     3d0        0.0001   -0.0000    0.0000   -0.0000   -0.0001   -0.0000    0.0000   -0.0000    0.0000   -0.0110
   161 O8     3d1+       0.0000   -0.0000    0.0000   -0.0000   -0.0000    0.0000    0.0000   -0.0000    0.0000    0.0005
   162 O8     3d2+       0.0000   -0.0000   -0.0000    0.0000   -0.0001   -0.0000   -0.0000   -0.0000   -0.0000   -0.0175
   163 H9     1s         0.0002    0.0001    0.0001    0.0002    0.0000   -0.0001    0.0000    0.0003    0.0004    0.0014
   164 H9     2s         0.0001    0.0001    0.0001    0.0001    0.0000   -0.0001    0.0000    0.0002   -0.0002    0.0011
   165 H9     2px        0.0000   -0.0000    0.0000    0.0001    0.0000   -0.0000    0.0000    0.0001   -0.0000    0.0003
   166 H9     2py        0.0000   -0.0001    0.0000   -0.0000    0.0000   -0.0000    0.0000    0.0000    0.0000   -0.0001
   167 H9     2pz        0.0000    0.0000    0.0000   -0.0000    0.0000   -0.0000   -0.0000    0.0000   -0.0001    0.0001
   168 H10    1s        -0.0000    0.0003    0.0001    0.0000   -0.0000   -0.0002   -0.0001    0.0000    0.0003    0.0044
   169 H10    2s         0.0000    0.0002    0.0001   -0.0000   -0.0000   -0.0001   -0.0001    0.0001   -0.0003    0.0030
   170 H10    2px       -0.0000   -0.0000   -0.0000    0.0000   -0.0000   -0.0000   -0.0000    0.0000   -0.0000    0.0004
   171 H10    2py        0.0000   -0.0000   -0.0000   -0.0000   -0.0000   -0.0000   -0.0000    0.0001    0.0000    0.0000
   172 H10    2pz        0.0000   -0.0000   -0.0000   -0.0000    0.0000    0.0000    0.0000   -0.0001    0.0001   -0.0005
   173 H11    1s        -0.0001   -0.0004   -0.0001    0.0004   -0.0001    0.0000   -0.0001    0.0004    0.0002    0.0062
   174 H11    2s        -0.0001   -0.0002   -0.0000    0.0003   -0.0001    0.0000   -0.0000    0.0002   -0.0003    0.0038
   175 H11    2px        0.0000   -0.0000    0.0000   -0.0000    0.0000    0.0000    0.0000   -0.0000    0.0001   -0.0007
   176 H11    2py       -0.0000   -0.0000   -0.0000    0.0000   -0.0000    0.0000   -0.0000    0.0001   -0.0001    0.0006
   177 H11    2pz       -0.0000   -0.0000   -0.0000    0.0000   -0.0000   -0.0000    0.0000   -0.0000   -0.0000    0.0002
   178 H12    1s         0.0003   -0.0010    0.0005   -0.0004    0.0003   -0.0002   -0.0002    0.0007   -0.0002   -0.0054
   179 H12    2s         0.0002   -0.0005    0.0003   -0.0003    0.0002   -0.0000   -0.0001    0.0004   -0.0001   -0.0066
   180 H12    2px       -0.0000    0.0000   -0.0000    0.0003   -0.0000    0.0000    0.0000   -0.0001    0.0000   -0.0001
   181 H12    2py        0.0000   -0.0000    0.0000   -0.0004    0.0000   -0.0000   -0.0000    0.0001   -0.0000    0.0006
   182 H12    2pz        0.0000    0.0000   -0.0000    0.0001   -0.0000    0.0000    0.0000    0.0000    0.0000   -0.0002
   183 H13    1s         0.0005   -0.0002   -0.0004   -0.0007   -0.0002    0.0011   -0.0002   -0.0006    0.0003    0.0160
   184 H13    2s         0.0003   -0.0001   -0.0002   -0.0003   -0.0002    0.0002   -0.0001   -0.0004    0.0002    0.0010
   185 H13    2px        0.0000    0.0001   -0.0000    0.0001    0.0000   -0.0000    0.0000    0.0000   -0.0000   -0.0003
   186 H13    2py       -0.0000    0.0000    0.0000    0.0001   -0.0000   -0.0001    0.0000    0.0001   -0.0000    0.0000
   187 H13    2pz       -0.0000    0.0000    0.0000   -0.0000   -0.0001   -0.0001    0.0000    0.0000   -0.0000   -0.0014
   188 H14    1s        -0.0005   -0.0001    0.0006   -0.0004    0.0003    0.0006   -0.0001   -0.0003   -0.0004    0.0121
   189 H14    2s        -0.0003   -0.0001    0.0003   -0.0002    0.0002   -0.0001   -0.0000   -0.0002   -0.0002    0.0013
   190 H14    2px        0.0001   -0.0000   -0.0001   -0.0000   -0.0001    0.0000    0.0000   -0.0000    0.0000   -0.0011
   191 H14    2py       -0.0000    0.0000   -0.0000    0.0000    0.0000   -0.0000    0.0000   -0.0000    0.0000    0.0006
   192 H14    2pz        0.0000   -0.0000    0.0000    0.0000   -0.0001   -0.0000    0.0000   -0.0000    0.0000   -0.0014
   193 H15    1s        -0.0014    0.0006   -0.0012    0.0003   -0.0001   -0.0003   -0.0005   -0.0004   -0.0003    0.0453
   194 H15    2s        -0.0008    0.0003   -0.0008    0.0002   -0.0002   -0.0002   -0.0002   -0.0002   -0.0002    0.0026
   195 H15    2px       -0.0000    0.0000   -0.0002    0.0000    0.0001    0.0000   -0.0000   -0.0000    0.0000    0.0020
   196 H15    2py       -0.0001    0.0000   -0.0005    0.0001    0.0001   -0.0000   -0.0000   -0.0000   -0.0000    0.0063
   197 H15    2pz        0.0000   -0.0000    0.0001    0.0001    0.0001    0.0000   -0.0000    0.0000   -0.0000    0.0002
   198 H16    1s         0.0005   -0.0002   -0.0004    0.0000   -0.0003    0.0000    0.0007   -0.0001   -0.0001    0.0036
   199 H16    2s         0.0003   -0.0001   -0.0001    0.0000   -0.0003    0.0000   -0.0000   -0.0000   -0.0000   -0.0027
   200 H16    2px        0.0000   -0.0000   -0.0000    0.0000   -0.0001    0.0000    0.0000   -0.0000   -0.0000    0.0006
   201 H16    2py       -0.0000   -0.0000    0.0000    0.0000    0.0000    0.0000   -0.0000    0.0000   -0.0000   -0.0005
   202 H16    2pz        0.0000    0.0000   -0.0000    0.0000   -0.0000   -0.0000    0.0001    0.0000    0.0000    0.0003
   203 H17    1s        -0.0002    0.0001   -0.0002    0.0001   -0.0001    0.0000    0.0011    0.0002    0.0001    0.0110
   204 H17    2s        -0.0000    0.0001   -0.0000    0.0000    0.0000    0.0000    0.0002    0.0001    0.0001   -0.0033
   205 H17    2px       -0.0000    0.0000   -0.0000   -0.0000    0.0000   -0.0000   -0.0000   -0.0000    0.0000    0.0006
   206 H17    2py        0.0000   -0.0000   -0.0000   -0.0000    0.0000   -0.0000   -0.0001   -0.0000   -0.0000   -0.0008
   207 H17    2pz       -0.0000   -0.0000    0.0000   -0.0000    0.0000    0.0000    0.0000    0.0000   -0.0000    0.0007
   208 H18    1s         0.0002   -0.0001   -0.0006   -0.0001   -0.0004    0.0001    0.0006   -0.0003   -0.0000    0.0118
   209 H18    2s         0.0001   -0.0001   -0.0003   -0.0000   -0.0003    0.0001   -0.0001   -0.0002   -0.0000    0.0032
   210 H18    2px       -0.0000    0.0000   -0.0000    0.0000    0.0000   -0.0000    0.0000    0.0000   -0.0000   -0.0004
   211 H18    2py        0.0000    0.0000   -0.0000    0.0000   -0.0000    0.0000   -0.0000   -0.0000    0.0000    0.0005
   212 H18    2pz        0.0000   -0.0000   -0.0001   -0.0000   -0.0001    0.0000    0.0000   -0.0000    0.0000    0.0013
 
 
      Orbital                11        12        13        14        15        16        17        18        19        20
      Energy            -1.3585   -1.2582   -1.2174   -1.0137   -0.9683   -0.9266   -0.8141   -0.7814   -0.7119   -0.6912
      Occ. No.           2.0000    2.0000    2.0000    2.0000    2.0000    2.0000    2.0000    2.0000    2.0000    2.0000
 
     1 C1     1s        -0.0395    0.0031    0.0050   -0.0134   -0.0078    0.0033    0.0063   -0.0131   -0.0024   -0.0040
     2 C1     2s         0.3640    0.0107   -0.0836    0.2039    0.1626    0.0036   -0.1223    0.3606    0.0376    0.1018
     3 C1     3s        -0.0050    0.0149    0.0011   -0.0153   -0.0062    0.0086    0.0038    0.0029   -0.0093   -0.0042
     4 C1     4s         0.0018    0.0045    0.0009   -0.0056   -0.0021    0.0032    0.0022   -0.0021   -0.0023   -0.0025
     5 C1     2px       -0.0404    0.0397   -0.1211    0.0283   -0.0527   -0.1113   -0.0740    0.1521    0.0026   -0.0179
     6 C1     3px        0.0078   -0.0056    0.0576   -0.0474   -0.0138    0.0157    0.0165   -0.0326   -0.0126    0.0155
     7 C1     4px       -0.0143    0.0080   -0.0217   -0.0048   -0.0113   -0.0156   -0.0056    0.0108   -0.0021    0.0007
     8 C1     2py        0.0959   -0.0008    0.0481   -0.1176   -0.1156   -0.0189    0.0023    0.0068    0.0658   -0.0391
     9 C1     3py       -0.0685    0.0364   -0.0465   -0.0060    0.0209    0.0669   -0.0022   -0.0141   -0.0246    0.0147
    10 C1     4py        0.0219    0.0011    0.0080   -0.0200   -0.0198    0.0019   -0.0008    0.0010    0.0024    0.0007
    11 C1     2pz        0.0032   -0.0066    0.0008    0.0134    0.0236    0.0196    0.0076   -0.0165    0.0063    0.0156
    12 C1     3pz        0.0113   -0.0064   -0.0087    0.0043    0.0111    0.0022   -0.0004    0.0072    0.0033   -0.0030
    13 C1     4pz        0.0012   -0.0028   -0.0007    0.0027    0.0060    0.0039   -0.0001   -0.0004    0.0033    0.0028
    14 C1     3d2-      -0.0300    0.0055   -0.0129    0.0036    0.0094    0.0102   -0.0001    0.0109    0.0126   -0.0055
    15 C1     3d1-      -0.0024    0.0000   -0.0007   -0.0010   -0.0025   -0.0021    0.0004   -0.0020   -0.0017   -0.0004
    16 C1     3d0       -0.0272    0.0008    0.0030   -0.0087   -0.0045    0.0024    0.0053   -0.0118   -0.0017   -0.0034
    17 C1     3d1+      -0.0008   -0.0017    0.0037   -0.0024   -0.0017    0.0009    0.0018   -0.0062    0.0008    0.0034
    18 C1     3d2+      -0.0112    0.0075   -0.0272    0.0078   -0.0062   -0.0142   -0.0070    0.0131    0.0027   -0.0033
    19 C3     1s        -0.0108   -0.0104    0.0316    0.0372    0.0054   -0.0265   -0.0069   -0.0018   -0.0051   -0.0065
    20 C3     2s         0.0306    0.0728   -0.1779   -0.3205   -0.0426    0.3723    0.0935    0.0647    0.0914    0.0481
    21 C3     3s        -0.0210   -0.0174    0.0590    0.0662    0.0107   -0.0275   -0.0091   -0.0051   -0.0056   -0.0222
    22 C3     4s        -0.0032   -0.0026    0.0140    0.0173    0.0035   -0.0084   -0.0029   -0.0026   -0.0018   -0.0060
    23 C3     2px       -0.0339   -0.0146    0.0491   -0.0236   -0.0075    0.0465    0.0378   -0.0653   -0.0511    0.1449
    24 C3     3px       -0.0119    0.0164   -0.0187   -0.0371   -0.0254    0.0115   -0.0012    0.0065    0.0136   -0.0158
    25 C3     4px       -0.0030    0.0049   -0.0034   -0.0142   -0.0069    0.0150    0.0043   -0.0022   -0.0017    0.0044
    26 C3     2py       -0.0157   -0.0298    0.1009   -0.0129    0.0229    0.0517   -0.0832    0.1895   -0.1702    0.0977
    27 C3     3py        0.0087    0.0036    0.0108    0.0270   -0.0481   -0.0131   -0.0058    0.0072    0.0332   -0.0253
    28 C3     4py       -0.0034    0.0052    0.0105   -0.0047   -0.0026    0.0080   -0.0077    0.0123    0.0021    0.0011
    29 C3     2pz        0.0101   -0.0264   -0.0163    0.0551   -0.0386   -0.0012    0.0718   -0.0185    0.1864    0.1789
    30 C3     3pz        0.0136    0.0010   -0.0174   -0.0105    0.0171    0.0148   -0.0075    0.0052   -0.0271   -0.0133
    31 C3     4pz        0.0035    0.0015   -0.0093   -0.0066   -0.0028    0.0139    0.0069    0.0031    0.0056    0.0061
    32 C3     3d2-       0.0055    0.0048   -0.0179    0.0035   -0.0072   -0.0068    0.0026   -0.0013    0.0189   -0.0139
    33 C3     3d1-      -0.0011   -0.0018    0.0045    0.0081   -0.0039   -0.0028    0.0074   -0.0018    0.0155    0.0099
    34 C3     3d0       -0.0018    0.0015    0.0093   -0.0040    0.0088    0.0021   -0.0094    0.0116   -0.0124   -0.0005
    35 C3     3d1+      -0.0002    0.0026    0.0009   -0.0041    0.0035    0.0005   -0.0033    0.0026   -0.0066   -0.0093
    36 C3     3d2+      -0.0013    0.0007    0.0103    0.0016    0.0042   -0.0004   -0.0041    0.0094    0.0059    0.0027
    37 C4     1s         0.0028   -0.0069   -0.0043    0.0136   -0.0099    0.0006    0.0175    0.0003    0.0060    0.0000
    38 C4     2s         0.0110    0.1446   -0.0181   -0.2348    0.1760    0.0591   -0.3615   -0.0166   -0.2356   -0.0193
    39 C4     3s         0.0111    0.0057   -0.0137    0.0196   -0.0051    0.0039    0.0222   -0.0074    0.0077   -0.0088
    40 C4     4s         0.0031    0.0015   -0.0035    0.0073   -0.0019    0.0003    0.0070   -0.0031    0.0037   -0.0002
    41 C4     2px        0.0052   -0.0543   -0.0255   -0.0155    0.0048    0.0435    0.0199    0.0409   -0.0873    0.0551
    42 C4     3px        0.0134    0.0061   -0.0059   -0.0056    0.0400   -0.0201   -0.0120   -0.0143    0.0295   -0.0058
    43 C4     4px        0.0025   -0.0107   -0.0054   -0.0029    0.0039    0.0031    0.0029    0.0010   -0.0043    0.0066
    44 C4     2py       -0.0204   -0.0995    0.0038    0.1129   -0.0851    0.0007    0.0223   -0.0221   -0.0390    0.2259
    45 C4     3py        0.0015    0.0721    0.0032   -0.0401   -0.0060    0.0410   -0.0045    0.0095    0.0129   -0.0731
    46 C4     4py       -0.0064   -0.0172    0.0006    0.0098   -0.0125    0.0043   -0.0003   -0.0012   -0.0085    0.0138
    47 C4     2pz        0.0002   -0.1136   -0.0713   -0.0719   -0.0031    0.0942    0.1208    0.1215   -0.1853    0.0476
    48 C4     3pz       -0.0070   -0.0191   -0.0068   -0.0156    0.0779   -0.0923   -0.0125   -0.0756    0.0656    0.0175
    49 C4     4pz       -0.0017   -0.0273   -0.0106   -0.0107    0.0078   -0.0017    0.0103    0.0013   -0.0071    0.0097
    50 C4     3d2-      -0.0008    0.0011    0.0025    0.0015    0.0047   -0.0080   -0.0020   -0.0008   -0.0018   -0.0004
    51 C4     3d1-      -0.0007    0.0137    0.0085    0.0039    0.0111   -0.0192   -0.0008   -0.0082    0.0066   -0.0056
    52 C4     3d0        0.0019    0.0215    0.0039   -0.0099    0.0051    0.0040   -0.0175   -0.0028    0.0187   -0.0008
    53 C4     3d1+      -0.0005    0.0128    0.0044   -0.0079    0.0073    0.0009   -0.0100   -0.0026    0.0014    0.0006
    54 C4     3d2+       0.0020    0.0094    0.0038    0.0033   -0.0036    0.0017    0.0029   -0.0012    0.0141    0.0001
    55 C6     1s         0.0023   -0.0296   -0.0163   -0.0306    0.0388   -0.0257    0.0075   -0.0018    0.0070    0.0065
    56 C6     2s         0.0212    0.1636    0.0368    0.2184   -0.3149    0.2818   -0.1035    0.0207   -0.0502   -0.0829
    57 C6     3s         0.0143   -0.0420   -0.0414   -0.0512    0.0674   -0.0329    0.0165   -0.0049    0.0202    0.0198
    58 C6     4s         0.0041   -0.0059   -0.0091   -0.0102    0.0150   -0.0067    0.0053   -0.0015    0.0049    0.0067
    59 C6     2px        0.0079    0.0269    0.0088    0.0176    0.0014   -0.0038   -0.0175   -0.0299    0.0963    0.0994
    60 C6     3px        0.0071   -0.0078   -0.0055    0.0027    0.0052    0.0033   -0.0030    0.0028   -0.0079   -0.0147
    61 C6     4px       -0.0005   -0.0001   -0.0008   -0.0040    0.0045   -0.0046    0.0006   -0.0025    0.0035    0.0053
    62 C6     2py       -0.0019   -0.0480   -0.0116   -0.0199    0.0095    0.0108   -0.1438   -0.0469    0.0479   -0.1576
    63 C6     3py       -0.0004    0.0069    0.0076    0.0022    0.0027   -0.0075    0.0046    0.0032   -0.0005    0.0245
    64 C6     4py        0.0000   -0.0023   -0.0009    0.0049   -0.0069    0.0059   -0.0115   -0.0038    0.0022   -0.0056
    65 C6     2pz        0.0050    0.0905    0.0246    0.0171    0.0139   -0.0336    0.0319   -0.0425    0.1767    0.2405
    66 C6     3pz        0.0040   -0.0128   -0.0154   -0.0173    0.0224   -0.0018    0.0039    0.0039   -0.0271   -0.0365
    67 C6     4pz        0.0009   -0.0008   -0.0019   -0.0092    0.0167   -0.0125    0.0049   -0.0033    0.0083    0.0129
    68 C6     3d2-      -0.0004   -0.0053   -0.0016   -0.0018    0.0004    0.0011   -0.0068   -0.0017    0.0001   -0.0097
    69 C6     3d1-      -0.0003   -0.0171   -0.0057   -0.0052    0.0019    0.0034   -0.0156   -0.0015   -0.0086   -0.0257
    70 C6     3d0        0.0001    0.0117    0.0045    0.0032   -0.0002   -0.0029   -0.0000   -0.0044    0.0118    0.0176
    71 C6     3d1+       0.0002    0.0089    0.0035    0.0029   -0.0013   -0.0017   -0.0030   -0.0047    0.0140    0.0141
    72 C6     3d2+      -0.0002   -0.0028   -0.0014   -0.0033    0.0020   -0.0004   -0.0044   -0.0000   -0.0052   -0.0069
    73 C19    1s        -0.0148   -0.0010    0.0065   -0.0353   -0.0516   -0.0355   -0.0098    0.0110   -0.0022    0.0049
    74 C19    2s        -0.0065   -0.0037   -0.0062    0.1727    0.3093    0.2741    0.0452   -0.0869    0.0392   -0.0378
    75 C19    3s        -0.0395    0.0000    0.0194   -0.0735   -0.0984   -0.0560   -0.0245    0.0250   -0.0034    0.0100
    76 C19    4s        -0.0044    0.0018    0.0032   -0.0159   -0.0218   -0.0128   -0.0058    0.0073   -0.0019    0.0025
    77 C19    2px       -0.0072    0.0065   -0.0226    0.0447    0.0266   -0.0062   -0.0276    0.0545   -0.0469    0.0472
    78 C19    3px       -0.0068    0.0022    0.0007    0.0047   -0.0052   -0.0007    0.0037   -0.0050    0.0033   -0.0082
    79 C19    4px        0.0081    0.0001    0.0000   -0.0030   -0.0112   -0.0122   -0.0032    0.0033   -0.0047    0.0031
    80 C19    2py        0.0197    0.0036    0.0005    0.0277    0.0233   -0.0026   -0.0270    0.0651   -0.0255    0.0784
    81 C19    3py       -0.0098    0.0050    0.0078   -0.0199   -0.0263   -0.0164    0.0019   -0.0098   -0.0046   -0.0090
    82 C19    4py        0.0040    0.0000    0.0006   -0.0068   -0.0142   -0.0141   -0.0043    0.0120    0.0002    0.0030
    83 C19    2pz       -0.0065   -0.0049    0.0080   -0.0112   -0.0134   -0.0086   -0.0000   -0.0168    0.0165   -0.0050
    84 C19    3pz       -0.0045   -0.0055    0.0046   -0.0020   -0.0051   -0.0071   -0.0067   -0.0046    0.0009    0.0056
    85 C19    4pz       -0.0017   -0.0011   -0.0004    0.0017    0.0025    0.0030   -0.0009   -0.0030    0.0013    0.0000
    86 C19    3d2-       0.0016    0.0012   -0.0050    0.0084    0.0072    0.0008   -0.0034    0.0084   -0.0015    0.0061
    87 C19    3d1-      -0.0009   -0.0001    0.0002   -0.0018   -0.0021   -0.0007    0.0004   -0.0016    0.0011   -0.0014
    88 C19    3d0        0.0012   -0.0001    0.0005   -0.0055   -0.0063   -0.0025    0.0014   -0.0036    0.0038   -0.0039
    89 C19    3d1+       0.0014   -0.0002    0.0008   -0.0016   -0.0010    0.0002    0.0009   -0.0017    0.0010   -0.0013
    90 C19    3d2+      -0.0064    0.0013   -0.0035   -0.0033   -0.0051   -0.0031    0.0003   -0.0022    0.0014   -0.0043
    91 N2     1s        -0.0188   -0.0100    0.0360   -0.0068    0.0014    0.0048   -0.0014    0.0052    0.0019   -0.0020
    92 N2     2s         0.1651    0.1315   -0.5750    0.1130   -0.1334   -0.1975   -0.0156   -0.1005    0.0064   -0.0645
    93 N2     3s        -0.0446   -0.0187    0.0578   -0.0096   -0.0053   -0.0002   -0.0057    0.0101    0.0042   -0.0110
    94 N2     4s        -0.0117   -0.0063    0.0214   -0.0026    0.0012    0.0022   -0.0016    0.0031    0.0000   -0.0015
    95 N2     2px       -0.0232    0.0027    0.0132   -0.1057   -0.0749    0.0737    0.1387   -0.3740   -0.0209   -0.0209
    96 N2     3px        0.0293   -0.0028    0.0089    0.0433   -0.0094   -0.0410   -0.0492    0.1026   -0.0053    0.0023
    97 N2     4px       -0.0038    0.0017   -0.0031   -0.0002   -0.0075   -0.0051   -0.0024    0.0009   -0.0041    0.0003
    98 N2     2py        0.0306    0.0001    0.0120   -0.1088   -0.0442    0.0693    0.0252    0.1731    0.3247   -0.1390
    99 N2     3py       -0.0012   -0.0236    0.0577    0.0417   -0.0071   -0.0677   -0.0140   -0.0258   -0.0595    0.0207
   100 N2     4py       -0.0078   -0.0044    0.0150   -0.0019   -0.0005   -0.0047   -0.0050    0.0088   -0.0000   -0.0001
   101 N2     2pz        0.0072   -0.0010   -0.0128    0.0419   -0.0077   -0.0069   -0.0165   -0.0055    0.0426    0.0878
   102 N2     3pz        0.0014    0.0087   -0.0068    0.0053   -0.0063    0.0176   -0.0025   -0.0035    0.0007   -0.0206
   103 N2     4pz        0.0030    0.0016   -0.0040    0.0044   -0.0019    0.0026   -0.0009   -0.0015   -0.0014   -0.0037
   104 N2     3d2-      -0.0028    0.0023   -0.0067   -0.0048    0.0014    0.0099    0.0045    0.0026    0.0142   -0.0044
   105 N2     3d1-       0.0002   -0.0011    0.0028    0.0008   -0.0003    0.0005    0.0002    0.0024    0.0043    0.0040
   106 N2     3d0       -0.0035   -0.0028    0.0145   -0.0009    0.0031    0.0027    0.0010    0.0001   -0.0020   -0.0008
   107 N2     3d1+      -0.0009   -0.0006    0.0028   -0.0007   -0.0011    0.0005    0.0021   -0.0040   -0.0000    0.0018
   108 N2     3d2+       0.0044    0.0007   -0.0035    0.0091    0.0026   -0.0069   -0.0076    0.0188    0.0021    0.0032
   109 N5     1s        -0.0022   -0.0409   -0.0107   -0.0026   -0.0030    0.0013   -0.0032   -0.0007    0.0039    0.0019
   110 N5     2s         0.0104    0.5615    0.1880   -0.0073    0.1139   -0.1879    0.1664   -0.0158    0.1341    0.1302
   111 N5     3s        -0.0039   -0.0793   -0.0201   -0.0155    0.0045   -0.0110   -0.0022   -0.0032    0.0185    0.0101
   112 N5     4s        -0.0004   -0.0256   -0.0078   -0.0046    0.0011   -0.0005   -0.0021   -0.0002    0.0016    0.0007
   113 N5     2px       -0.0041    0.0082   -0.0118   -0.0614    0.0573   -0.0188   -0.1409   -0.0642    0.0460   -0.0938
   114 N5     3px       -0.0076    0.0137   -0.0067    0.0039   -0.0268    0.0152    0.0427    0.0046   -0.0107    0.0167
   115 N5     4px       -0.0021   -0.0008   -0.0019   -0.0045   -0.0026    0.0018    0.0003   -0.0011   -0.0011    0.0022
   116 N5     2py       -0.0116    0.0005    0.0136    0.0318   -0.0291    0.0355   -0.3473   -0.1900    0.2732    0.1526
   117 N5     3py       -0.0151   -0.0469   -0.0057   -0.0214    0.0380   -0.0499    0.0741    0.0168   -0.0535   -0.0057
   118 N5     4py       -0.0038   -0.0128    0.0004   -0.0060    0.0011   -0.0052   -0.0080   -0.0019   -0.0003    0.0003
   119 N5     2pz        0.0208    0.0313   -0.0298   -0.1350    0.1712   -0.0794   -0.1719   -0.0586   -0.0125   -0.3233
   120 N5     3pz        0.0281    0.0126   -0.0278    0.0603   -0.0616    0.0686    0.0420    0.0154    0.0228    0.0555
   121 N5     4pz        0.0047    0.0008   -0.0056    0.0006    0.0014    0.0059    0.0016    0.0007    0.0018    0.0067
   122 N5     3d2-      -0.0000    0.0034    0.0013   -0.0035    0.0054   -0.0056    0.0013    0.0006   -0.0035   -0.0057
   123 N5     3d1-       0.0000    0.0003   -0.0003   -0.0075    0.0114   -0.0072   -0.0154   -0.0067    0.0008   -0.0119
   124 N5     3d0        0.0011    0.0123    0.0023   -0.0012    0.0002    0.0034   -0.0104   -0.0031    0.0058   -0.0011
   125 N5     3d1+       0.0004    0.0124    0.0037   -0.0001    0.0007    0.0004   -0.0052   -0.0025    0.0032    0.0009
   126 N5     3d2+       0.0002   -0.0066   -0.0031   -0.0015   -0.0006    0.0051   -0.0073   -0.0015    0.0004   -0.0009
   127 O7     1s        -0.0238    0.0021   -0.0049   -0.0018   -0.0028   -0.0014    0.0025   -0.0100   -0.0047   -0.0032
   128 O7     2s         0.6659   -0.1213    0.3189   -0.1551   -0.1402   -0.0303    0.0812   -0.2970   -0.1181   -0.0535
   129 O7     3s        -0.0293   -0.0007    0.0044   -0.0129   -0.0145   -0.0065    0.0096   -0.0354   -0.0158   -0.0096
   130 O7     4s        -0.0124    0.0009   -0.0015   -0.0022   -0.0026   -0.0016    0.0017   -0.0069   -0.0033   -0.0019
   131 O7     2px        0.0814   -0.0016   -0.0009   -0.0017   -0.0158   -0.0249   -0.0444    0.1349    0.0648    0.0093
   132 O7     3px       -0.0208    0.0077   -0.0080   -0.0071   -0.0055    0.0082    0.0027   -0.0185   -0.0087    0.0006
   133 O7     4px       -0.0007    0.0018   -0.0015   -0.0017   -0.0005    0.0031    0.0002   -0.0021   -0.0003    0.0003
   134 O7     2py       -0.1175    0.0223   -0.0509   -0.0123   -0.0190   -0.0165    0.0140   -0.0987   -0.0726   -0.0513
   135 O7     3py        0.0403    0.0005    0.0005    0.0063    0.0102    0.0026   -0.0057    0.0194    0.0067    0.0061
   136 O7     4py        0.0009    0.0011    0.0005   -0.0013    0.0003    0.0015   -0.0004    0.0018    0.0010    0.0004
   137 O7     2pz        0.0068   -0.0045    0.0042    0.0085    0.0029    0.0004    0.0058    0.0012    0.0057    0.0031
   138 O7     3pz       -0.0012   -0.0029    0.0009    0.0019   -0.0015   -0.0049    0.0019    0.0017    0.0002   -0.0018
   139 O7     4pz        0.0004   -0.0008    0.0002    0.0006   -0.0001   -0.0017    0.0008    0.0005   -0.0002   -0.0003
   140 O7     3d2-      -0.0166    0.0019   -0.0040    0.0007    0.0022    0.0023    0.0026   -0.0088   -0.0047   -0.0013
   141 O7     3d1-      -0.0009    0.0002   -0.0008   -0.0001   -0.0004   -0.0006   -0.0002    0.0005   -0.0005   -0.0005
   142 O7     3d0       -0.0103    0.0016   -0.0045    0.0017    0.0011   -0.0006    0.0006   -0.0030   -0.0026   -0.0010
   143 O7     3d1+       0.0006   -0.0005   -0.0001    0.0005    0.0003    0.0001    0.0000    0.0002    0.0005    0.0005
   144 O7     3d2+      -0.0074    0.0019   -0.0055   -0.0003   -0.0027   -0.0038   -0.0015    0.0016   -0.0006   -0.0026
   145 O8     1s         0.0008    0.0027    0.0007    0.0031   -0.0027   -0.0024    0.0135    0.0005    0.0151   -0.0147
   146 O8     2s        -0.0614   -0.3062   -0.0197    0.1764   -0.0984   -0.0876    0.3486    0.0193    0.2502   -0.2505
   147 O8     3s        -0.0012   -0.0083    0.0000    0.0137   -0.0096   -0.0097    0.0427    0.0014    0.0429   -0.0418
   148 O8     4s         0.0003    0.0004   -0.0003    0.0018   -0.0012   -0.0020    0.0082    0.0002    0.0087   -0.0089
   149 O8     2px        0.0022    0.0028   -0.0043   -0.0056   -0.0061    0.0092    0.0488    0.0274    0.0256   -0.0690
   150 O8     3px       -0.0019   -0.0013    0.0014    0.0028   -0.0017   -0.0026   -0.0057   -0.0053   -0.0014    0.0051
   151 O8     4px       -0.0008   -0.0007    0.0008    0.0014   -0.0001   -0.0014   -0.0003   -0.0015    0.0001    0.0007
[...]
AIVX     1  Mu1.0001  In1.029 Se1.045               0.10250188     -0.00128570      0.00278801     -0.00000358
AIVX     1  Mu1.0001  In1.021 Se1.046               0.29724647     -0.00109718      0.00197858     -0.00000217
AIVX     1  Mu1.0001  In1.022 Se1.046               0.18489376      0.00213446     -0.00401550     -0.00000857
AIVX     1  Mu1.0001  In1.023 Se1.046               0.27478772     -0.00065577      0.00119386     -0.00000078
AIVX     1  Mu1.0001  In1.024 Se1.046               0.26253913      0.00006916     -0.00011672     -0.00000001
AIVX     1  Mu1.0001  In1.025 Se1.046               0.24209603      0.00161326     -0.00266167     -0.00000429
AIVX     1  Mu1.0001  In1.026 Se1.046               0.23785426     -0.00020512      0.00037180     -0.00000008
AIVX     1  Mu1.0001  In1.027 Se1.046               0.11275049     -0.00295158      0.00611812     -0.00001806
AIVX     1  Mu1.0001  In1.028 Se1.046               0.13520859      0.00018038     -0.00044793     -0.00000008
AIVX     1  Mu1.0001  In1.029 Se1.046               0.12279432      0.00126650     -0.00251872     -0.00000319
AIVX     1  Mu1.0001  In1.022 Se1.047               0.19646850      0.00038809     -0.00085132     -0.00000033
AIVX     1  Mu1.0001  In1.023 Se1.047               0.28636246      0.00048663     -0.00086649     -0.00000042
AIVX     1  Mu1.0001  In1.024 Se1.047               0.27411387      0.00031280     -0.00050487     -0.00000016
AIVX     1  Mu1.0001  In1.025 Se1.047               0.25367078      0.00055276     -0.00104371     -0.00000058
AIVX     1  Mu1.0001  In1.026 Se1.047               0.24942900      0.00098433     -0.00163662     -0.00000161
AIVX     1  Mu1.0001  In1.027 Se1.047               0.12432523     -0.00111450      0.00219812     -0.00000245
AIVX     1  Mu1.0001  In1.028 Se1.047               0.14678333     -0.00065875      0.00168011     -0.00000111
AIVX     1  Mu1.0001  In1.029 Se1.047               0.13436906     -0.00002695      0.00013569     -0.00000000
AIVX     1  Mu1.0001  In1.022 Se1.048               0.21543177     -0.00009275     -0.00012594      0.00000001
AIVX     1  Mu1.0001  In1.024 Se1.048               0.29307714      0.00057748      0.00000780      0.00000000
AIVX     1  Mu1.0001  In1.025 Se1.048               0.27263405     -0.00099701      0.00240538     -0.00000240
AIVX     1  Mu1.0001  In1.026 Se1.048               0.26839227     -0.00063255      0.00117787     -0.00000075
AIVX     1  Mu1.0001  In1.027 Se1.048               0.14328850     -0.00003660      0.00073955     -0.00000003
AIVX     1  Mu1.0001  In1.028 Se1.048               0.16574660      0.00027030     -0.00105731     -0.00000029
AIVX     1  Mu1.0001  In1.029 Se1.048               0.15333233      0.00062646     -0.00124321     -0.00000078
AIVX     1  Mu1.0001  In1.022 Se1.049               0.22113695      0.00264954     -0.00472250     -0.00001251
AIVX     1  Mu1.0001  In1.024 Se1.049               0.29878231      0.00133451     -0.00178827     -0.00000239
AIVX     1  Mu1.0001  In1.025 Se1.049               0.27833922     -0.00051803      0.00117435     -0.00000061
AIVX     1  Mu1.0001  In1.026 Se1.049               0.27409745     -0.00144497      0.00246122     -0.00000356
AIVX     1  Mu1.0001  In1.027 Se1.049               0.14899367     -0.00106042      0.00230804     -0.00000245
AIVX     1  Mu1.0001  In1.028 Se1.049               0.17145178      0.00025405     -0.00098878     -0.00000025
AIVX     1  Mu1.0001  In1.029 Se1.049               0.15903750     -0.00015446      0.00043556     -0.00000007
AIVX     1  Mu1.0001  In1.022 Se1.050               0.23602164     -0.00164630      0.00274706     -0.00000452
AIVX     1  Mu1.0001  In1.025 Se1.050               0.29322392     -0.00130925      0.00200521     -0.00000263
AIVX     1  Mu1.0001  In1.026 Se1.050               0.28898214     -0.00016049      0.00047342     -0.00000008
AIVX     1  Mu1.0001  In1.027 Se1.050               0.16387837      0.00052596     -0.00097571     -0.00000051
AIVX     1  Mu1.0001  In1.028 Se1.050               0.18633647      0.00120943     -0.00294158     -0.00000356
AIVX     1  Mu1.0001  In1.029 Se1.050               0.17392220     -0.00075459      0.00143566     -0.00000108
AIVX     1  Mu1.0001  In1.022 Se1.051               0.23018386      0.00185129     -0.00340182     -0.00000630
AIVX     1  Mu1.0001  In1.025 Se1.051               0.28738613     -0.00017157      0.00094884     -0.00000016
AIVX     1  Mu1.0001  In1.026 Se1.051               0.28314436     -0.00306005      0.00495756     -0.00001517
AIVX     1  Mu1.0001  In1.027 Se1.051               0.15804058     -0.00024865      0.00106801     -0.00000027
AIVX     1  Mu1.0001  In1.028 Se1.051               0.18049869     -0.00030816      0.00046703     -0.00000014
AIVX     1  Mu1.0001  In1.029 Se1.051               0.16808442      0.00127530     -0.00238572     -0.00000304
AIVX     1  Mu1.0001  In1.022 Se1.052               0.26775580      0.00024295     -0.00028731     -0.00000007
AIVX     1  Mu1.0001  In1.027 Se1.052               0.19561252      0.00195486     -0.00299216     -0.00000585
AIVX     1  Mu1.0001  In1.028 Se1.052               0.21807063     -0.00036418      0.00045101     -0.00000016
AIVX     1  Mu1.0001  In1.029 Se1.052               0.20565635      0.00071853     -0.00133354     -0.00000096
AIVX     1  Mu1.0001  In1.022 Se1.053               0.28709964      0.00138863     -0.00191115     -0.00000265
AIVX     1  Mu1.0001  In1.027 Se1.053               0.21495637     -0.00097769      0.00129738     -0.00000127
AIVX     1  Mu1.0001  In1.028 Se1.053               0.23741447      0.00031752     -0.00069930     -0.00000022
AIVX     1  Mu1.0001  In1.029 Se1.053               0.22500020      0.00189129     -0.00326246     -0.00000617
AIVX     1  Mu1.0001  In1.027 Se1.054               0.22887424     -0.00003824     -0.00009101      0.00000000
AIVX     1  Mu1.0001  In1.028 Se1.054               0.25133235      0.00017420     -0.00056369     -0.00000010
AIVX     1  Mu1.0001  In1.029 Se1.054               0.23891808      0.00016472     -0.00039730     -0.00000007
AIVX     1  Mu1.0001  In1.027 Se1.055               0.24734623     -0.00026622     -0.00005736      0.00000002
AIVX     1  Mu1.0001  In1.028 Se1.055               0.26980434      0.00179445     -0.00326192     -0.00000585
AIVX     1  Mu1.0001  In1.029 Se1.055               0.25739007     -0.00148200      0.00214681     -0.00000318
AIVX     1  Mu1.0001  In1.027 Se1.056               0.23980688      0.00068950     -0.00146530     -0.00000101
AIVX     1  Mu1.0001  In1.028 Se1.056               0.26226499      0.00160292     -0.00289951     -0.00000465
AIVX     1  Mu1.0001  In1.029 Se1.056               0.24985071      0.00099653     -0.00165782     -0.00000165
AIVX     1  Mu1.0001  In1.027 Se1.057               0.27551704      0.00160528     -0.00191038     -0.00000307
AIVX     1  Mu1.0001  In1.028 Se1.057               0.29797514      0.00102390     -0.00176223     -0.00000180
AIVX     1  Mu1.0001  In1.029 Se1.057               0.28556087     -0.00000732      0.00034781     -0.00000000
AIVX     1  Mu1.0001  In1.027 Se1.058               0.27381626      0.00016933     -0.00042296     -0.00000007
AIVX     1  Mu1.0001  In1.028 Se1.058               0.29627436      0.00010375     -0.00036641     -0.00000004
AIVX     1  Mu1.0001  In1.029 Se1.058               0.28386009      0.00133459     -0.00226406     -0.00000302
AIVX     1  Mu1.0001  In1.027 Se1.059               0.29362971      0.00103704     -0.00138754     -0.00000144
--
 
   (Skipping property calculation,
    use PROP keyword to activate)
--
 
  Total CASPT2 energies:
::    CASPT2 Root  1     Total energy:   -455.37952377
::    CASPT2 Root  2     Total energy:   -455.16638191
::    CASPT2 Root  3     Total energy:   -455.17476719
::    CASPT2 Root  4     Total energy:   -455.12860015
::    CASPT2 Root  5     Total energy:   -455.12113619
::    CASPT2 Root  6     Total energy:   -455.10454454
::    CASPT2 Root  7     Total energy:   -455.08052348
 
++ Multi-State CASPT2 section:
********************************************************************************
  MULTI-STATE CASPT2 SECTION
--------------------------------------------------------------------------------
 
  Output diagonal energies have been shifted. Add   -455.000000000000     
 
  Effective Hamiltonian matrix (Symmetric):
 
                1               2               3               4               5
   1        -0.37952377
   2         0.00024172     -0.16638191
   3        -0.00008906     -0.00144276     -0.17476719
   4        -0.01022001     -0.00084229     -0.00037911     -0.12860015
   5         0.01718155      0.00119000      0.00087760      0.00086428     -0.12113619
   6        -0.01209609      0.00156425      0.00135810      0.00168265      0.02063706
   7         0.01305193     -0.00050422     -0.00004037      0.01061296     -0.00985962
 
                6               7
   6        -0.10454454
   7         0.00570099     -0.08052348
 
       Total MS-CASPT2 energies:
::    MS-CASPT2 Root  1     Total energy:   -455.38241200
::    MS-CASPT2 Root  2     Total energy:   -455.17505886
::    MS-CASPT2 Root  3     Total energy:   -455.16619549
::    MS-CASPT2 Root  4     Total energy:   -455.13527769
::    MS-CASPT2 Root  5     Total energy:   -455.13010417
::    MS-CASPT2 Root  6     Total energy:   -455.09043149
::    MS-CASPT2 Root  7     Total energy:   -455.07599753
 
       Eigenvectors:
            0.99421412     -0.00069828      0.00012904      0.09965064     -0.03286032
           -0.00102187      0.17017639      0.98480741      0.00532423     -0.02220322
            0.00046516      0.98507081     -0.17090426      0.00032915     -0.00917331
            0.04194133      0.01190973      0.02075494     -0.14076426      0.96889563
           -0.07120981     -0.01227322     -0.01475171      0.80414720      0.12145696
            0.04929720     -0.01955844     -0.01706251     -0.53111900     -0.14015503
           -0.04771686     -0.00001290      0.00256245      0.20368260     -0.15871075
 
           -0.00289954      0.02278868
            0.02467716     -0.00793843
            0.01845599     -0.00146053
            0.05459147      0.19003887
            0.55327856     -0.16443610
            0.83040142      0.07482505
            0.01944481      0.96470863
 
--
 
  THE ORIGINAL CI ARRAYS ARE NOW MIXED AS LINEAR
  COMBINATIONS, GIVEN BY THE EIGENVECTORS.
  A NEW JOBIPH FILE NAMED 'JOBMIX' IS PREPARED.
********************************************************************************
 
++ Mixed CI coefficients:
  The CI coefficients for the MIXED state nr.   1
--------------------------------------------------------------------------------
 CI COEFFICIENTS LARGER THAN  0.50D-01
  Occupation of active orbitals, and spin coupling
  of open shells. (u,d: Spin up or down).
  SGUGA info is (Midvert:IsyUp:UpperWalk/LowerWalk)
        Conf  SGUGA info        Occupation    Coefficient         Weight
           1  ( 1:1:   1/   1)   22222200        0.961439       0.924365
           4  ( 1:1:   4/   1)   22222020       -0.106863       0.011420
          41  ( 2:1:   1/   2)   22u222d0       -0.103480       0.010708
          61  ( 2:1:   1/   3)   2u2222d0       -0.093945       0.008826
          84  ( 2:1:   4/   4)   u222220d        0.117497       0.013806
         105  ( 3:1:   5/   1)   22202202       -0.088448       0.007823
         171  ( 3:1:   1/   8)   20222220       -0.081381       0.006623
         195  ( 3:1:   5/  10)   02222202       -0.075050       0.005633
 
  The CI coefficients for the MIXED state nr.   2
--------------------------------------------------------------------------------
 CI COEFFICIENTS LARGER THAN  0.50D-01
  Occupation of active orbitals, and spin coupling
  of open shells. (u,d: Spin up or down).
  SGUGA info is (Midvert:IsyUp:UpperWalk/LowerWalk)
        Conf  SGUGA info        Occupation    Coefficient         Weight
           7  ( 1:1:   7/   1)   22222u0d       -0.050705       0.002571
          24  ( 2:1:   4/   1)   222u220d       -0.054503       0.002971
          44  ( 2:1:   4/   2)   22u2220d       -0.943519       0.890229
          45  ( 2:1:   5/   2)   22u22dud        0.061916       0.003834
          47  ( 2:1:   7/   2)   22u22udd        0.085894       0.007378
          49  ( 2:1:   9/   2)   22u2202d        0.092885       0.008628
         115  ( 3:1:   5/   2)   22ud2202       -0.168386       0.028354
         142  ( 3:1:   2/   5)   220222ud        0.084660       0.007167
         165  ( 3:1:   5/   7)   u2d22202        0.127909       0.016361
         219  ( 4:1:   1/   4)   2uu222dd       -0.082860       0.006866
         220  ( 4:1:   2/   4)   2uu22d2d       -0.056427       0.003184
         293  ( 5:1:   1/  15)   20u2222d       -0.087887       0.007724
 
  The CI coefficients for the MIXED state nr.   3
--------------------------------------------------------------------------------
 CI COEFFICIENTS LARGER THAN  0.50D-01
  Occupation of active orbitals, and spin coupling
  of open shells. (u,d: Spin up or down).
  SGUGA info is (Midvert:IsyUp:UpperWalk/LowerWalk)
        Conf  SGUGA info        Occupation    Coefficient         Weight
           3  ( 1:1:   3/   1)   2222u2d0       -0.951498       0.905349
           5  ( 1:1:   5/   1)   2222ud20       -0.127154       0.016168
           8  ( 1:1:   8/   1)   2222u20d       -0.076566       0.005862
          43  ( 2:1:   3/   2)   22u2d220        0.060973       0.003718
          63  ( 2:1:   3/   3)   2u22d220       -0.162302       0.026342
          86  ( 2:1:   6/   4)   u222d2ud       -0.059937       0.003592
          88  ( 2:1:   8/   4)   u222u2dd       -0.098898       0.009781
         107  ( 3:1:   7/   1)   2220u2d2        0.086949       0.007560
         137  ( 3:1:   7/   4)   u22du2d2       -0.059837       0.003580
         197  ( 3:1:   7/  10)   0222u2d2        0.078159       0.006109
 
  The CI coefficients for the MIXED state nr.   4
--------------------------------------------------------------------------------
 CI COEFFICIENTS LARGER THAN  0.50D-01
  Occupation of active orbitals, and spin coupling
  of open shells. (u,d: Spin up or down).
  SGUGA info is (Midvert:IsyUp:UpperWalk/LowerWalk)
        Conf  SGUGA info        Occupation    Coefficient         Weight
           2  ( 1:1:   2/   1)   22222ud0       -0.906087       0.820994
           4  ( 1:1:   4/   1)   22222020        0.147044       0.021622
           7  ( 1:1:   7/   1)   22222u0d       -0.084015       0.007058
           8  ( 1:1:   8/   1)   2222u20d        0.086955       0.007561
          24  ( 2:1:   4/   1)   222u220d       -0.123972       0.015369
          41  ( 2:1:   1/   2)   22u222d0        0.082302       0.006774
          61  ( 2:1:   1/   3)   2u2222d0        0.074077       0.005487
          62  ( 2:1:   2/   3)   2u222d20       -0.243337       0.059213
          85  ( 2:1:   5/   4)   u2222dud       -0.058326       0.003402
          87  ( 2:1:   7/   4)   u2222udd       -0.096541       0.009320
         106  ( 3:1:   6/   1)   22202ud2        0.082602       0.006823
         136  ( 3:1:   6/   4)   u22d2ud2       -0.059494       0.003540
         171  ( 3:1:   1/   8)   20222220       -0.097983       0.009601
         196  ( 3:1:   6/  10)   02222ud2        0.074652       0.005573
 
  The CI coefficients for the MIXED state nr.   5
--------------------------------------------------------------------------------
 CI COEFFICIENTS LARGER THAN  0.50D-01
  Occupation of active orbitals, and spin coupling
  of open shells. (u,d: Spin up or down).
  SGUGA info is (Midvert:IsyUp:UpperWalk/LowerWalk)
        Conf  SGUGA info        Occupation    Coefficient         Weight
           2  ( 1:1:   2/   1)   22222ud0       -0.125127       0.015657
           7  ( 1:1:   7/   1)   22222u0d       -0.189821       0.036032
           8  ( 1:1:   8/   1)   2222u20d       -0.320538       0.102745
          24  ( 2:1:   4/   1)   222u220d        0.851208       0.724555
          25  ( 2:1:   5/   1)   222u2dud       -0.058716       0.003448
          27  ( 2:1:   7/   1)   222u2udd       -0.090569       0.008203
          29  ( 2:1:   9/   1)   222u202d       -0.086046       0.007404
          41  ( 2:1:   1/   2)   22u222d0        0.084379       0.007120
          84  ( 2:1:   4/   4)   u222220d        0.076930       0.005918
         122  ( 3:1:   2/   3)   2u2d22ud       -0.050483       0.002549
         135  ( 3:1:   5/   4)   u22d2202       -0.200477       0.040191
         195  ( 3:1:   5/  10)   02222202        0.063654       0.004052
         201  ( 4:1:   1/   1)   22uu22dd        0.051656       0.002668
         207  ( 4:1:   1/   2)   2u2u22dd        0.075548       0.005707
         208  ( 4:1:   2/   2)   2u2u2d2d        0.054460       0.002966
         261  ( 5:1:   1/   7)   202u222d        0.080051       0.006408
 
  The CI coefficients for the MIXED state nr.   6
--------------------------------------------------------------------------------
 CI COEFFICIENTS LARGER THAN  0.50D-01
  Occupation of active orbitals, and spin coupling
  of open shells. (u,d: Spin up or down).
  SGUGA info is (Midvert:IsyUp:UpperWalk/LowerWalk)
        Conf  SGUGA info        Occupation    Coefficient         Weight
           2  ( 1:1:   2/   1)   22222ud0        0.108891       0.011857
           7  ( 1:1:   7/   1)   22222u0d       -0.923893       0.853579
           8  ( 1:1:   8/   1)   2222u20d        0.074614       0.005567
          24  ( 2:1:   4/   1)   222u220d       -0.153298       0.023500
          44  ( 2:1:   4/   2)   22u2220d        0.054644       0.002986
          45  ( 2:1:   5/   2)   22u22dud       -0.136196       0.018549
          65  ( 2:1:   5/   3)   2u222dud       -0.151056       0.022818
          67  ( 2:1:   7/   3)   2u222udd       -0.160419       0.025734
          93  ( 2:1:  13/   4)   u2222d02        0.050952       0.002596
         173  ( 3:1:   3/   8)   20222u2d       -0.117960       0.013915
 
  The CI coefficients for the MIXED state nr.   7
--------------------------------------------------------------------------------
 CI COEFFICIENTS LARGER THAN  0.50D-01
  Occupation of active orbitals, and spin coupling
  of open shells. (u,d: Spin up or down).
  SGUGA info is (Midvert:IsyUp:UpperWalk/LowerWalk)
        Conf  SGUGA info        Occupation    Coefficient         Weight
           3  ( 1:1:   3/   1)   2222u2d0        0.064604       0.004174
           8  ( 1:1:   8/   1)   2222u20d       -0.843984       0.712309
          10  ( 1:1:  10/   1)   2222udud       -0.163813       0.026835
          12  ( 1:1:  12/   1)   2222uudd       -0.242201       0.058661
          24  ( 2:1:   4/   1)   222u220d       -0.326018       0.106288
          44  ( 2:1:   4/   2)   22u2220d        0.059178       0.003502
          46  ( 2:1:   6/   2)   22u2d2ud       -0.145656       0.021216
          48  ( 2:1:   8/   2)   22u2u2dd        0.175985       0.030971
          71  ( 2:1:  11/   3)   2u22ud2d        0.050949       0.002596
          94  ( 2:1:  14/   4)   u222d202        0.050328       0.002533
         135  ( 3:1:   5/   4)   u22d2202        0.069983       0.004898
         174  ( 3:1:   4/   8)   2022u22d       -0.067737       0.004588
         205  ( 4:1:   5/   1)   22uud2d2        0.054043       0.002921
 
--
 
--- Stop Module: caspt2 at Tue Jun 10 20:48:40 2025 /rc=_RC_ALL_IS_WELL_ ---
*** files: xmldump
    saved to directory /home/pcaah4/diamide_project
--- Module caspt2 spent 6 minutes 54 seconds ---

.##################.
.# Happy landing! #.
.##################.

    Timing: Wall=696.17 User=606.06 System=80.50
******************************************************
*** WorkDir at /srv/COMMUNAL_SCRATCH/12457 cleaned ***
******************************************************
