   This run of MOLCAS is using the pymolcas driver

                             OPE
                             OPE          NMOL  CASOP  ENMOLC A   SO
                 OPE        NMOLC        AS  OP EN  MO LC     AS  OP
                OPENM       OL CA        SO  PE NM  OL CA     SOP EN
                OP EN      MO   LC       AS  OP ENMOL  CASO   PENMOL
                OP  EN     MO   LC       AS  OP EN     MO     LC ASO
               OP   E  NMOL  C  AS       OP  EN MO     LC     AS  OP
               OP  E   NMO   LC AS        OPEN  MO     LCASOP EN   M
               O  PEN   MO  LCA  SO
            OPE   NMO   L   CAS    OP
        OPENMOL  CASOP     ENMOL   CASOPE
     OPENMOLCA   SOPENMOLCASOPEN   MOLCASOPE
    OPENMOLCAS   OP           EN   MOL    CAS
    OPENMOLCAS       OP  ENM        O     LCA
    OPENMOLCAS    OPEN  MOLCASO     P  E  NMO
    OPENMOLCAS     OP               E  N  MOL
    OPENMOLCA   SO           PENM   O  L  CAS    OPEN    MO    LCAS
    OPENMOLCA   SOP           ENM   O  L  CAS   OP  EN  MOLC  AS   O
    OPENMOLCA   SOPE           NM      O  LCA   S      OP  EN MO
    OPENMOLC                AS         O  PEN   M      OL  CA  SOPE
    OPENMO        LCASOPE  NMOL        C  ASO   P      ENMOLC     AS
    OPE     NMO      LCA  SO     P     E   NM   OL  CA SO  PE N   MO
          OPENMOLCA            SOPE   NMO        LCAS  O    P  ENMO
     OPENMOLCASOPENMOLCASOPENMOLCASOPENMOLCA
        OPENMOLCASOPENMOLCASOPENMOLCASOPE
            OPENMOLCASOPENMOLCASOPENM
               OPENMOLCASOPENMOLCA        version: v23.06
                   OPENMOLCASO
                       OPE                tag:

 OpenMolcas is free software; you can redistribute it and/or modify it
 under the terms of the GNU Lesser General Public License version 2.1.
 OpenMolcas is distributed in the hope that it will be useful, but it
 is provided "as is" and without any express or implied warranties.
 For more details see the full text of the license in the file
 LICENSE or in <http://www.gnu.org/licenses/>.

                 Copyright (C) The OpenMolcas Authors
           For the author list and the recommended citation,
                   consult the file CONTRIBUTORS.md

           *************************************************
           * pymolcas version py2.24                       *
           *   build 4567b286dd94b1984b333a4ddf893180      *
           *   (after the EMIL interpreter by V. Veryazov) *
           *************************************************

configuration info
------------------
Host name: loginchem01.nottingham.ac.uk (Linux)
C Compiler ID: Intel
C flags: -std=gnu99 -gcc-sys -qopenmp
Fortran Compiler ID: Intel
Fortran flags: -fpp -i8 -heap-arrays -qopenmp
Definitions: _MOLCAS_;_I8_;_LINUX_
Parallel: OFF (GA=OFF)


   ---------------------------------------------------------------------------------------------------
  |
  |              Project: orca_geometry_optimisation_45_285_BP86_def2-SVP_def2J_scf_cas1_ras12i11_cas8
  |       Submitted from: /home/pcaah4/diamide_project
  |         Scratch area: /srv/COMMUNAL_SCRATCH/12495
  |      Save outputs to: /home/pcaah4/diamide_project
  |               Molcas: /software/chemistry/openmolcas/openmolcas-23.06-openmp
  |
  | Scratch area is empty
  |
  |       MOLCAS_DRIVER = /software/chemistry/openmolcas/openmolcas-23.06-openmp/sbin/pymolcas
  | MOLCAS_KEEP_WORKDIR = NO
  |       MOLCAS_NPROCS = 1
  |       MOLCAS_SOURCE = /software/chemistry/openmolcas/openmolcas-23.06-openmp
  |    MOLCAS_STRUCTURE = 0
  |
   ---------------------------------------------------------------------------------------------------

++ ---------   Input file   ---------

&SEWARD
TITLE
orca_geometry_optimisation_45_285_BP86_def2-SVP_def2J_scf_cas1_ras12i11
MULTIPOLES
2
SDIPOLE
ANGMOM
0 0 0
BASIS SET
C.ANO-S...4S3P1D.
C1           -0.067310   -0.202694   -0.166563 /Angstrom
C3            1.998874    1.232503    0.109819 /Angstrom
C4            1.441412    2.267331    1.130218 /Angstrom
C6           -0.324123    3.910778    1.589361 /Angstrom
C19          -0.580345   -1.626346    0.011012 /Angstrom
END OF BASIS
BASIS SET
N.ANO-S...4S3P1D.
N2            1.290609   -0.045534   -0.052261 /Angstrom
N5            0.321161    2.936398    0.728688 /Angstrom
END OF BASIS
BASIS SET
O.ANO-S...4S3P1D.
O7           -0.838647    0.724213   -0.445642 /Angstrom
O8            2.069752    2.506838    2.164040 /Angstrom
END OF BASIS
BASIS SET
H.ANO-S...2S1P.
H9           -1.256683   -1.865112   -0.832266 /Angstrom
H10          -1.189047   -1.671611    0.937199 /Angstrom
H11           0.216139   -2.393607    0.070028 /Angstrom
H12           1.800186   -0.864666    0.283437 /Angstrom
H13           3.022239    1.002545    0.453306 /Angstrom
H14           2.076056    1.735522   -0.880923 /Angstrom
H15          -0.243073    2.442562    0.015670 /Angstrom
H16          -1.244578    3.503284    2.063026 /Angstrom
H17           0.388181    4.187960    2.389367 /Angstrom
H18          -0.603698    4.819383    1.016477 /Angstrom
END OF BASIS
END OF INPUT

&RASSCF
TITLE
orca_geometry_optimisation_45_285_BP86_def2-SVP_def2J_scf_cas1_ras12i11
LUMORB
SPIN
1
SYMMETRY
1
NACTEL
12  0  0
INACTIVE
29
DELETED  ! delete Rydberg orbitals from an initial CAS(12,11) if done
3
FROZEN
0
RAS2
8
ITERATIONS
64 25
CIROOT
7 7
1 2 3 4 5 6 7
1 1 1 1 1 1 1
LEVSHFT
0.3
CIMX
20
FILEorb = /home/pcaah4/diamide_project/cas/ras12i11/ras_orb/orca_geometry_optimisation_45_285_BP86_def2-SVP_def2J_scf_cas1_ras12i11.RasOrb
ALTEr
0
END OF INPUT

&RASSI
NROF JOBIPH
    1 7
    1 2 3 5 4 6 7
TOFILE
TRDI
TDMN
1.0D-6
END OF INPUT

&CASPT2
TITLE
orca_geometry_optimisation_45_285_BP86_def2-SVP_def2J_scf_cas1_ras12i11
MULTISTATE
7 1 2 3 4 5 6 7
SHIFT
0.35
MAXITER
50
END OF INPUT

-- ----------------------------------

--- Start Module: seward at Tue Jun 10 22:15:11 2025 ---
 
()()()()()()()()()()()()()()()()()()()()()()()()()()()()()()()()()()()()()()()()()()()()()()()()()()

                                              &SEWARD

                                   only a single process is used
                       available to each process: 2.0 GB of memory, 1 thread
                                            pid: 3142469
()()()()()()()()()()()()()()()()()()()()()()()()()()()()()()()()()()()()()()()()()()()()()()()()()()
 
               SEWARD will generate:
                  Multipole Moment integrals up to order  2
                  Kinetic Energy integrals
                  Nuclear Attraction integrals (point charge)
                  One-Electron Hamiltonian integrals
                  Velocity integrals
                  Orbital angular momentum around ( 0.0000  0.0000  0.0000 )
                  Velocity quadrupole around ( 1.0877  2.4715  1.0838 )
                  Two-Electron Repulsion integrals
 
 Title:
            orca_geometry_optimisation_45_285_BP86_def2-SVP_def2J_scf_cas1_ras12i11     
 
 
                   Integrals are discarded if absolute value <: 0.10E-13
                   Integral cutoff threshold is set to       <: 0.10E-15
 
++    Symmetry information:
      ---------------------
 
                    Character Table for C1 
 
                             E  
                    a        1  x, y, xy, Rz, z, xz, Ry, yz, Rx, I
--
 
 
++    Basis set information:
      ----------------------
 
 
      Basis set label: C.ANO-S...4S3P1D......
 
      Electronic valence basis set:
      ------------------
      Associated Effective Charge   6.000000 au
      Associated Actual Charge      6.000000 au
      Nuclear Model: Point charge
 
      Shell  nPrim  nBasis  Cartesian Spherical Contaminant
         s      10       4        X                  
         p       6       3        X                  
         d       3       1                 X         
 
 
      Basis set label: N.ANO-S...4S3P1D......
 
      Electronic valence basis set:
      ------------------
      Associated Effective Charge   7.000000 au
      Associated Actual Charge      7.000000 au
      Nuclear Model: Point charge
 
      Shell  nPrim  nBasis  Cartesian Spherical Contaminant
         s      10       4        X                  
         p       6       3        X                  
         d       3       1                 X         
 
 
      Basis set label: O.ANO-S...4S3P1D......
 
      Electronic valence basis set:
      ------------------
      Associated Effective Charge   8.000000 au
      Associated Actual Charge      8.000000 au
      Nuclear Model: Point charge
 
      Shell  nPrim  nBasis  Cartesian Spherical Contaminant
         s      10       4        X                  
         p       6       3        X                  
         d       3       1                 X         
 
 
      Basis set label: H.ANO-S...2S1P......
 
      Electronic valence basis set:
      ------------------
      Associated Effective Charge   1.000000 au
      Associated Actual Charge      1.000000 au
      Nuclear Model: Point charge
 
      Shell  nPrim  nBasis  Cartesian Spherical Contaminant
         s       7       2        X                  
         p       3       1        X                  
--
 
 
++    Molecular structure info:
      -------------------------
 
                    ************************************************ 
                    **** Cartesian Coordinates / Bohr, Angstrom **** 
                    ************************************************ 
 
     Center  Label                x              y              z                     x              y              z
        1      C1              -0.127197      -0.383036      -0.314758             -0.067310      -0.202694      -0.166563
        2      C3               3.777324       2.329093       0.207528              1.998874       1.232503       0.109819
        3      C4               2.723874       4.284635       2.135802              1.441412       2.267331       1.130218
        4      C6              -0.612504       7.390299       3.003457             -0.324123       3.910778       1.589361
        5      C19             -1.096693      -3.073349       0.020810             -0.580345      -1.626346       0.011012
        6      N2               2.438898      -0.086047      -0.098759              1.290609      -0.045534      -0.052261
        7      N5               0.606906       5.548988       1.377021              0.321161       2.936398       0.728688
        8      O7              -1.584813       1.368564      -0.842141             -0.838647       0.724213      -0.445642
        9      O8               3.911264       4.737237       4.089443              2.069752       2.506838       2.164040
       10      H9              -2.374787      -3.524551      -1.572755             -1.256683      -1.865112      -0.832266
       11      H10             -2.246973      -3.158887       1.771049             -1.189047      -1.671611       0.937199
       12      H11              0.408444      -4.523262       0.132334              0.216139      -2.393607       0.070028
       13      H12              3.401859      -1.633982       0.535618              1.800186      -0.864666       0.283437
       14      H13              5.711204       1.894535       0.856624              3.022239       1.002545       0.453306
       15      H14              3.923177       3.279661      -1.664703              2.076056       1.735522      -0.880923
       16      H15             -0.459341       4.615773       0.029612             -0.243073       2.442562       0.015670
       17      H16             -2.351912       6.620247       3.898554             -1.244578       3.503284       2.063026
       18      H17              0.733556       7.914097       4.515249              0.388181       4.187960       2.389367
       19      H18             -1.140824       9.107314       1.920863             -0.603698       4.819383       1.016477
 
                    ************************************************* 
                    **** InterNuclear Distances / Bohr, Angstrom **** 
                    ************************************************* 
 
     Atom centers         Bohr        Angstrom
   13 H12       6 N2      1.930241        1.021440
   16 H15       7 N5      1.955322        1.034712
   14 H13       2 C3      2.085679        1.103694
   18 H17       4 C6      2.090875        1.106443
   10 H9        5 C19     2.092022        1.107050
   12 H11       5 C19     2.092874        1.107501
   11 H10       5 C19     2.096139        1.109229
   19 H18       4 C6      2.097444        1.109920
   17 H16       4 C6      2.102313        1.112496
   15 H14       2 C3      2.104781        1.113802
    9 O8        3 C4      2.330549        1.233273
    8 O7        1 C1      2.338991        1.237741
    7 N5        3 C4      2.579901        1.365225
    6 N2        1 C1      2.592239        1.371754
    7 N5        4 C6      2.742751        1.451401
    6 N2        2 C3      2.778147        1.470132
    5 C19       1 C1      2.879290        1.523654
    3 C4        2 C3      2.941453        1.556550
   11 H10      10 H9      3.366166        1.781298
   15 H14      14 H13     3.387138        1.792396
   19 H18      17 H16     3.400514        1.799475
   18 H17      17 H16     3.402127        1.800328
   12 H11      11 H10     3.405605        1.802169
   12 H11      10 H9      3.413374        1.806280
   19 H18      18 H17     3.415831        1.807580
   16 H15       8 O7      3.545562        1.876230
   16 H15       3 C4      3.831260        2.027415
   13 H12       1 C1      3.839563        2.031809
   18 H17       7 N5      3.931699        2.080566
   14 H13       6 N2      3.942519        2.086291
   13 H12       2 C3      3.994319        2.113702
   15 H14       6 N2      3.997907        2.115601
   19 H18       7 N5      4.001501        2.117503
   17 H16       7 N5      4.032410        2.133859
   14 H13       3 C4      4.033982        2.134691
   10 H9        1 C1      4.062429        2.149745
   11 H10       1 C1      4.068094        2.152743
   16 H15       4 C6      4.070038        2.153771
   15 H14       3 C4      4.110005        2.174921
   13 H12      12 H11     4.179846        2.211879
   12 H11       1 C1      4.198603        2.221805
   14 H13      13 H12     4.229250        2.238023
    8 O7        6 N2      4.342667        2.298041
    9 O8        7 N5      4.351431        2.302678
   18 H17       9 O8      4.513489        2.388436
    8 O7        5 C19     4.551212        2.408398
    9 O8        2 C3      4.570160        2.418425
    6 N2        5 C19     4.630191        2.450192
    4 C6        3 C4      4.639978        2.455370
   14 H13       9 O8      4.666032        2.469158
    7 N5        2 C3      4.667653        2.470016
   17 H16      16 H15     4.750626        2.513923
   13 H12       5 C19     4.751186        2.514219
   18 H17       3 C4      4.774530        2.526572
    2 C3        1 C1      4.782648        2.530868
   16 H15       2 C3      4.817665        2.549399
   16 H15      15 H14     4.884912        2.584984
   12 H11       6 N2      4.885184        2.585128
    6 N2        3 C4      4.917045        2.601988
   19 H18      16 H15     4.920893        2.604024
   10 H9        8 O7      5.010033        2.651195
   16 H15       1 C1      5.021654        2.657345
   15 H14       7 N5      5.039800        2.666947
    8 O7        7 N5      5.215770        2.760067
   11 H10       8 O7      5.269254        2.788369
    9 O8        4 C6      5.355612        2.834068
   15 H14      13 H12     5.408981        2.862310
   16 H15       6 N2      5.524797        2.923597
    8 O7        2 C3      5.547697        2.935715
   15 H14       1 C1      5.625232        2.976745
--
 
 
            Nuclear Potential Energy            462.55050312 au
 
 
      Basis set specifications :
      Symmetry species         a  
      Basis functions          212
 
 
      Input file to MOLDEN was generated!
 
--- Stop Module: seward at Tue Jun 10 22:17:03 2025 /rc=_RC_ALL_IS_WELL_ ---
*** files: orca_geometry_optimisation_45_285_BP86_def2-SVP_def2J_scf_cas1_ras12i11_cas8.GssOrb
           orca_geometry_optimisation_45_285_BP86_def2-SVP_def2J_scf_cas1_ras12i11_cas8.guessorb.molden xmldump
    saved to directory /home/pcaah4/diamide_project
--- Module seward spent 1 minute 51 seconds ---

*** symbolic link created: INPORB -> orca_geometry_optimisation_45_285_BP86_def2-SVP_def2J_scf_cas1_ras12i11_cas8.GssOrb
--- Start Module: rasscf at Tue Jun 10 22:17:03 2025 ---
 
()()()()()()()()()()()()()()()()()()()()()()()()()()()()()()()()()()()()()()()()()()()()()()()()()()

                                              &RASSCF

                                   only a single process is used
                       available to each process: 2.0 GB of memory, 1 thread
                                            pid: 3142529
()()()()()()()()()()()()()()()()()()()()()()()()()()()()()()()()()()()()()()()()()()()()()()()()()()
 
 
      Header of the ONEINT file:
      --------------------------
      orca_geometry_optimisation_45_285_BP86_def2-SVP_def2J_scf_cas1_ras12i11
      Integrals generated by Gateway/Seward, Tue Jun 10 22:15:12 2025
 
 
      OrdInt status: non-squared
 
 
      Cartesian coordinates in Angstrom:
      -----------------------------------------------------
      No.  Label        X            Y            Z        
      -----------------------------------------------------
       1   C1        -0.06731000  -0.20269400  -0.16656300
       2   C3         1.99887400   1.23250300   0.10981900
       3   C4         1.44141200   2.26733100   1.13021800
       4   C6        -0.32412300   3.91077800   1.58936100
       5   C19       -0.58034500  -1.62634600   0.01101200
       6   N2         1.29060900  -0.04553400  -0.05226100
       7   N5         0.32116100   2.93639800   0.72868800
       8   O7        -0.83864700   0.72421300  -0.44564200
       9   O8         2.06975200   2.50683800   2.16404000
      10   H9        -1.25668300  -1.86511200  -0.83226600
      11   H10       -1.18904700  -1.67161100   0.93719900
      12   H11        0.21613900  -2.39360700   0.07002800
      13   H12        1.80018600  -0.86466600   0.28343700
      14   H13        3.02223900   1.00254500   0.45330600
      15   H14        2.07605600   1.73552200  -0.88092300
      16   H15       -0.24307300   2.44256200   0.01567000
      17   H16       -1.24457800   3.50328400   2.06302600
      18   H17        0.38818100   4.18796000   2.38936700
      19   H18       -0.60369800   4.81938300   1.01647700
      -----------------------------------------------------
      Nuclear repulsion energy =  462.55050312
 
++    Wave function specifications:
      -----------------------------
 
      Number of closed shell electrons          58
      Number of electrons in active shells      12
      Max number of holes in RAS1 space          0
      Max nr of electrons in RAS3 space          0
      Number of inactive orbitals               29
      Number of active orbitals                  8
      Number of secondary orbitals             172
      Spin quantum number                      0.0
      State symmetry                             1
--
 
++    Orbital specifications:
      -----------------------
 
      Symmetry species                           1
                                                 a
      Frozen orbitals                            0
      Inactive orbitals                         29
      Active orbitals                            8
      RAS1 orbitals                              0
      RAS2 orbitals                              8
      RAS3 orbitals                              0
      Secondary orbitals                       172
      Deleted orbitals                           3
      Number of basis functions                212
--
 
++    CI expansion specifications:
      ----------------------------
 
      Number of CSFs                           336
      Number of determinants                   406
      Number of root(s) required                 7
      Root chosen for geometry opt.              7
      CI roots used                              1     2     3     4     5     6     7
      weights                                0.143 0.143 0.143 0.143 0.143 0.143 0.143
      highest root included in the CI            7
      max. size of the explicit Hamiltonian    200
--
 
++    Optimization specifications:
      ----------------------------
 
      RASSCF algorithm: Conventional
      Maximum number of macro iterations        64
      Maximum number of SX iterations           25
      Threshold for RASSCF energy            0.100E-07
      Threshold for max MO rotation          0.100E+00
      Threshold for max BLB element          0.100E-03
      Level shift parameter                  0.300E+00
      Make Quasi-Newton update
--
 
      The MO-coefficients are taken from the file:
      /home/pcaah4/diamide_project/cas/ras12i11/ras_orb/orca_geometry_optimisation_45_285_BP86_def2-SVP_def2J_scf_cas1_ras12i11.RasOrb                                                                                                                                
      Title: RASSCF average (pseudo-natural) orbitals                                      
 
      Total molecular charge    0.00
 
      ************************************************************************************************************************
      *                                                                                                                      *
      *                                            Wave function control section                                             *
      *                                                                                                                      *
      ************************************************************************************************************************
 
 
                                         RASSCF iterations: Energy and convergence statistics
                                         ----------------------------------------------------
 
      Iter CI   SX   CI       RASSCF       Energy    max ROT     max BLB   max BLB  Level Ln srch  Step   QN   Walltime
          iter iter root      energy       change     param      element    value   shift minimum  type update hh:mm:ss
 Nr of preliminary CI iterations:   5
        1   1   16    0  -453.70024885    0.00E+00  -0.36E-01   34  39 1  0.22E-01*  0.18   0.00    SX    NO    0:00:13
        2   4   11    0  -453.70783972   -0.76E-02*  0.16E-01   34  39 1  0.52E-02*  0.18   0.00    SX    NO    0:00:06
        3   1   12    0  -453.70857254   -0.73E-03*  0.83E-02   34  39 1  0.33E-02*  0.18   0.00    SX    NO    0:00:06
        4   5   12    0  -453.70892830   -0.36E-03* -0.43E-02   30  38 1  0.20E-02*  0.18   0.00    SX    NO    0:00:06
        5   3   11    0  -453.70901452   -0.86E-04* -0.51E-02   34  39 1  0.65E-03*  0.18   1.30    QN   YES    0:00:06
        6   5   10    0  -453.70905087   -0.36E-04*  0.15E-02   33  40 1  0.32E-03*  0.18   1.17    QN   YES    0:00:06
        7   3    9    0  -453.70905441   -0.35E-05* -0.79E-03   21  97 1 -0.22E-03*  0.18   1.29    QN   YES    0:00:06
        8   5    9    0  -453.70905536   -0.95E-06*  0.28E-03   34  39 1 -0.10E-03*  0.18   0.98    QN   YES    0:00:06
        9   4    8    0  -453.70905556   -0.20E-06* -0.27E-03   21  97 1 -0.23E-04   0.18   1.50    QN   YES    0:00:06
       10   3    7    0  -453.70905561   -0.51E-07* -0.94E-04   34  39 1  0.18E-04   0.18   1.08    QN   YES    0:00:06
       11   1    6    0  -453.70905562   -0.90E-08  -0.11E-03   34  39 1  0.13E-04   0.18   1.91    QN   YES    0:00:06
      Convergence after 11 iterations
       12   3    6    0  -453.70905562   -0.52E-08  -0.11E-03   37  41 1 -0.29E-05   0.18   1.91    QN   YES    0:00:06
 
      ************************************************************************************************************************
                                                      Wave function printout:
                       occupation of active orbitals, and spin coupling of open shells (u,d: Spin up or down)
      ************************************************************************************************************************
 
      Note: transformation to natural orbitals
      has been made, which may change the order of the CSFs.
 
      printout of CI-coefficients larger than  0.05 for root  1
      energy=    -453.952264
      conf/sym  11111111     Coeff  Weight
             1  22222200   0.96087 0.92328
             2  22222ud0   0.09239 0.00854
             4  22222020  -0.09704 0.00942
            61  2u2222d0  -0.09323 0.00869
            62  2u222d20   0.07053 0.00497
            84  u222220d  -0.11725 0.01375
           145  22022202  -0.08045 0.00647
           171  20222220  -0.09838 0.00968
           195  02222202  -0.07625 0.00581
 
      printout of CI-coefficients larger than  0.05 for root  2
      energy=    -453.749103
      conf/sym  11111111     Coeff  Weight
             2  22222ud0  -0.10359 0.01073
             3  2222u2d0  -0.94889 0.90040
             5  2222ud20   0.13757 0.01892
            63  2u22d220  -0.16545 0.02737
            86  u222d2ud   0.06358 0.00404
            88  u222u2dd   0.10224 0.01045
           147  2202u2d2   0.08093 0.00655
           197  0222u2d2   0.07617 0.00580
 
      printout of CI-coefficients larger than  0.05 for root  3
      energy=    -453.728823
      conf/sym  11111111     Coeff  Weight
             7  22222u0d  -0.13667 0.01868
            24  222u220d  -0.94260 0.88850
            25  222u2dud  -0.05782 0.00334
            27  222u2udd  -0.10167 0.01034
            29  222u202d   0.08819 0.00778
           115  22ud2202  -0.15527 0.02411
           135  u22d2202  -0.11704 0.01370
           207  2u2u22dd  -0.07180 0.00516
           208  2u2u2d2d   0.06450 0.00416
           261  202u222d  -0.10024 0.01005
 
      printout of CI-coefficients larger than  0.05 for root  4
      energy=    -453.659778
      conf/sym  11111111     Coeff  Weight
             2  22222ud0   0.33487 0.11214
             4  22222020   0.08418 0.00709
             7  22222u0d  -0.41521 0.17240
             8  2222u20d  -0.50733 0.25739
            10  2222udud   0.08866 0.00786
            12  2222uudd   0.11879 0.01411
            24  222u220d   0.07348 0.00540
            44  22u2220d  -0.57870 0.33490
            47  22u22udd  -0.05635 0.00318
            49  22u2202d   0.07009 0.00491
            61  2u2222d0   0.05824 0.00339
            62  2u222d20   0.07391 0.00546
            65  2u222dud  -0.05979 0.00357
            67  2u222udd  -0.06904 0.00477
           165  u2d22202  -0.14535 0.02113
           173  20222u2d  -0.05810 0.00338
           219  2uu222dd  -0.06928 0.00480
           293  20u2222d  -0.05737 0.00329
 
      printout of CI-coefficients larger than  0.05 for root  5
      energy=    -453.637264
      conf/sym  11111111     Coeff  Weight
             2  22222ud0  -0.38272 0.14647
             4  22222020  -0.09926 0.00985
             7  22222u0d  -0.81753 0.66835
             8  2222u20d   0.19149 0.03667
            12  2222uudd  -0.05777 0.00334
            24  222u220d   0.10940 0.01197
            44  22u2220d   0.17535 0.03075
            62  2u222d20  -0.08590 0.00738
            65  2u222dud  -0.14559 0.02120
            67  2u222udd  -0.13116 0.01720
            87  u2222udd   0.05931 0.00352
            93  u2222d02  -0.05476 0.00300
           171  20222220   0.05582 0.00312
           173  20222u2d  -0.11259 0.01268
 
      printout of CI-coefficients larger than  0.05 for root  6
      energy=    -453.626588
      conf/sym  11111111     Coeff  Weight
             1  22222200   0.07615 0.00580
             2  22222ud0  -0.75442 0.56915
             3  2222u2d0   0.09610 0.00923
             4  22222020  -0.17593 0.03095
             7  22222u0d   0.22782 0.05190
             8  2222u20d  -0.30653 0.09396
            41  22u222d0   0.05121 0.00262
            44  22u2220d  -0.36608 0.13401
            45  22u22dud  -0.05582 0.00312
            61  2u2222d0  -0.06379 0.00407
            62  2u222d20  -0.17457 0.03047
            67  2u222udd   0.05802 0.00337
            85  u2222dud   0.05098 0.00260
            87  u2222udd   0.07793 0.00607
           146  22022ud2   0.06889 0.00475
           165  u2d22202  -0.08632 0.00745
           171  20222220   0.10113 0.01023
           196  02222ud2   0.05445 0.00296
 
      printout of CI-coefficients larger than  0.05 for root  7
      energy=    -453.609569
      conf/sym  11111111     Coeff  Weight
             8  2222u20d   0.67315 0.45313
            10  2222udud  -0.17880 0.03197
            12  2222uudd  -0.25004 0.06252
            44  22u2220d  -0.61383 0.37679
            46  22u2d2ud  -0.07956 0.00633
            48  22u2u2dd   0.05541 0.00307
            49  22u2202d   0.05954 0.00355
            61  2u2222d0   0.07672 0.00589
            71  2u22ud2d   0.06817 0.00465
           165  u2d22202  -0.13949 0.01946
           174  2022u22d   0.05403 0.00292
           293  20u2222d  -0.06026 0.00363
 
      Natural orbitals and occupation numbers for root  1
      sym 1:   1.971235   1.948660   1.993892   1.999894   1.999634   1.994832   0.056821   0.035031
 
      Natural orbitals and occupation numbers for root  2
      sym 1:   1.970115   1.993620   1.999650   1.999860   1.010134   1.999018   0.991743   0.035860
 
      Natural orbitals and occupation numbers for root  3
      sym 1:   1.999883   1.995636   1.999278   1.017868   1.999667   1.946731   0.057569   0.983367
 
      Natural orbitals and occupation numbers for root  4
      sym 1:   1.989925   1.941327   1.132097   1.999566   1.970366   1.854694   0.197704   0.914321
 
      Natural orbitals and occupation numbers for root  5
      sym 1:   1.992145   1.916148   1.980799   1.998259   1.998773   1.041136   0.105866   0.966874
 
      Natural orbitals and occupation numbers for root  6
      sym 1:   1.974350   1.943774   1.802791   1.999295   1.992351   1.213304   0.832343   0.241793
 
      Natural orbitals and occupation numbers for root  7
      sym 1:   1.990759   1.969045   1.930671   1.999549   1.098698   1.901364   0.118757   0.991157
 
      ************************************************************************************************************************
      *                                                                                                                      *
      *                                                    Final results                                                     *
      *                                                                                                                      *
      ************************************************************************************************************************
 
 
++    Wave function specifications:
      -----------------------------
 
      Number of closed shell electrons          58
      Number of electrons in active shells      12
      Max number of holes in RAS1 space          0
      Max nr of electrons in RAS3 space          0
      Number of inactive orbitals               29
      Number of active orbitals                  8
      Number of secondary orbitals             172
      Spin quantum number                      0.0
      State symmetry                             1
--
 
++    Orbital specifications:
      -----------------------
 
      Symmetry species                           1
                                                 a
      Frozen orbitals                            0
      Inactive orbitals                         29
      Active orbitals                            8
      RAS1 orbitals                              0
      RAS2 orbitals                              8
      RAS3 orbitals                              0
      Secondary orbitals                       172
      Deleted orbitals                           3
      Number of basis functions                212
--
 
++    CI expansion specifications:
      ----------------------------
 
      Number of CSFs                           336
      Number of determinants                   406
      Number of root(s) required                 7
      CI roots used                              1     2     3     4     5     6     7
      weights                                0.143 0.143 0.143 0.143 0.143 0.143 0.143
      highest root included in the CI            7
      Root passed to geometry opt.               7
--
 
++    Final optimization conditions:
      ------------------------------
 
      Average CI energy                            -453.70905562
      RASSCF energy for state  7                   -453.60956934
      Super-CI energy                                -0.00000000
      RASSCF energy change                            0.00000000
      Max change in MO coefficients               0.124E-03
      Max non-diagonal density matrix element    -0.113E-03
      Maximum BLB matrix element                 -0.293E-05
      (orbital pair  37,  41 in symmetry   1)
      Norm of electronic gradient            0.247E+00
--
 
 
      Final state energy(ies):
      ------------------------
 
::    RASSCF root number  1 Total energy:   -453.95226358
::    RASSCF root number  2 Total energy:   -453.74910284
::    RASSCF root number  3 Total energy:   -453.72882303
::    RASSCF root number  4 Total energy:   -453.65977820
::    RASSCF root number  5 Total energy:   -453.63726431
::    RASSCF root number  6 Total energy:   -453.62658805
::    RASSCF root number  7 Total energy:   -453.60956934
 
++    Molecular orbitals:
      -------------------
 
      Pseudonatural active orbitals and approximate occupation numbers
 
 
 
 
      Molecular orbitals for symmetry species 1: a  
 
 
      Orbital                 1         2         3         4         5         6         7         8         9        10
      Energy           -20.6003  -20.5222  -15.6253  -15.5935  -11.3396  -11.2975  -11.2847  -11.2825  -11.2251   -1.4225
      Occ. No.           2.0000    2.0000    2.0000    2.0000    2.0000    2.0000    2.0000    2.0000    2.0000    2.0000
 
     1 C1     1s         0.0000    0.0002   -0.0001    0.0002   -0.0002   -0.0008   -0.0001    0.9999   -0.0054   -0.0009
     2 C1     2s         0.0003    0.0005   -0.0010    0.0010   -0.0010   -0.0010   -0.0003    0.0019   -0.0004    0.0276
     3 C1     3s         0.0002   -0.0007   -0.0008    0.0004   -0.0008   -0.0008   -0.0003   -0.0004   -0.0007    0.0102
     4 C1     4s         0.0000   -0.0004   -0.0002    0.0001   -0.0002   -0.0003   -0.0001    0.0013   -0.0002    0.0043
     5 C1     2px       -0.0005   -0.0013    0.0002    0.0018   -0.0001   -0.0004   -0.0002    0.0013   -0.0002    0.0141
     6 C1     3px       -0.0008   -0.0008    0.0001    0.0014   -0.0001   -0.0006   -0.0003    0.0011    0.0001    0.0224
     7 C1     4px       -0.0003    0.0001   -0.0000   -0.0001    0.0000   -0.0002   -0.0001    0.0004    0.0002    0.0058
     8 C1     2py        0.0000    0.0025    0.0002    0.0002   -0.0000    0.0000   -0.0004    0.0009   -0.0007    0.0208
     9 C1     3py       -0.0001    0.0017    0.0002    0.0000   -0.0001   -0.0004   -0.0005    0.0009    0.0002    0.0221
    10 C1     4py       -0.0001   -0.0004    0.0000   -0.0001   -0.0001   -0.0003   -0.0001    0.0007    0.0003    0.0069
    11 C1     2pz       -0.0001   -0.0006   -0.0001    0.0003   -0.0002   -0.0000    0.0001   -0.0001    0.0001    0.0011
    12 C1     3pz       -0.0001   -0.0003   -0.0001    0.0002   -0.0003    0.0000    0.0000    0.0002    0.0000    0.0036
    13 C1     4pz       -0.0000    0.0001   -0.0000   -0.0001   -0.0001    0.0001   -0.0000   -0.0001   -0.0000    0.0014
    14 C1     3d2-       0.0000    0.0002    0.0000    0.0001   -0.0000   -0.0000    0.0000   -0.0003    0.0000   -0.0013
    15 C1     3d1-       0.0000    0.0000   -0.0000    0.0000    0.0000    0.0000    0.0000   -0.0001    0.0000   -0.0009
    16 C1     3d0       -0.0000   -0.0000    0.0000    0.0001    0.0000   -0.0001    0.0000   -0.0003    0.0001   -0.0015
    17 C1     3d1+       0.0000   -0.0000   -0.0000    0.0000   -0.0000    0.0000   -0.0000    0.0001   -0.0000    0.0006
    18 C1     3d2+       0.0000    0.0000    0.0000   -0.0002    0.0000    0.0000    0.0000    0.0001   -0.0001   -0.0000
    19 C3     1s         0.0001    0.0001    0.0001    0.0005    0.0063    0.9995   -0.0000    0.0008    0.0001   -0.0121
    20 C3     2s         0.0005    0.0009    0.0008    0.0030    0.0001   -0.0014    0.0006    0.0007    0.0005    0.0095
    21 C3     3s         0.0003    0.0005    0.0006    0.0016   -0.0002   -0.0026    0.0004    0.0004    0.0003   -0.0352
    22 C3     4s         0.0000    0.0001    0.0001    0.0002    0.0000    0.0007    0.0000    0.0000    0.0000   -0.0050
    23 C3     2px       -0.0008   -0.0002    0.0003   -0.0008    0.0004   -0.0000   -0.0005    0.0006    0.0001    0.0200
    24 C3     3px       -0.0006   -0.0001    0.0003   -0.0002    0.0006   -0.0001   -0.0005    0.0008    0.0002    0.0245
    25 C3     4px        0.0001    0.0000    0.0000    0.0003    0.0000   -0.0006   -0.0000    0.0002    0.0001   -0.0033
    26 C3     2py       -0.0002   -0.0001   -0.0004   -0.0004   -0.0000   -0.0004    0.0002    0.0001   -0.0001    0.0090
    27 C3     3py       -0.0003   -0.0002   -0.0004    0.0002   -0.0005   -0.0003    0.0000    0.0001   -0.0001   -0.0003
    28 C3     4py       -0.0001   -0.0000   -0.0001    0.0002   -0.0002   -0.0004   -0.0001   -0.0000   -0.0000    0.0070
    29 C3     2pz       -0.0007   -0.0004    0.0006    0.0003    0.0004   -0.0003   -0.0001    0.0004   -0.0001    0.0298
    30 C3     3pz       -0.0008   -0.0005    0.0005    0.0003    0.0000   -0.0002   -0.0003    0.0005   -0.0001    0.0050
    31 C3     4pz       -0.0001   -0.0000   -0.0001   -0.0000   -0.0001    0.0002   -0.0001    0.0001    0.0000    0.0025
    32 C3     3d2-      -0.0001    0.0000   -0.0000    0.0000    0.0000   -0.0001   -0.0000    0.0000    0.0000    0.0025
    33 C3     3d1-      -0.0000   -0.0000    0.0000   -0.0000    0.0000   -0.0001    0.0000    0.0000   -0.0000    0.0042
    34 C3     3d0       -0.0001    0.0000    0.0000    0.0001    0.0000    0.0000    0.0000   -0.0000   -0.0000    0.0024
    35 C3     3d1+      -0.0000   -0.0000    0.0001   -0.0001   -0.0001    0.0001   -0.0000    0.0000    0.0000   -0.0009
    36 C3     3d2+       0.0001   -0.0000    0.0000    0.0000   -0.0000    0.0001   -0.0000    0.0001   -0.0000   -0.0027
    37 C4     1s         0.0004   -0.0000    0.0003   -0.0001    1.0000   -0.0063    0.0001   -0.0001   -0.0000   -0.0405
    38 C4     2s         0.0013   -0.0001    0.0011   -0.0009    0.0024    0.0010   -0.0003   -0.0009   -0.0004    0.3429
    39 C4     3s        -0.0002   -0.0001    0.0004   -0.0005   -0.0001    0.0004   -0.0003   -0.0007   -0.0003   -0.0139
    40 C4     4s        -0.0003   -0.0000    0.0001   -0.0001    0.0012    0.0001   -0.0001   -0.0002   -0.0001    0.0011
    41 C4     2px        0.0017    0.0003   -0.0014   -0.0004   -0.0006    0.0007    0.0002   -0.0005   -0.0000    0.0380
    42 C4     3px        0.0012    0.0005   -0.0009   -0.0003   -0.0007    0.0007    0.0006   -0.0006   -0.0000   -0.0360
    43 C4     4px       -0.0001    0.0001    0.0002    0.0000   -0.0002    0.0001    0.0003   -0.0000    0.0000    0.0107
    44 C4     2py        0.0006   -0.0002    0.0010    0.0007    0.0011   -0.0008    0.0001    0.0006    0.0003    0.0410
    45 C4     3py        0.0004   -0.0002    0.0007    0.0006    0.0007   -0.0002   -0.0004    0.0008    0.0004   -0.0140
    46 C4     4py       -0.0001   -0.0000   -0.0001   -0.0000    0.0005    0.0002   -0.0004    0.0001    0.0001    0.0084
    47 C4     2pz        0.0025    0.0001   -0.0003   -0.0001    0.0003   -0.0008    0.0001   -0.0002    0.0001    0.0977
    48 C4     3pz        0.0018    0.0003   -0.0004   -0.0002    0.0001   -0.0005   -0.0002   -0.0001    0.0002   -0.0511
    49 C4     4pz       -0.0003    0.0001   -0.0001   -0.0000    0.0003    0.0000   -0.0003    0.0000    0.0000    0.0242
    50 C4     3d2-      -0.0001   -0.0000    0.0001    0.0001   -0.0001    0.0001   -0.0001   -0.0000    0.0000    0.0012
    51 C4     3d1-       0.0000   -0.0000    0.0001   -0.0000    0.0001    0.0000    0.0000   -0.0000   -0.0000    0.0127
    52 C4     3d0       -0.0001    0.0000    0.0000   -0.0000    0.0002   -0.0000   -0.0000   -0.0000   -0.0000    0.0221
    53 C4     3d1+      -0.0001   -0.0000   -0.0002   -0.0001    0.0005   -0.0000    0.0000   -0.0000   -0.0000    0.0350
    54 C4     3d2+      -0.0000    0.0000   -0.0001    0.0001    0.0002   -0.0001    0.0000    0.0000   -0.0000    0.0112
    55 C6     1s         0.0001    0.0001    0.0004   -0.0001   -0.0001    0.0002    0.9997    0.0001    0.0000   -0.0079
    56 C6     2s         0.0006    0.0003    0.0018   -0.0007    0.0004    0.0004   -0.0001    0.0002    0.0002    0.0215
    57 C6     3s         0.0004    0.0002    0.0006   -0.0006    0.0000    0.0003   -0.0017   -0.0000    0.0001   -0.0113
    58 C6     4s         0.0001    0.0000   -0.0000   -0.0002   -0.0001    0.0000    0.0009   -0.0001    0.0000   -0.0000
    59 C6     2px        0.0003   -0.0001    0.0003   -0.0000   -0.0003    0.0002    0.0000   -0.0001    0.0000    0.0102
    60 C6     3px        0.0002   -0.0001   -0.0001   -0.0000   -0.0005    0.0001   -0.0000   -0.0002   -0.0000   -0.0035
    61 C6     4px       -0.0001   -0.0000   -0.0001   -0.0000   -0.0002   -0.0001    0.0003   -0.0001   -0.0000    0.0024
    62 C6     2py        0.0000   -0.0001   -0.0004    0.0001    0.0002   -0.0002   -0.0000    0.0000   -0.0000   -0.0199
    63 C6     3py        0.0000   -0.0000    0.0001    0.0000    0.0003   -0.0001    0.0002    0.0001   -0.0000   -0.0033
    64 C6     4py        0.0000    0.0000    0.0002   -0.0000    0.0001    0.0000   -0.0005    0.0000    0.0000   -0.0018
    65 C6     2pz       -0.0001    0.0000   -0.0004    0.0003   -0.0000   -0.0000   -0.0001    0.0000    0.0000   -0.0040
    66 C6     3pz       -0.0001    0.0000   -0.0000    0.0003   -0.0001    0.0000    0.0002    0.0001    0.0000    0.0049
    67 C6     4pz       -0.0000    0.0000    0.0001   -0.0000   -0.0001    0.0000   -0.0004    0.0000    0.0000   -0.0016
    68 C6     3d2-      -0.0000   -0.0000    0.0000    0.0000   -0.0001   -0.0000    0.0000   -0.0000    0.0000   -0.0024
    69 C6     3d1-       0.0000    0.0000   -0.0001   -0.0000   -0.0000    0.0000   -0.0001   -0.0000    0.0000    0.0032
    70 C6     3d0       -0.0000   -0.0000   -0.0001   -0.0000   -0.0000    0.0000   -0.0000    0.0000    0.0000   -0.0007
    71 C6     3d1+      -0.0000   -0.0000   -0.0000    0.0000    0.0000   -0.0000    0.0000    0.0000    0.0000   -0.0019
    72 C6     3d2+       0.0000   -0.0000   -0.0000    0.0000    0.0000   -0.0000    0.0000    0.0000    0.0000   -0.0008
    73 C19    1s        -0.0000    0.0001    0.0000   -0.0000    0.0001    0.0001   -0.0000    0.0053    1.0000   -0.0003
    74 C19    2s        -0.0002    0.0009    0.0003   -0.0001    0.0004    0.0005   -0.0001    0.0005    0.0020    0.0036
    75 C19    3s        -0.0002    0.0005    0.0002   -0.0000    0.0003    0.0002   -0.0001    0.0001   -0.0004    0.0047
    76 C19    4s        -0.0001    0.0000    0.0000   -0.0001    0.0000   -0.0000   -0.0001    0.0000    0.0012    0.0030
    77 C19    2px        0.0002    0.0008    0.0001   -0.0004    0.0000    0.0002   -0.0001   -0.0002   -0.0001   -0.0013
    78 C19    3px        0.0002    0.0005    0.0001   -0.0003    0.0000    0.0002   -0.0001   -0.0003   -0.0000   -0.0021
    79 C19    4px        0.0000   -0.0002   -0.0000   -0.0000   -0.0000    0.0000    0.0000   -0.0001    0.0002   -0.0002
    80 C19    2py       -0.0002   -0.0001    0.0001    0.0003    0.0001    0.0002   -0.0000    0.0003   -0.0004    0.0060
    81 C19    3py       -0.0003   -0.0002    0.0001    0.0003    0.0001    0.0000   -0.0000   -0.0002   -0.0001    0.0055
    82 C19    4py       -0.0000   -0.0001   -0.0000   -0.0001   -0.0000   -0.0001   -0.0000   -0.0001    0.0003    0.0010
    83 C19    2pz        0.0001    0.0000    0.0001   -0.0002    0.0001   -0.0002   -0.0000   -0.0002    0.0000   -0.0039
    84 C19    3pz        0.0001    0.0000    0.0001   -0.0002    0.0001   -0.0001    0.0000   -0.0002   -0.0000   -0.0047
    85 C19    4pz        0.0000    0.0000    0.0000    0.0000    0.0000    0.0000    0.0000    0.0000   -0.0000   -0.0007
    86 C19    3d2-      -0.0000    0.0001    0.0000   -0.0000    0.0000    0.0001    0.0000    0.0000   -0.0001   -0.0000
    87 C19    3d1-       0.0000    0.0000   -0.0000   -0.0000    0.0000    0.0000   -0.0000    0.0000    0.0000   -0.0000
    88 C19    3d0       -0.0000   -0.0001   -0.0000   -0.0001   -0.0000   -0.0000    0.0000    0.0001    0.0001    0.0002
    89 C19    3d1+       0.0000    0.0000   -0.0000    0.0000    0.0000    0.0000   -0.0000   -0.0000    0.0000   -0.0000
    90 C19    3d2+      -0.0000    0.0001   -0.0000   -0.0000   -0.0000   -0.0000    0.0000   -0.0001    0.0001   -0.0002
    91 N2     1s        -0.0000    0.0000   -0.0000    0.9997    0.0001    0.0002    0.0000   -0.0003    0.0001   -0.0021
    92 N2     2s        -0.0000    0.0003   -0.0003   -0.0006    0.0007    0.0020    0.0001   -0.0004    0.0005    0.0237
    93 N2     3s         0.0000    0.0002   -0.0002   -0.0018    0.0006    0.0012    0.0000   -0.0005    0.0003   -0.0035
    94 N2     4s         0.0000    0.0000   -0.0000    0.0003    0.0002    0.0004    0.0000   -0.0000    0.0001   -0.0009
    95 N2     2px        0.0001    0.0002   -0.0002    0.0003   -0.0002    0.0003   -0.0000   -0.0003   -0.0003   -0.0017
    96 N2     3px       -0.0001    0.0001   -0.0004    0.0002   -0.0004    0.0000   -0.0001   -0.0003   -0.0003    0.0016
    97 N2     4px       -0.0001   -0.0000   -0.0001   -0.0002   -0.0000   -0.0000   -0.0000   -0.0003    0.0001    0.0015
    98 N2     2py       -0.0004   -0.0013   -0.0001   -0.0007    0.0003    0.0008   -0.0000    0.0003   -0.0002    0.0116
    99 N2     3py       -0.0006   -0.0015   -0.0002    0.0001    0.0004    0.0006   -0.0000    0.0002   -0.0001    0.0049
   100 N2     4py       -0.0001   -0.0000    0.0000    0.0007   -0.0000    0.0001    0.0000   -0.0001    0.0001   -0.0007
   101 N2     2pz        0.0002    0.0003   -0.0001    0.0003    0.0000    0.0002    0.0000   -0.0002    0.0001    0.0012
   102 N2     3pz        0.0002    0.0004   -0.0001   -0.0002    0.0001    0.0001    0.0001    0.0000    0.0001   -0.0003
   103 N2     4pz        0.0000   -0.0000    0.0000    0.0004    0.0000   -0.0000    0.0000    0.0001    0.0000    0.0010
   104 N2     3d2-       0.0000    0.0001    0.0000   -0.0002    0.0000   -0.0000    0.0000   -0.0001   -0.0000   -0.0001
   105 N2     3d1-       0.0000   -0.0000   -0.0000   -0.0001    0.0000    0.0000   -0.0000    0.0001   -0.0000    0.0002
   106 N2     3d0        0.0000   -0.0000    0.0000    0.0001   -0.0000    0.0000   -0.0000    0.0001   -0.0001   -0.0008
   107 N2     3d1+       0.0000   -0.0000   -0.0000    0.0000   -0.0000   -0.0000    0.0000   -0.0000    0.0000    0.0002
   108 N2     3d2+      -0.0000   -0.0001   -0.0000    0.0001   -0.0000   -0.0000   -0.0000    0.0001    0.0000    0.0002
   109 N5     1s         0.0001   -0.0000    0.9998   -0.0001   -0.0003    0.0000    0.0001   -0.0001    0.0000   -0.0175
   110 N5     2s         0.0010   -0.0003   -0.0003   -0.0003   -0.0004    0.0001    0.0017   -0.0004    0.0000    0.1109
   111 N5     3s         0.0007   -0.0002   -0.0015   -0.0003   -0.0005    0.0001    0.0010   -0.0003    0.0000   -0.0456
   112 N5     4s         0.0002   -0.0000    0.0005   -0.0001   -0.0000    0.0000    0.0004   -0.0001    0.0000   -0.0107
   113 N5     2px       -0.0003    0.0002   -0.0003   -0.0003    0.0003    0.0001   -0.0007   -0.0000    0.0000    0.0280
   114 N5     3px       -0.0003    0.0002   -0.0001   -0.0005    0.0001   -0.0000   -0.0005   -0.0000    0.0000   -0.0085
   115 N5     4px       -0.0000   -0.0000    0.0001   -0.0001    0.0002   -0.0001    0.0000    0.0000   -0.0000    0.0047
   116 N5     2py       -0.0009    0.0002   -0.0006    0.0004   -0.0001   -0.0002    0.0006    0.0000   -0.0001    0.0098
   117 N5     3py       -0.0009    0.0003   -0.0004    0.0005   -0.0005   -0.0002    0.0004    0.0000   -0.0002    0.0269
   118 N5     4py        0.0001   -0.0000   -0.0001   -0.0000   -0.0003    0.0000    0.0001    0.0000    0.0000   -0.0045
   119 N5     2pz       -0.0012    0.0000   -0.0006    0.0003    0.0001   -0.0000    0.0005   -0.0001   -0.0001    0.0368
   120 N5     3pz       -0.0013    0.0000   -0.0005    0.0003   -0.0002    0.0000    0.0006   -0.0001   -0.0002    0.0018
   121 N5     4pz        0.0000   -0.0000    0.0006    0.0000   -0.0001    0.0000    0.0002   -0.0000   -0.0000   -0.0026
   122 N5     3d2-      -0.0000   -0.0000    0.0001    0.0000    0.0001   -0.0000    0.0001    0.0000   -0.0000   -0.0022
   123 N5     3d1-       0.0001   -0.0001    0.0000   -0.0000   -0.0002    0.0000   -0.0000   -0.0000   -0.0000   -0.0022
   124 N5     3d0       -0.0000    0.0000    0.0000    0.0000   -0.0000   -0.0000   -0.0000    0.0000   -0.0000   -0.0000
   125 N5     3d1+      -0.0000   -0.0000    0.0001   -0.0000   -0.0000    0.0000   -0.0000    0.0000    0.0000    0.0043
   126 N5     3d2+      -0.0000    0.0000    0.0000    0.0000    0.0001    0.0000   -0.0000    0.0000    0.0000    0.0033
   127 O7     1s        -0.0000    0.9998    0.0000    0.0000   -0.0000   -0.0000    0.0000   -0.0002    0.0001   -0.0015
   128 O7     2s        -0.0001   -0.0011    0.0000    0.0003   -0.0001   -0.0002    0.0002    0.0006    0.0004    0.0248
   129 O7     3s        -0.0000   -0.0011    0.0000    0.0002   -0.0000   -0.0001    0.0002    0.0001    0.0003   -0.0036
   130 O7     4s         0.0000    0.0002   -0.0000    0.0000   -0.0000    0.0000    0.0001    0.0000    0.0001   -0.0013
   131 O7     2px        0.0001    0.0002   -0.0001   -0.0003   -0.0001   -0.0000    0.0001    0.0005    0.0001    0.0027
   132 O7     3px        0.0002   -0.0003   -0.0001   -0.0004   -0.0001    0.0001    0.0001   -0.0000    0.0001   -0.0045
   133 O7     4px        0.0001    0.0009   -0.0000   -0.0001   -0.0000    0.0000    0.0000    0.0001   -0.0000   -0.0007
   134 O7     2py        0.0001   -0.0003   -0.0003   -0.0003   -0.0000    0.0000    0.0000   -0.0007   -0.0002   -0.0022
   135 O7     3py        0.0001    0.0002   -0.0004   -0.0004   -0.0001    0.0000    0.0000   -0.0005   -0.0002    0.0011
   136 O7     4py        0.0000   -0.0009   -0.0000   -0.0000   -0.0000    0.0000    0.0000   -0.0003    0.0000   -0.0002
   137 O7     2pz        0.0001    0.0001   -0.0000    0.0000   -0.0000   -0.0000   -0.0001   -0.0000    0.0000    0.0027
   138 O7     3pz        0.0001   -0.0001   -0.0000   -0.0000   -0.0000   -0.0000   -0.0001    0.0001    0.0000   -0.0003
   139 O7     4pz        0.0000    0.0003   -0.0000   -0.0000    0.0000    0.0000   -0.0000    0.0001   -0.0000    0.0001
   140 O7     3d2-      -0.0000    0.0001   -0.0000    0.0000    0.0000    0.0000    0.0000   -0.0002   -0.0000   -0.0006
   141 O7     3d1-       0.0000    0.0000   -0.0000   -0.0000    0.0000    0.0000   -0.0000   -0.0001   -0.0000   -0.0002
   142 O7     3d0       -0.0000    0.0000    0.0000   -0.0000    0.0000   -0.0000   -0.0000   -0.0001   -0.0000   -0.0004
   143 O7     3d1+       0.0000   -0.0000    0.0000   -0.0000   -0.0000   -0.0000   -0.0000    0.0000    0.0000    0.0003
   144 O7     3d2+      -0.0000    0.0000    0.0000   -0.0001    0.0000   -0.0000    0.0000   -0.0000   -0.0000   -0.0000
   145 O8     1s         0.9997    0.0000    0.0000    0.0000   -0.0003    0.0000   -0.0000    0.0001    0.0000   -0.0238
   146 O8     2s        -0.0014    0.0001    0.0001    0.0002    0.0003    0.0002   -0.0003    0.0005    0.0001    0.6924
   147 O8     3s        -0.0013    0.0000    0.0001    0.0001   -0.0000    0.0001   -0.0001    0.0004    0.0001   -0.0346
   148 O8     4s         0.0001    0.0000   -0.0000    0.0000    0.0000    0.0000   -0.0000    0.0001    0.0000   -0.0141
   149 O8     2px       -0.0002   -0.0001    0.0002   -0.0000   -0.0003   -0.0001    0.0001   -0.0000   -0.0000   -0.0774
   150 O8     3px        0.0002   -0.0001    0.0003    0.0000    0.0000   -0.0002    0.0000   -0.0000   -0.0000    0.0239
   151 O8     4px       -0.0008   -0.0000    0.0001    0.0000   -0.0001   -0.0000   -0.0000    0.0000   -0.0000    0.0013
   152 O8     2py       -0.0001   -0.0000   -0.0003   -0.0000    0.0000    0.0000   -0.0000   -0.0001   -0.0001   -0.0214
   153 O8     3py        0.0001   -0.0000   -0.0002   -0.0000   -0.0001    0.0000   -0.0000   -0.0001   -0.0001    0.0067
   154 O8     4py       -0.0002   -0.0000    0.0000    0.0000   -0.0001    0.0000   -0.0000   -0.0000   -0.0000   -0.0012
   155 O8     2pz       -0.0002   -0.0001   -0.0000    0.0000   -0.0006   -0.0000    0.0001   -0.0001   -0.0000   -0.1243
   156 O8     3pz        0.0005   -0.0001    0.0001    0.0001   -0.0002   -0.0000    0.0000    0.0000   -0.0000    0.0358
   157 O8     4pz       -0.0011   -0.0000    0.0001    0.0001   -0.0003    0.0001   -0.0000    0.0001    0.0000    0.0001
   158 O8     3d2-      -0.0001   -0.0000   -0.0000    0.0000    0.0001   -0.0000   -0.0000    0.0000    0.0000    0.0036
   159 O8     3d1-       0.0000    0.0000    0.0001    0.0000   -0.0000    0.0000    0.0000    0.0000    0.0000    0.0050
   160 O8     3d0       -0.0000    0.0000    0.0000   -0.0000    0.0001    0.0000   -0.0000   -0.0000   -0.0000    0.0120
   161 O8     3d1+      -0.0000    0.0000   -0.0000   -0.0000    0.0001    0.0000   -0.0000    0.0000    0.0000    0.0166
   162 O8     3d2+      -0.0000    0.0000   -0.0000    0.0000    0.0000    0.0000   -0.0000    0.0000   -0.0000    0.0047
   163 H9     1s        -0.0000    0.0002    0.0001   -0.0001   -0.0001   -0.0003   -0.0002   -0.0001    0.0003    0.0060
   164 H9     2s        -0.0000    0.0001    0.0001   -0.0001   -0.0001   -0.0002   -0.0001   -0.0001   -0.0003    0.0043
   165 H9     2px       -0.0000   -0.0000    0.0000    0.0000   -0.0000   -0.0000   -0.0000    0.0000   -0.0000    0.0006
   166 H9     2py       -0.0000   -0.0000   -0.0000   -0.0000   -0.0000   -0.0000   -0.0000    0.0001    0.0000    0.0005
   167 H9     2pz       -0.0000    0.0000    0.0000   -0.0000   -0.0000   -0.0000   -0.0000    0.0000   -0.0001    0.0006
   168 H10    1s        -0.0001    0.0002    0.0001    0.0002   -0.0000   -0.0000   -0.0001    0.0002    0.0003    0.0081
   169 H10    2s        -0.0001    0.0001    0.0001    0.0001   -0.0000   -0.0000   -0.0001    0.0001   -0.0003    0.0056
   170 H10    2px       -0.0000   -0.0000    0.0000    0.0000    0.0000   -0.0000   -0.0000    0.0000   -0.0000    0.0006
   171 H10    2py       -0.0000   -0.0001    0.0000   -0.0000    0.0000   -0.0000    0.0000    0.0000    0.0000    0.0000
   172 H10    2pz        0.0000   -0.0000   -0.0000   -0.0000    0.0000    0.0000    0.0000   -0.0000    0.0001   -0.0006
   173 H11    1s        -0.0003   -0.0005   -0.0001    0.0004   -0.0000   -0.0000    0.0000    0.0002    0.0002    0.0087
   174 H11    2s        -0.0002   -0.0002   -0.0001    0.0003   -0.0000   -0.0000   -0.0000    0.0001   -0.0003    0.0058
   175 H11    2px        0.0000   -0.0000   -0.0000   -0.0000    0.0000    0.0000    0.0000   -0.0000    0.0001   -0.0006
   176 H11    2py       -0.0000   -0.0000   -0.0000   -0.0000   -0.0000    0.0000   -0.0000    0.0001   -0.0001    0.0005
   177 H11    2pz       -0.0000   -0.0000   -0.0000    0.0000   -0.0000    0.0000   -0.0000    0.0000    0.0000    0.0001
   178 H12    1s        -0.0002   -0.0009    0.0001   -0.0004    0.0001   -0.0003   -0.0000    0.0003   -0.0003    0.0098
   179 H12    2s        -0.0002   -0.0005    0.0000   -0.0003    0.0001   -0.0001   -0.0000    0.0001   -0.0002    0.0022
   180 H12    2px        0.0000    0.0000   -0.0000    0.0002   -0.0000    0.0001    0.0000   -0.0001    0.0000   -0.0008
   181 H12    2py        0.0000   -0.0000    0.0000   -0.0004   -0.0000    0.0000    0.0000    0.0000   -0.0000    0.0015
   182 H12    2pz        0.0000    0.0000    0.0000    0.0002   -0.0000   -0.0000   -0.0000   -0.0001   -0.0000   -0.0006
   183 H13    1s         0.0005    0.0000   -0.0003   -0.0003   -0.0003    0.0009    0.0001   -0.0005   -0.0000   -0.0007
   184 H13    2s         0.0003   -0.0000   -0.0002   -0.0002   -0.0003    0.0001    0.0001   -0.0004   -0.0000   -0.0107
   185 H13    2px       -0.0000   -0.0000    0.0000   -0.0000   -0.0000   -0.0000    0.0000    0.0000   -0.0000   -0.0003
   186 H13    2py       -0.0000    0.0000    0.0000    0.0000    0.0000   -0.0000   -0.0000   -0.0000   -0.0000    0.0003
   187 H13    2pz       -0.0000    0.0000    0.0000   -0.0000    0.0000   -0.0000   -0.0000    0.0000    0.0000    0.0005
   188 H14    1s         0.0001   -0.0002    0.0002   -0.0008    0.0001    0.0008   -0.0003   -0.0004   -0.0001    0.0230
   189 H14    2s         0.0001   -0.0001    0.0001   -0.0004    0.0001    0.0000   -0.0002   -0.0003   -0.0001    0.0080
   190 H14    2px        0.0001    0.0000    0.0000    0.0001   -0.0001   -0.0000    0.0000    0.0000   -0.0000   -0.0024
   191 H14    2py        0.0000    0.0000   -0.0001    0.0000    0.0000   -0.0000    0.0000    0.0001    0.0000   -0.0005
   192 H14    2pz        0.0000   -0.0000    0.0000   -0.0000    0.0000    0.0000   -0.0000   -0.0001   -0.0000    0.0015
   193 H15    1s        -0.0013    0.0008   -0.0002    0.0004    0.0002   -0.0001   -0.0004    0.0000   -0.0000    0.0367
   194 H15    2s        -0.0008    0.0006   -0.0002    0.0002   -0.0000   -0.0000   -0.0002    0.0000   -0.0000   -0.0014
   195 H15    2px       -0.0001    0.0000   -0.0002   -0.0000    0.0001    0.0000   -0.0000   -0.0000   -0.0000    0.0038
   196 H15    2py       -0.0001   -0.0001   -0.0003    0.0000   -0.0000   -0.0000    0.0000   -0.0001   -0.0000    0.0027
   197 H15    2pz       -0.0000    0.0001   -0.0002    0.0000    0.0001    0.0000   -0.0000   -0.0000   -0.0000    0.0036
   198 H16    1s         0.0004   -0.0001   -0.0005   -0.0000   -0.0004   -0.0000    0.0007   -0.0002   -0.0000    0.0045
   199 H16    2s         0.0003   -0.0001   -0.0002   -0.0000   -0.0003   -0.0000   -0.0001   -0.0001   -0.0000   -0.0015
   200 H16    2px        0.0000   -0.0000   -0.0000   -0.0000   -0.0001    0.0000    0.0000   -0.0000   -0.0000    0.0006
   201 H16    2py       -0.0000   -0.0000    0.0000    0.0000   -0.0000    0.0000   -0.0000   -0.0000   -0.0000   -0.0002
   202 H16    2pz       -0.0000    0.0000    0.0000   -0.0000    0.0000   -0.0000   -0.0000    0.0000   -0.0000   -0.0007
   203 H17    1s        -0.0001   -0.0001   -0.0003   -0.0002   -0.0002   -0.0001    0.0010   -0.0001   -0.0001    0.0120
   204 H17    2s        -0.0000   -0.0000   -0.0001   -0.0001   -0.0001   -0.0000    0.0001   -0.0000   -0.0001   -0.0026
   205 H17    2px       -0.0000    0.0000   -0.0000    0.0000    0.0000    0.0000   -0.0000    0.0000    0.0000    0.0003
   206 H17    2py       -0.0000    0.0000   -0.0000    0.0000   -0.0000   -0.0000   -0.0001    0.0000    0.0000   -0.0006
   207 H17    2pz        0.0000    0.0000   -0.0000    0.0000    0.0000   -0.0000   -0.0001    0.0000    0.0000   -0.0010
   208 H18    1s         0.0001   -0.0001   -0.0005    0.0001   -0.0003    0.0001    0.0006   -0.0002    0.0000    0.0123
   209 H18    2s         0.0000   -0.0001   -0.0002    0.0001   -0.0002    0.0001   -0.0001   -0.0001   -0.0000    0.0034
   210 H18    2px        0.0000    0.0000   -0.0000   -0.0000   -0.0000    0.0000    0.0000   -0.0000    0.0000    0.0006
   211 H18    2py       -0.0000    0.0000    0.0000   -0.0000    0.0000   -0.0000   -0.0000    0.0000    0.0000   -0.0012
   212 H18    2pz        0.0000    0.0000   -0.0000    0.0000   -0.0001    0.0000   -0.0000   -0.0000   -0.0000    0.0006
 
 
      Orbital                11        12        13        14        15        16        17        18        19        20
      Energy            -1.3614   -1.2515   -1.2201   -1.0151   -0.9673   -0.9255   -0.8128   -0.7720   -0.7163   -0.6890
      Occ. No.           2.0000    2.0000    2.0000    2.0000    2.0000    2.0000    2.0000    2.0000    2.0000    2.0000
 
     1 C1     1s        -0.0388    0.0066   -0.0062   -0.0135    0.0066    0.0036    0.0097   -0.0129   -0.0021    0.0085
     2 C1     2s         0.3566    0.0044    0.1143    0.2117   -0.1724   -0.0020   -0.2047    0.3228    0.0523   -0.2023
     3 C1     3s        -0.0034    0.0244    0.0053   -0.0117    0.0007    0.0120    0.0026   -0.0033   -0.0057    0.0150
     4 C1     4s         0.0032    0.0068    0.0017   -0.0041    0.0004    0.0052    0.0014   -0.0030   -0.0014    0.0056
     5 C1     2px       -0.0458    0.0305    0.1460    0.0400    0.0425   -0.0952   -0.0801    0.1339   -0.0501    0.0936
     6 C1     3px        0.0255    0.0041   -0.0426   -0.0452    0.0202    0.0523   -0.0074   -0.0373    0.0183   -0.0429
     7 C1     4px       -0.0150    0.0075    0.0277   -0.0016    0.0099   -0.0093   -0.0088    0.0076   -0.0047    0.0045
     8 C1     2py        0.0861    0.0231   -0.0240   -0.1056    0.1182   -0.0334   -0.0141    0.0456    0.0594    0.0389
     9 C1     3py       -0.0552    0.0529    0.0393   -0.0079   -0.0300    0.0643    0.0294    0.0038   -0.0294   -0.0033
    10 C1     4py        0.0213    0.0071   -0.0045   -0.0195    0.0178   -0.0003    0.0007    0.0069    0.0005   -0.0013
    11 C1     2pz       -0.0282    0.0036    0.0254    0.0161   -0.0155   -0.0007   -0.0037    0.0029   -0.0366    0.0089
    12 C1     3pz        0.0145   -0.0051   -0.0105   -0.0057    0.0081   -0.0003   -0.0070   -0.0075    0.0051   -0.0058
    13 C1     4pz       -0.0065    0.0013    0.0044    0.0016   -0.0008    0.0009   -0.0016   -0.0016   -0.0044    0.0018
    14 C1     3d2-      -0.0296    0.0056    0.0192    0.0061   -0.0083    0.0036   -0.0002    0.0160    0.0063    0.0095
    15 C1     3d1-      -0.0130    0.0022    0.0047   -0.0010    0.0017   -0.0022    0.0017    0.0001   -0.0015    0.0042
    16 C1     3d0       -0.0241    0.0012   -0.0061   -0.0094    0.0052    0.0023    0.0083   -0.0118   -0.0020    0.0044
    17 C1     3d1+       0.0117   -0.0008    0.0009    0.0008    0.0017   -0.0018   -0.0029   -0.0012   -0.0035   -0.0022
    18 C1     3d2+      -0.0007    0.0025    0.0227    0.0064    0.0083   -0.0167   -0.0076    0.0076   -0.0032    0.0067
    19 C3     1s        -0.0102   -0.0085   -0.0328    0.0382   -0.0015   -0.0273   -0.0042   -0.0027   -0.0047    0.0063
    20 C3     2s         0.0200    0.0417    0.1724   -0.3363    0.0388    0.3584    0.0606    0.1038    0.0865   -0.0514
    21 C3     3s        -0.0206   -0.0188   -0.0643    0.0688    0.0010   -0.0311   -0.0054    0.0007   -0.0035    0.0195
    22 C3     4s        -0.0027   -0.0026   -0.0146    0.0184   -0.0011   -0.0082   -0.0019   -0.0017   -0.0013    0.0052
    23 C3     2px       -0.0199   -0.0163   -0.0382    0.0003    0.0291    0.0731    0.0509   -0.0527   -0.0211   -0.2250
    24 C3     3px       -0.0007    0.0176    0.0269   -0.0266    0.0283    0.0292   -0.0095   -0.0050    0.0006    0.0188
    25 C3     4px       -0.0016    0.0052    0.0062   -0.0154    0.0080    0.0177    0.0043    0.0002    0.0006   -0.0071
    26 C3     2py       -0.0209    0.0104   -0.1045   -0.0423   -0.0679    0.0212   -0.1301    0.1569   -0.1428    0.0255
    27 C3     3py        0.0000    0.0090   -0.0102    0.0072    0.0233   -0.0266    0.0001   -0.0021    0.0322    0.0098
    28 C3     4py       -0.0032    0.0045   -0.0102   -0.0035   -0.0030    0.0017   -0.0072    0.0090    0.0002    0.0027
    29 C3     2pz        0.0009    0.0027   -0.0066   -0.0135   -0.0049    0.0243   -0.0568   -0.0171   -0.2484   -0.0445
    30 C3     3pz        0.0020    0.0033   -0.0081    0.0282    0.0269    0.0007   -0.0001   -0.0027    0.0230   -0.0005
    31 C3     4pz       -0.0017    0.0023   -0.0061    0.0084   -0.0001   -0.0075   -0.0067   -0.0066   -0.0058   -0.0010
    32 C3     3d2-       0.0039   -0.0014    0.0161    0.0066    0.0099   -0.0069    0.0061   -0.0015    0.0177    0.0072
    33 C3     3d1-       0.0015    0.0004    0.0046   -0.0071   -0.0029    0.0020   -0.0065    0.0028   -0.0147    0.0054
    34 C3     3d0       -0.0033   -0.0050   -0.0104    0.0012   -0.0043    0.0021   -0.0053    0.0109   -0.0064   -0.0025
    35 C3     3d1+       0.0001   -0.0033    0.0006    0.0034    0.0056    0.0015    0.0077   -0.0017    0.0092   -0.0090
    36 C3     3d2+      -0.0013   -0.0016   -0.0104    0.0039   -0.0021    0.0010   -0.0027    0.0121   -0.0008   -0.0092
    37 C4     1s         0.0025   -0.0079    0.0034    0.0138    0.0106    0.0029    0.0170    0.0042    0.0056   -0.0002
    38 C4     2s         0.0065    0.1573    0.0336   -0.2177   -0.1899    0.0397   -0.3544   -0.1051   -0.2265    0.0482
    39 C4     3s         0.0090    0.0068    0.0137    0.0240    0.0056    0.0102    0.0229    0.0005    0.0084    0.0114
    40 C4     4s         0.0030    0.0020    0.0036    0.0086    0.0019    0.0025    0.0071   -0.0008    0.0041    0.0012
    41 C4     2px       -0.0085   -0.1454    0.0357   -0.0108    0.0362    0.0813    0.0547    0.0799   -0.1899   -0.1369
    42 C4     3px        0.0047    0.0194    0.0101   -0.0216   -0.0565   -0.0512   -0.0004   -0.0366    0.0630    0.0266
    43 C4     4px       -0.0018   -0.0275    0.0058   -0.0050   -0.0009    0.0040    0.0061    0.0029   -0.0101   -0.0114
    44 C4     2py       -0.0182    0.0568   -0.0520    0.0651    0.0242   -0.0724   -0.0671   -0.1142    0.1384   -0.0013
    45 C4     3py       -0.0146    0.0167   -0.0118   -0.0138    0.0692    0.0601   -0.0095    0.0397   -0.0487    0.0135
    46 C4     4py       -0.0042    0.0143   -0.0083    0.0068    0.0114   -0.0002   -0.0084   -0.0055    0.0039    0.0025
    47 C4     2pz       -0.0180   -0.0648   -0.0134    0.1048    0.0832   -0.0153    0.0173   -0.0619   -0.0132   -0.1425
    48 C4     3pz        0.0035    0.0696    0.0108   -0.0365    0.0186    0.0489   -0.0028    0.0351    0.0056    0.0554
    49 C4     4pz       -0.0042   -0.0078   -0.0014    0.0095    0.0123    0.0078   -0.0008   -0.0005   -0.0067   -0.0056
    50 C4     3d2-      -0.0017   -0.0230    0.0007    0.0103    0.0100    0.0006    0.0144    0.0098   -0.0111   -0.0006
    51 C4     3d1-      -0.0003   -0.0090    0.0047   -0.0070    0.0029    0.0123   -0.0061    0.0048   -0.0107   -0.0034
    52 C4     3d0       -0.0022   -0.0189    0.0026    0.0009    0.0032    0.0045    0.0033    0.0092   -0.0137   -0.0011
    53 C4     3d1+      -0.0015   -0.0019   -0.0017    0.0024   -0.0071   -0.0151    0.0006   -0.0058   -0.0068    0.0055
    54 C4     3d2+      -0.0004    0.0077   -0.0043    0.0002   -0.0069   -0.0083    0.0019   -0.0012   -0.0022    0.0013
    55 C6     1s        -0.0008   -0.0326    0.0104   -0.0331   -0.0366   -0.0301    0.0105   -0.0035    0.0056   -0.0071
    56 C6     2s         0.0067    0.1578   -0.0095    0.1985    0.3124    0.2762   -0.1071   -0.0004   -0.0458    0.0734
    57 C6     3s         0.0027   -0.0529    0.0328   -0.0626   -0.0601   -0.0470    0.0261   -0.0126    0.0145   -0.0216
    58 C6     4s         0.0019   -0.0082    0.0084   -0.0126   -0.0133   -0.0094    0.0072   -0.0031    0.0035   -0.0068
    59 C6     2px        0.0020    0.0456   -0.0072    0.0121   -0.0065   -0.0197   -0.0363   -0.0765    0.1686   -0.1235
    60 C6     3px        0.0024   -0.0138    0.0068   -0.0092   -0.0118   -0.0025   -0.0011    0.0055   -0.0174    0.0182
    61 C6     4px        0.0014   -0.0011    0.0021   -0.0051   -0.0102   -0.0062   -0.0012   -0.0052    0.0081   -0.0071
    62 C6     2py       -0.0044   -0.0756    0.0073   -0.0123    0.0101    0.0315   -0.0765    0.0121   -0.0668    0.1753
    63 C6     3py       -0.0012    0.0121   -0.0104    0.0177    0.0167    0.0027   -0.0054   -0.0017    0.0145   -0.0265
    64 C6     4py       -0.0002    0.0007   -0.0008    0.0077    0.0126    0.0106   -0.0059    0.0016   -0.0037    0.0091
    65 C6     2pz       -0.0069   -0.0608    0.0026   -0.0238   -0.0102    0.0094   -0.1144   -0.0441    0.0121    0.2077
    66 C6     3pz       -0.0041    0.0083   -0.0110    0.0038   -0.0002   -0.0090    0.0066    0.0034    0.0020   -0.0314
    67 C6     4pz        0.0000   -0.0020   -0.0000    0.0058    0.0076    0.0075   -0.0101   -0.0040    0.0012    0.0082
    68 C6     3d2-      -0.0005   -0.0118    0.0023   -0.0043   -0.0008    0.0024   -0.0007    0.0052   -0.0122    0.0182
    69 C6     3d1-       0.0007    0.0170   -0.0032    0.0059    0.0027   -0.0026    0.0111   -0.0005    0.0110   -0.0233
    70 C6     3d0       -0.0000   -0.0004   -0.0000    0.0014    0.0022    0.0012    0.0064    0.0043   -0.0031   -0.0034
    71 C6     3d1+      -0.0009   -0.0112    0.0016   -0.0025    0.0000    0.0025   -0.0072   -0.0009   -0.0022    0.0156
    72 C6     3d2+      -0.0004   -0.0064    0.0008   -0.0016   -0.0003    0.0011   -0.0091   -0.0043    0.0030    0.0094
    73 C19    1s        -0.0149    0.0013   -0.0089   -0.0347    0.0525   -0.0368   -0.0115    0.0097   -0.0019   -0.0072
    74 C19    2s        -0.0064    0.0024    0.0008    0.1703   -0.3143    0.2506    0.0906   -0.0519    0.0226    0.0609
    75 C19    3s        -0.0385    0.0095   -0.0249   -0.0706    0.0984   -0.0645   -0.0221    0.0267   -0.0064   -0.0125
    76 C19    4s        -0.0033    0.0040   -0.0030   -0.0148    0.0212   -0.0137   -0.0060    0.0074   -0.0024   -0.0031
    77 C19    2px       -0.0079    0.0082    0.0256    0.0425   -0.0254   -0.0094   -0.0240    0.0412   -0.0508   -0.0220
    78 C19    3px       -0.0048    0.0054    0.0008    0.0083    0.0004   -0.0011    0.0060   -0.0013    0.0007    0.0086
    79 C19    4px        0.0073   -0.0005   -0.0002   -0.0021    0.0093   -0.0109   -0.0028    0.0006   -0.0041   -0.0025
    80 C19    2py        0.0211    0.0022    0.0092    0.0349   -0.0286    0.0011   -0.0514    0.0600   -0.0070   -0.1541
    81 C19    3py       -0.0076    0.0056   -0.0027   -0.0183    0.0252   -0.0113    0.0024   -0.0114   -0.0048    0.0197
    82 C19    4py        0.0057    0.0001    0.0009   -0.0068    0.0152   -0.0133   -0.0098    0.0096    0.0002   -0.0067
    83 C19    2pz       -0.0042   -0.0017    0.0059   -0.0007    0.0042   -0.0025    0.0090   -0.0072   -0.0130    0.0242
    84 C19    3pz        0.0020   -0.0028    0.0053    0.0047   -0.0009   -0.0010    0.0032   -0.0001    0.0005   -0.0025
    85 C19    4pz        0.0001   -0.0001    0.0003    0.0007   -0.0014    0.0010    0.0017   -0.0008   -0.0006    0.0008
    86 C19    3d2-      -0.0001    0.0003    0.0059    0.0075   -0.0060   -0.0005   -0.0045    0.0067   -0.0005   -0.0090
    87 C19    3d1-      -0.0013    0.0003    0.0007   -0.0016    0.0021   -0.0011    0.0007   -0.0007   -0.0000    0.0028
    88 C19    3d0        0.0014   -0.0002   -0.0010   -0.0056    0.0062   -0.0024    0.0022   -0.0031    0.0036    0.0046
    89 C19    3d1+      -0.0009    0.0001   -0.0011   -0.0009    0.0006    0.0002    0.0008   -0.0012    0.0006    0.0011
    90 C19    3d2+      -0.0065    0.0010    0.0016   -0.0052    0.0066   -0.0039    0.0030   -0.0033   -0.0005    0.0107
    91 N2     1s        -0.0193   -0.0035   -0.0399   -0.0070   -0.0016    0.0023   -0.0008    0.0038    0.0014    0.0024
    92 N2     2s         0.1445    0.0622    0.5747    0.0915    0.1402   -0.2090    0.0379   -0.1113    0.0118    0.1028
    93 N2     3s        -0.0478   -0.0028   -0.0707   -0.0115    0.0055   -0.0083   -0.0011    0.0055    0.0013    0.0130
    94 N2     4s        -0.0117   -0.0013   -0.0236   -0.0023   -0.0009    0.0008   -0.0012    0.0024   -0.0005    0.0014
    95 N2     2px       -0.0309    0.0083   -0.0234   -0.1041    0.0662    0.0775    0.1839   -0.3558    0.0311   -0.0311
    96 N2     3px        0.0203    0.0061   -0.0071    0.0355   -0.0009   -0.0547   -0.0621    0.0866   -0.0057    0.0088
    97 N2     4px       -0.0049    0.0018    0.0017   -0.0012    0.0062   -0.0070   -0.0016   -0.0019   -0.0039    0.0019
    98 N2     2py        0.0260   -0.0009   -0.0081   -0.1221    0.0496    0.0886   -0.0025    0.1331    0.2455    0.0889
    99 N2     3py        0.0069   -0.0178   -0.0413    0.0432    0.0091   -0.0516   -0.0345   -0.0316   -0.0550   -0.0251
   100 N2     4py       -0.0083   -0.0031   -0.0138   -0.0013    0.0021   -0.0045   -0.0079    0.0061   -0.0009   -0.0016
   101 N2     2pz       -0.0135    0.0071    0.0185   -0.0233    0.0033    0.0081    0.0153   -0.0798   -0.1083   -0.0147
   102 N2     3pz       -0.0085    0.0048   -0.0083   -0.0153    0.0001   -0.0025   -0.0080    0.0282    0.0236    0.0057
   103 N2     4pz        0.0000    0.0011    0.0026   -0.0030    0.0011   -0.0003    0.0012   -0.0009    0.0025    0.0005
   104 N2     3d2-      -0.0016    0.0013    0.0095   -0.0023   -0.0018    0.0077    0.0020    0.0066    0.0100   -0.0000
   105 N2     3d1-       0.0010    0.0002   -0.0004   -0.0036   -0.0004    0.0038   -0.0017    0.0064    0.0030    0.0017
   106 N2     3d0       -0.0031   -0.0017   -0.0147   -0.0006   -0.0027    0.0027    0.0004   -0.0033   -0.0033   -0.0015
   107 N2     3d1+       0.0019    0.0001    0.0039   -0.0006    0.0019   -0.0016    0.0012   -0.0048   -0.0021   -0.0016
   108 N2     3d2+       0.0052   -0.0004    0.0037    0.0100   -0.0017   -0.0090   -0.0106    0.0174   -0.0021   -0.0045
   109 N5     1s        -0.0021   -0.0406    0.0064   -0.0014    0.0016    0.0008   -0.0006    0.0011    0.0016   -0.0018
   110 N5     2s         0.0295    0.5855   -0.1011    0.0176   -0.1079   -0.1938    0.2064    0.0267    0.1011   -0.1438
   111 N5     3s        -0.0015   -0.0763    0.0146   -0.0096   -0.0084   -0.0132    0.0060    0.0024    0.0113   -0.0107
   112 N5     4s        -0.0004   -0.0253    0.0054   -0.0039   -0.0017   -0.0008   -0.0012    0.0000    0.0005   -0.0004
   113 N5     2px        0.0034    0.0207    0.0211   -0.0910   -0.1209   -0.0456   -0.2839   -0.1974    0.1728    0.1781
   114 N5     3px        0.0119    0.0016    0.0237    0.0206    0.0327    0.0368    0.0780    0.0275   -0.0264   -0.0366
   115 N5     4px        0.0022   -0.0030    0.0050   -0.0043   -0.0025    0.0040    0.0004   -0.0011   -0.0021   -0.0044
   116 N5     2py       -0.0099   -0.0241   -0.0158    0.1121    0.1218    0.0925    0.0069   -0.0115    0.0695   -0.2571
   117 N5     3py       -0.0044    0.0040   -0.0186   -0.0312   -0.0634   -0.0444   -0.0016    0.0124   -0.0272    0.0510
   118 N5     4py       -0.0008   -0.0006   -0.0027    0.0008   -0.0013   -0.0025   -0.0011    0.0019   -0.0017    0.0059
   119 N5     2pz       -0.0044    0.0150   -0.0168    0.0657    0.0402    0.0424   -0.2221   -0.1824    0.2192   -0.1461
   120 N5     3pz        0.0021   -0.0440   -0.0083   -0.0116   -0.0466   -0.0356    0.0301    0.0279   -0.0319    0.0161
   121 N5     4pz        0.0006   -0.0072   -0.0012   -0.0008   -0.0049   -0.0037   -0.0045   -0.0001   -0.0004    0.0021
   122 N5     3d2-      -0.0003   -0.0155    0.0016    0.0008    0.0020   -0.0007    0.0129    0.0074   -0.0089   -0.0005
   123 N5     3d1-       0.0011    0.0082   -0.0016    0.0057    0.0073    0.0035    0.0133    0.0081   -0.0029   -0.0098
   124 N5     3d0       -0.0005   -0.0048    0.0001    0.0047    0.0046    0.0014    0.0048    0.0005    0.0011   -0.0059
   125 N5     3d1+       0.0003    0.0041   -0.0015   -0.0045   -0.0089   -0.0105   -0.0004   -0.0029   -0.0010    0.0096
   126 N5     3d2+      -0.0004    0.0030   -0.0009   -0.0022   -0.0044   -0.0038   -0.0043   -0.0035    0.0006    0.0037
   127 O7     1s        -0.0230    0.0008    0.0035   -0.0026    0.0030   -0.0018    0.0053   -0.0098   -0.0064    0.0107
   128 O7     2s         0.6810   -0.1004   -0.3260   -0.1599    0.1497   -0.0178    0.1330   -0.2841   -0.1278    0.1892
   129 O7     3s        -0.0263   -0.0059   -0.0109   -0.0164    0.0160   -0.0090    0.0170   -0.0360   -0.0201    0.0335
   130 O7     4s        -0.0126   -0.0014   -0.0001   -0.0030    0.0028   -0.0026    0.0026   -0.0073   -0.0040    0.0068
   131 O7     2px        0.0974   -0.0096   -0.0088    0.0023    0.0114   -0.0370   -0.0753    0.1508    0.0855   -0.0885
   132 O7     3px       -0.0265   -0.0021    0.0001   -0.0079    0.0035   -0.0058    0.0099   -0.0167   -0.0088    0.0074
   133 O7     4px       -0.0025   -0.0012    0.0003   -0.0014   -0.0008   -0.0000    0.0002   -0.0027    0.0002   -0.0002
   134 O7     2py       -0.0930    0.0261    0.0391   -0.0179    0.0229   -0.0471    0.0918   -0.0544   -0.1328    0.2064
   135 O7     3py        0.0347    0.0013   -0.0043    0.0085   -0.0114   -0.0082   -0.0048    0.0128    0.0078   -0.0203
   136 O7     4py        0.0000    0.0012   -0.0018    0.0000   -0.0016   -0.0016    0.0010    0.0025    0.0017   -0.0040
   137 O7     2pz        0.0259    0.0005   -0.0114   -0.0023   -0.0020    0.0015   -0.0128    0.0334    0.0189   -0.0405
   138 O7     3pz       -0.0100    0.0032   -0.0005   -0.0014    0.0043    0.0029    0.0017   -0.0056   -0.0006    0.0054
   139 O7     4pz       -0.0009    0.0009    0.0003    0.0007    0.0007    0.0014   -0.0008   -0.0008    0.0007    0.0007
   140 O7     3d2-      -0.0165    0.0024    0.0045   -0.0001   -0.0010   -0.0001    0.0064   -0.0065   -0.0074    0.0095
   141 O7     3d1-      -0.0051    0.0011    0.0025    0.0005    0.0002   -0.0015    0.0016   -0.0007   -0.0024    0.0040
   142 O7     3d0       -0.0093    0.0009    0.0042    0.0013   -0.0009   -0.0001    0.0012   -0.0025   -0.0031    0.0037
   143 O7     3d1+       0.0053   -0.0002   -0.0016   -0.0008    0.0010   -0.0008   -0.0013    0.0028    0.0013   -0.0016
   144 O7     3d2+      -0.0023    0.0003    0.0042   -0.0003    0.0031   -0.0046   -0.0024    0.0046   -0.0005    0.0047
   145 O8     1s         0.0009    0.0023   -0.0011    0.0028    0.0028   -0.0017    0.0134    0.0065    0.0159    0.0107
   146 O8     2s        -0.0679   -0.3107   -0.0274    0.1652    0.1073   -0.0674    0.3379    0.1461    0.2683    0.1821
   147 O8     3s        -0.0021   -0.0109   -0.0051    0.0116    0.0113   -0.0089    0.0427    0.0198    0.0462    0.0306
   148 O8     4s        -0.0003   -0.0007   -0.0011    0.0010    0.0020   -0.0025    0.0083    0.0040    0.0096    0.0066
   149 O8     2px        0.0085    0.0046    0.0075   -0.0003    0.0201    0.0197    0.1308    0.1051    0.0904    0.1184
   150 O8     3px        0.0011    0.0015   -0.0003   -0.0010   -0.0029    0.0015   -0.0207   -0.0116   -0.0040   -0.0084
   151 O8     4px        0.0004   -0.0001   -0.0005    0.0001   -0.0008   -0.0001   -0.0022   -0.0016    0.0007   -0.0008
   152 O8     2py        0.0036    0.0187   -0.0057    0.0211   -0.0074   -0.0327    0.0162   -0.0198    0.1154    0.0636
   153 O8     3py        0.0031   -0.0041    0.0012    0.0021   -0.0104   -0.0027   -0.0009    0.0019   -0.0182   -0.0084
   154 O8     4py        0.0008   -0.0021   -0.0003    0.0024   -0.0013   -0.0004    0.0000    0.0005   -0.0030   -0.0022
   155 O8     2pz        0.0105    0.0302   -0.0005    0.0302    0.0228   -0.0237    0.1816    0.0864    0.2812    0.2104
   156 O8     3pz       -0.0018   -0.0051   -0.0023   -0.0089   -0.0101   -0.0011   -0.0285   -0.0133   -0.0319   -0.0238
   157 O8     4pz       -0.0007   -0.0027   -0.0015   -0.0003    0.0000   -0.0005   -0.0033   -0.0017   -0.0043   -0.0040
   158 O8     3d2-      -0.0002   -0.0008    0.0003   -0.0012   -0.0004    0.0011   -0.0019    0.0001   -0.0055   -0.0026
   159 O8     3d1-      -0.0006   -0.0045    0.0008   -0.0008    0.0015    0.0035   -0.0003    0.0024   -0.0095   -0.0049
[...]
AIVX     1  Mu1.0001  In1.024 Se1.045               0.22724059     -0.00081813      0.00134367     -0.00000110
AIVX     1  Mu1.0001  In1.025 Se1.045               0.21814864      0.00192375     -0.00327291     -0.00000630
AIVX     1  Mu1.0001  In1.026 Se1.045               0.10323102     -0.00118377      0.00259374     -0.00000307
AIVX     1  Mu1.0001  In1.027 Se1.045               0.11593636     -0.00080964      0.00172805     -0.00000140
AIVX     1  Mu1.0001  In1.028 Se1.045               0.12552814     -0.00042285      0.00125088     -0.00000053
AIVX     1  Mu1.0001  In1.021 Se1.046               0.28465550     -0.00062179      0.00082927     -0.00000052
AIVX     1  Mu1.0001  In1.022 Se1.046               0.19904205     -0.00128305      0.00214631     -0.00000275
AIVX     1  Mu1.0001  In1.023 Se1.046               0.27931991     -0.00016374      0.00020327     -0.00000003
AIVX     1  Mu1.0001  In1.024 Se1.046               0.24561397      0.00035799     -0.00059376     -0.00000021
AIVX     1  Mu1.0001  In1.025 Se1.046               0.23652202      0.00242331     -0.00441418     -0.00001070
AIVX     1  Mu1.0001  In1.026 Se1.046               0.12160441     -0.00179562      0.00355901     -0.00000639
AIVX     1  Mu1.0001  In1.027 Se1.046               0.13430974      0.00091871     -0.00178211     -0.00000164
AIVX     1  Mu1.0001  In1.028 Se1.046               0.14390152      0.00139692     -0.00324621     -0.00000453
AIVX     1  Mu1.0001  In1.021 Se1.047               0.29642706     -0.00179249      0.00286293     -0.00000513
AIVX     1  Mu1.0001  In1.022 Se1.047               0.21081361     -0.00144744      0.00258888     -0.00000375
AIVX     1  Mu1.0001  In1.023 Se1.047               0.29109147     -0.00065407      0.00110954     -0.00000073
AIVX     1  Mu1.0001  In1.024 Se1.047               0.25738554      0.00036550     -0.00060744     -0.00000022
AIVX     1  Mu1.0001  In1.025 Se1.047               0.24829359      0.00147289     -0.00258410     -0.00000381
AIVX     1  Mu1.0001  In1.026 Se1.047               0.13337597     -0.00317237      0.00631851     -0.00002004
AIVX     1  Mu1.0001  In1.027 Se1.047               0.14608131      0.00008449     -0.00015962     -0.00000001
AIVX     1  Mu1.0001  In1.028 Se1.047               0.15567309     -0.00040789      0.00082945     -0.00000034
AIVX     1  Mu1.0001  In1.022 Se1.048               0.22224183      0.00148454     -0.00268336     -0.00000398
AIVX     1  Mu1.0001  In1.024 Se1.048               0.26881375     -0.00058315      0.00089612     -0.00000052
AIVX     1  Mu1.0001  In1.025 Se1.048               0.25972180     -0.00055614      0.00103696     -0.00000058
AIVX     1  Mu1.0001  In1.026 Se1.048               0.14480419      0.00041194     -0.00060722     -0.00000025
AIVX     1  Mu1.0001  In1.027 Se1.048               0.15750952      0.00019845     -0.00017693     -0.00000004
AIVX     1  Mu1.0001  In1.028 Se1.048               0.16710131      0.00037169     -0.00136195     -0.00000051
AIVX     1  Mu1.0001  In1.022 Se1.049               0.23630362     -0.00204296      0.00339950     -0.00000695
AIVX     1  Mu1.0001  In1.024 Se1.049               0.28287554      0.00031181     -0.00055807     -0.00000017
AIVX     1  Mu1.0001  In1.025 Se1.049               0.27378359      0.00122317     -0.00155149     -0.00000190
AIVX     1  Mu1.0001  In1.026 Se1.049               0.15886597     -0.00084046      0.00211767     -0.00000178
AIVX     1  Mu1.0001  In1.027 Se1.049               0.17157131     -0.00115881      0.00260234     -0.00000302
AIVX     1  Mu1.0001  In1.028 Se1.049               0.18116309      0.00055709     -0.00177160     -0.00000099
AIVX     1  Mu1.0001  In1.022 Se1.050               0.24717138      0.00273354     -0.00418498     -0.00001144
AIVX     1  Mu1.0001  In1.024 Se1.050               0.29374331     -0.00072011      0.00109805     -0.00000079
AIVX     1  Mu1.0001  In1.025 Se1.050               0.28465136     -0.00134197      0.00178787     -0.00000240
AIVX     1  Mu1.0001  In1.026 Se1.050               0.16973374      0.00055824     -0.00160827     -0.00000090
AIVX     1  Mu1.0001  In1.027 Se1.050               0.18243908     -0.00181533      0.00315491     -0.00000573
AIVX     1  Mu1.0001  In1.028 Se1.050               0.19203086     -0.00110937      0.00253644     -0.00000281
AIVX     1  Mu1.0001  In1.022 Se1.051               0.24523782      0.00231381     -0.00398571     -0.00000922
AIVX     1  Mu1.0001  In1.024 Se1.051               0.29180975     -0.00095715      0.00150219     -0.00000144
AIVX     1  Mu1.0001  In1.025 Se1.051               0.28271780     -0.00108670      0.00178107     -0.00000194
AIVX     1  Mu1.0001  In1.026 Se1.051               0.16780018      0.00140636     -0.00267427     -0.00000376
AIVX     1  Mu1.0001  In1.027 Se1.051               0.18050552     -0.00122621      0.00242141     -0.00000297
AIVX     1  Mu1.0001  In1.028 Se1.051               0.19009730      0.00021894     -0.00058561     -0.00000013
AIVX     1  Mu1.0001  In1.022 Se1.052               0.28397960      0.00060181     -0.00112762     -0.00000068
AIVX     1  Mu1.0001  In1.026 Se1.052               0.20654196      0.00223968     -0.00363618     -0.00000814
AIVX     1  Mu1.0001  In1.027 Se1.052               0.21924729     -0.00054829      0.00089477     -0.00000049
AIVX     1  Mu1.0001  In1.028 Se1.052               0.22883908      0.00002316     -0.00001796     -0.00000000
AIVX     1  Mu1.0001  In1.026 Se1.053               0.22702281      0.00119405     -0.00194029     -0.00000232
AIVX     1  Mu1.0001  In1.027 Se1.053               0.23972815     -0.00076922      0.00111693     -0.00000086
AIVX     1  Mu1.0001  In1.028 Se1.053               0.24931993     -0.00236525      0.00444793     -0.00001052
AIVX     1  Mu1.0001  In1.022 Se1.054               0.29781529     -0.00082937      0.00100492     -0.00000083
AIVX     1  Mu1.0001  In1.026 Se1.054               0.22037765      0.00068025     -0.00089139     -0.00000061
AIVX     1  Mu1.0001  In1.027 Se1.054               0.23308299      0.00309441     -0.00537299     -0.00001663
AIVX     1  Mu1.0001  In1.028 Se1.054               0.24267477     -0.00000082      0.00003246     -0.00000000
AIVX     1  Mu1.0001  In1.026 Se1.055               0.26228880     -0.00168909      0.00242384     -0.00000409
AIVX     1  Mu1.0001  In1.027 Se1.055               0.27499414      0.00084772     -0.00142187     -0.00000121
AIVX     1  Mu1.0001  In1.028 Se1.055               0.28458592     -0.00052684      0.00108935     -0.00000057
AIVX     1  Mu1.0001  In1.026 Se1.056               0.25404647      0.00089999     -0.00115175     -0.00000104
AIVX     1  Mu1.0001  In1.027 Se1.056               0.26675180      0.00092775     -0.00162830     -0.00000151
AIVX     1  Mu1.0001  In1.028 Se1.056               0.27634359     -0.00202619      0.00377684     -0.00000765
AIVX     1  Mu1.0001  In1.026 Se1.057               0.29183800      0.00014392     -0.00079179     -0.00000011
AIVX     1  Mu1.0001  In1.026 Se1.058               0.28221398     -0.00227932      0.00331147     -0.00000755
AIVX     1  Mu1.0001  In1.027 Se1.058               0.29491932      0.00031000     -0.00050877     -0.00000016
AIVX     1  Mu1.0001  In1.026 Se1.059               0.28471850      0.00182922     -0.00261862     -0.00000479
AIVX     1  Mu1.0001  In1.027 Se1.059               0.29742384      0.00079727     -0.00119076     -0.00000095
--
 
   (Skipping property calculation,
    use PROP keyword to activate)
--
 
  Total CASPT2 energies:
::    CASPT2 Root  1     Total energy:   -455.37913044
::    CASPT2 Root  2     Total energy:   -455.17663250
::    CASPT2 Root  3     Total energy:   -455.16992881
::    CASPT2 Root  4     Total energy:   -455.14627400
::    CASPT2 Root  5     Total energy:   -455.10957621
::    CASPT2 Root  6     Total energy:   -455.13336319
::    CASPT2 Root  7     Total energy:   -455.08633465
 
++ Multi-State CASPT2 section:
********************************************************************************
  MULTI-STATE CASPT2 SECTION
--------------------------------------------------------------------------------
 
  Output diagonal energies have been shifted. Add   -455.000000000000     
 
  Effective Hamiltonian matrix (Symmetric):
 
                1               2               3               4               5
   1        -0.37913044
   2        -0.00085268     -0.17663250
   3         0.00095687      0.00010961     -0.16992881
   4         0.01341927      0.00183446     -0.00144709     -0.14627400
   5        -0.00981850     -0.00089117     -0.00130480      0.00878198     -0.10957621
   6        -0.01246173     -0.00215023     -0.00062708      0.00302426     -0.01785143
   7         0.00379378      0.00068505     -0.00161800     -0.01159003      0.00360362
 
                6               7
   6        -0.13336319
   7        -0.00473571     -0.08633465
 
       Total MS-CASPT2 energies:
::    MS-CASPT2 Root  1     Total energy:   -455.38108559
::    MS-CASPT2 Root  2     Total energy:   -455.17694521
::    MS-CASPT2 Root  3     Total energy:   -455.17009523
::    MS-CASPT2 Root  4     Total energy:   -455.15116099
::    MS-CASPT2 Root  5     Total energy:   -455.13914445
::    MS-CASPT2 Root  6     Total energy:   -455.09994285
::    MS-CASPT2 Root  7     Total energy:   -455.08286548
 
       Eigenvectors:
            0.99575399     -0.01542990      0.00586476      0.08573171     -0.02796541
            0.00548817      0.99386196      0.02219726      0.10402861     -0.02899983
           -0.00462339     -0.01993922      0.99704660     -0.03746502     -0.06052503
           -0.05995964     -0.07658530      0.05720671      0.85004843      0.45283624
            0.04166423      0.03817044      0.02157721     -0.32640918      0.32523231
            0.05357790      0.06363215      0.02962898     -0.36424956      0.81313291
           -0.01486089     -0.01521235      0.02747533      0.13646048      0.15063803
 
           -0.00585074      0.00594144
            0.00419730      0.00591735
           -0.01151228     -0.01672362
            0.18889847     -0.15472974
            0.86528013      0.18791705
           -0.41293945     -0.16679514
           -0.21190632      0.95528806
 
--
 
  THE ORIGINAL CI ARRAYS ARE NOW MIXED AS LINEAR
  COMBINATIONS, GIVEN BY THE EIGENVECTORS.
  A NEW JOBIPH FILE NAMED 'JOBMIX' IS PREPARED.
********************************************************************************
 
++ Mixed CI coefficients:
  The CI coefficients for the MIXED state nr.   1
--------------------------------------------------------------------------------
 CI COEFFICIENTS LARGER THAN  0.50D-01
  Occupation of active orbitals, and spin coupling
  of open shells. (u,d: Spin up or down).
  SGUGA info is (Midvert:IsyUp:UpperWalk/LowerWalk)
        Conf  SGUGA info        Occupation    Coefficient         Weight
           1  ( 1:1:   1/   1)   22222200        0.964555       0.930366
           4  ( 1:1:   4/   1)   22222020       -0.115922       0.013438
          61  ( 2:1:   1/   3)   2u2222d0       -0.102931       0.010595
          62  ( 2:1:   2/   3)   2u222d20        0.052938       0.002802
          84  ( 2:1:   4/   4)   u222220d       -0.117651       0.013842
         145  ( 3:1:   5/   5)   22022202       -0.081376       0.006622
         171  ( 3:1:   1/   8)   20222220       -0.087502       0.007657
         195  ( 3:1:   5/  10)   02222202       -0.074783       0.005592
 
  The CI coefficients for the MIXED state nr.   2
--------------------------------------------------------------------------------
 CI COEFFICIENTS LARGER THAN  0.50D-01
  Occupation of active orbitals, and spin coupling
  of open shells. (u,d: Spin up or down).
  SGUGA info is (Midvert:IsyUp:UpperWalk/LowerWalk)
        Conf  SGUGA info        Occupation    Coefficient         Weight
           2  ( 1:1:   2/   1)   22222ud0       -0.193047       0.037267
           3  ( 1:1:   3/   1)   2222u2d0       -0.933913       0.872193
           5  ( 1:1:   5/   1)   2222ud20        0.136302       0.018578
          41  ( 2:1:   1/   2)   22u222d0        0.050755       0.002576
          63  ( 2:1:   3/   3)   2u22d220       -0.162231       0.026319
          86  ( 2:1:   6/   4)   u222d2ud        0.062197       0.003868
          88  ( 2:1:   8/   4)   u222u2dd        0.100605       0.010121
         147  ( 3:1:   7/   5)   2202u2d2        0.079751       0.006360
         197  ( 3:1:   7/  10)   0222u2d2        0.074923       0.005613
 
  The CI coefficients for the MIXED state nr.   3
--------------------------------------------------------------------------------
 CI COEFFICIENTS LARGER THAN  0.50D-01
  Occupation of active orbitals, and spin coupling
  of open shells. (u,d: Spin up or down).
  SGUGA info is (Midvert:IsyUp:UpperWalk/LowerWalk)
        Conf  SGUGA info        Occupation    Coefficient         Weight
           7  ( 1:1:   7/   1)   22222u0d       -0.170213       0.028972
          24  ( 2:1:   4/   1)   222u220d       -0.933092       0.870661
          25  ( 2:1:   5/   1)   222u2dud       -0.058030       0.003368
          27  ( 2:1:   7/   1)   222u2udd       -0.100992       0.010199
          29  ( 2:1:   9/   1)   222u202d        0.087467       0.007650
          44  ( 2:1:   4/   2)   22u2220d       -0.099477       0.009896
         115  ( 3:1:   5/   2)   22ud2202       -0.153166       0.023460
         135  ( 3:1:   5/   4)   u22d2202       -0.115783       0.013406
         207  ( 4:1:   1/   2)   2u2u22dd       -0.070995       0.005040
         208  ( 4:1:   2/   2)   2u2u2d2d        0.063898       0.004083
         261  ( 5:1:   1/   7)   202u222d       -0.099205       0.009842
 
  The CI coefficients for the MIXED state nr.   4
--------------------------------------------------------------------------------
 CI COEFFICIENTS LARGER THAN  0.50D-01
  Occupation of active orbitals, and spin coupling
  of open shells. (u,d: Spin up or down).
  SGUGA info is (Midvert:IsyUp:UpperWalk/LowerWalk)
        Conf  SGUGA info        Occupation    Coefficient         Weight
           2  ( 1:1:   2/   1)   22222ud0        0.682083       0.465237
           3  ( 1:1:   3/   1)   2222u2d0       -0.161064       0.025942
           4  ( 1:1:   4/   1)   22222020        0.166348       0.027672
           7  ( 1:1:   7/   1)   22222u0d       -0.161170       0.025976
           8  ( 1:1:   8/   1)   2222u20d       -0.292948       0.085818
          10  ( 1:1:  10/   1)   2222udud        0.053817       0.002896
          12  ( 1:1:  12/   1)   2222uudd        0.067291       0.004528
          24  ( 2:1:   4/   1)   222u220d        0.083977       0.007052
          44  ( 2:1:   4/   2)   22u2220d       -0.500769       0.250769
          49  ( 2:1:   9/   2)   22u2202d        0.060651       0.003679
          61  ( 2:1:   1/   3)   2u2222d0        0.092036       0.008471
          62  ( 2:1:   2/   3)   2u222d20        0.156140       0.024380
          87  ( 2:1:   7/   4)   u2222udd       -0.067442       0.004548
         146  ( 3:1:   6/   5)   22022ud2       -0.052118       0.002716
         165  ( 3:1:   5/   7)   u2d22202       -0.123611       0.015280
         171  ( 3:1:   1/   8)   20222220       -0.100331       0.010066
         196  ( 3:1:   6/  10)   02222ud2       -0.056567       0.003200
         219  ( 4:1:   1/   4)   2uu222dd       -0.061586       0.003793
 
  The CI coefficients for the MIXED state nr.   5
--------------------------------------------------------------------------------
 CI COEFFICIENTS LARGER THAN  0.50D-01
  Occupation of active orbitals, and spin coupling
  of open shells. (u,d: Spin up or down).
  SGUGA info is (Midvert:IsyUp:UpperWalk/LowerWalk)
        Conf  SGUGA info        Occupation    Coefficient         Weight
           2  ( 1:1:   2/   1)   22222ud0       -0.585508       0.342820
           3  ( 1:1:   3/   1)   2222u2d0        0.108198       0.011707
           4  ( 1:1:   4/   1)   22222020       -0.127907       0.016360
           7  ( 1:1:   7/   1)   22222u0d       -0.255416       0.065237
           8  ( 1:1:   8/   1)   2222u20d       -0.317039       0.100514
          24  ( 2:1:   4/   1)   222u220d        0.099215       0.009844
          44  ( 2:1:   4/   2)   22u2220d       -0.591718       0.350130
          47  ( 2:1:   7/   2)   22u22udd       -0.054450       0.002965
          49  ( 2:1:   9/   2)   22u2202d        0.063372       0.004016
          62  ( 2:1:   2/   3)   2u222d20       -0.139938       0.019583
          84  ( 2:1:   4/   4)   u222220d        0.053778       0.002892
          87  ( 2:1:   7/   4)   u2222udd        0.070203       0.004928
         146  ( 3:1:   6/   5)   22022ud2        0.057590       0.003317
         165  ( 3:1:   5/   7)   u2d22202       -0.146054       0.021332
         171  ( 3:1:   1/   8)   20222220        0.082598       0.006822
         219  ( 4:1:   1/   4)   2uu222dd       -0.051574       0.002660
         293  ( 5:1:   1/  15)   20u2222d       -0.059771       0.003573
 
  The CI coefficients for the MIXED state nr.   6
--------------------------------------------------------------------------------
 CI COEFFICIENTS LARGER THAN  0.50D-01
  Occupation of active orbitals, and spin coupling
  of open shells. (u,d: Spin up or down).
  SGUGA info is (Midvert:IsyUp:UpperWalk/LowerWalk)
        Conf  SGUGA info        Occupation    Coefficient         Weight
           7  ( 1:1:   7/   1)   22222u0d       -0.884662       0.782628
           8  ( 1:1:   8/   1)   2222u20d        0.053087       0.002818
          24  ( 2:1:   4/   1)   222u220d        0.126597       0.016027
          44  ( 2:1:   4/   2)   22u2220d        0.324287       0.105162
          45  ( 2:1:   5/   2)   22u22dud        0.068634       0.004711
          65  ( 2:1:   5/   3)   2u222dud       -0.157996       0.024963
          67  ( 2:1:   7/   3)   2u222udd       -0.150269       0.022581
          93  ( 2:1:  13/   4)   u2222d02       -0.058122       0.003378
         165  ( 3:1:   5/   7)   u2d22202        0.062083       0.003854
         173  ( 3:1:   3/   8)   20222u2d       -0.125877       0.015845
 
  The CI coefficients for the MIXED state nr.   7
--------------------------------------------------------------------------------
 CI COEFFICIENTS LARGER THAN  0.50D-01
  Occupation of active orbitals, and spin coupling
  of open shells. (u,d: Spin up or down).
  SGUGA info is (Midvert:IsyUp:UpperWalk/LowerWalk)
        Conf  SGUGA info        Occupation    Coefficient         Weight
           7  ( 1:1:   7/   1)   22222u0d       -0.096344       0.009282
           8  ( 1:1:   8/   1)   2222u20d        0.808056       0.652954
          10  ( 1:1:  10/   1)   2222udud       -0.193087       0.037283
          12  ( 1:1:  12/   1)   2222uudd       -0.275537       0.075921
          24  ( 2:1:   4/   1)   222u220d        0.076149       0.005799
          44  ( 2:1:   4/   2)   22u2220d       -0.402316       0.161858
          46  ( 2:1:   6/   2)   22u2d2ud       -0.081899       0.006707
          48  ( 2:1:   8/   2)   22u2u2dd        0.056413       0.003182
          61  ( 2:1:   1/   3)   2u2222d0        0.065016       0.004227
          71  ( 2:1:  11/   3)   2u22ud2d        0.071794       0.005154
         165  ( 3:1:   5/   7)   u2d22202       -0.091232       0.008323
         174  ( 3:1:   4/   8)   2022u22d        0.066117       0.004371
 
--
 
--- Stop Module: caspt2 at Tue Jun 10 22:26:17 2025 /rc=_RC_ALL_IS_WELL_ ---
*** files: xmldump
    saved to directory /home/pcaah4/diamide_project
--- Module caspt2 spent 6 minutes 54 seconds ---

.##################.
.# Happy landing! #.
.##################.

    Timing: Wall=661.69 User=573.73 System=78.31
******************************************************
*** WorkDir at /srv/COMMUNAL_SCRATCH/12495 cleaned ***
******************************************************
