   This run of MOLCAS is using the pymolcas driver

                             OPE
                             OPE          NMOL  CASOP  ENMOLC A   SO
                 OPE        NMOLC        AS  OP EN  MO LC     AS  OP
                OPENM       OL CA        SO  PE NM  OL CA     SOP EN
                OP EN      MO   LC       AS  OP ENMOL  CASO   PENMOL
                OP  EN     MO   LC       AS  OP EN     MO     LC ASO
               OP   E  NMOL  C  AS       OP  EN MO     LC     AS  OP
               OP  E   NMO   LC AS        OPEN  MO     LCASOP EN   M
               O  PEN   MO  LCA  SO
            OPE   NMO   L   CAS    OP
        OPENMOL  CASOP     ENMOL   CASOPE
     OPENMOLCA   SOPENMOLCASOPEN   MOLCASOPE
    OPENMOLCAS   OP           EN   MOL    CAS
    OPENMOLCAS       OP  ENM        O     LCA
    OPENMOLCAS    OPEN  MOLCASO     P  E  NMO
    OPENMOLCAS     OP               E  N  MOL
    OPENMOLCA   SO           PENM   O  L  CAS    OPEN    MO    LCAS
    OPENMOLCA   SOP           ENM   O  L  CAS   OP  EN  MOLC  AS   O
    OPENMOLCA   SOPE           NM      O  LCA   S      OP  EN MO
    OPENMOLC                AS         O  PEN   M      OL  CA  SOPE
    OPENMO        LCASOPE  NMOL        C  ASO   P      ENMOLC     AS
    OPE     NMO      LCA  SO     P     E   NM   OL  CA SO  PE N   MO
          OPENMOLCA            SOPE   NMO        LCAS  O    P  ENMO
     OPENMOLCASOPENMOLCASOPENMOLCASOPENMOLCA
        OPENMOLCASOPENMOLCASOPENMOLCASOPE
            OPENMOLCASOPENMOLCASOPENM
               OPENMOLCASOPENMOLCA        version: v23.06
                   OPENMOLCASO
                       OPE                tag:

 OpenMolcas is free software; you can redistribute it and/or modify it
 under the terms of the GNU Lesser General Public License version 2.1.
 OpenMolcas is distributed in the hope that it will be useful, but it
 is provided "as is" and without any express or implied warranties.
 For more details see the full text of the license in the file
 LICENSE or in <http://www.gnu.org/licenses/>.

                 Copyright (C) The OpenMolcas Authors
           For the author list and the recommended citation,
                   consult the file CONTRIBUTORS.md

           *************************************************
           * pymolcas version py2.24                       *
           *   build 4567b286dd94b1984b333a4ddf893180      *
           *   (after the EMIL interpreter by V. Veryazov) *
           *************************************************

configuration info
------------------
Host name: loginchem01.nottingham.ac.uk (Linux)
C Compiler ID: Intel
C flags: -std=gnu99 -gcc-sys -qopenmp
Fortran Compiler ID: Intel
Fortran flags: -fpp -i8 -heap-arrays -qopenmp
Definitions: _MOLCAS_;_I8_;_LINUX_
Parallel: OFF (GA=OFF)


   ----------------------------------------------------------------------------------------------------
  |
  |              Project: orca_geometry_optimisation_255_130_BP86_def2-SVP_def2J_scf_cas1_ras12i11_cas8
  |       Submitted from: /home/pcaah4/diamide_project
  |         Scratch area: /srv/COMMUNAL_SCRATCH/12412
  |      Save outputs to: /home/pcaah4/diamide_project
  |               Molcas: /software/chemistry/openmolcas/openmolcas-23.06-openmp
  |
  | Scratch area is empty
  |
  |       MOLCAS_DRIVER = /software/chemistry/openmolcas/openmolcas-23.06-openmp/sbin/pymolcas
  | MOLCAS_KEEP_WORKDIR = NO
  |       MOLCAS_NPROCS = 1
  |       MOLCAS_SOURCE = /software/chemistry/openmolcas/openmolcas-23.06-openmp
  |    MOLCAS_STRUCTURE = 0
  |
   ----------------------------------------------------------------------------------------------------

++ ---------   Input file   ---------

&SEWARD
TITLE
orca_geometry_optimisation_255_130_BP86_def2-SVP_def2J_scf_cas1_ras12i11
MULTIPOLES
2
SDIPOLE
ANGMOM
0 0 0
BASIS SET
C.ANO-S...4S3P1D.
C1            0.046326   -0.019355    0.184673 /Angstrom
C3            2.176213    1.207597   -0.007761 /Angstrom
C4            2.664245    1.436823   -1.449498 /Angstrom
C6            2.788071    3.058831   -3.314192 /Angstrom
C19          -0.619946   -1.380780    0.023580 /Angstrom
END OF BASIS
BASIS SET
N.ANO-S...4S3P1D.
N2            1.423093   -0.028797    0.078388 /Angstrom
N5            2.399596    2.675305   -1.969067 /Angstrom
END OF BASIS
BASIS SET
O.ANO-S...4S3P1D.
O7           -0.594858    1.007733    0.404763 /Angstrom
O8            3.245976    0.541014   -2.064326 /Angstrom
END OF BASIS
BASIS SET
H.ANO-S...2S1P.
H9           -1.119693   -1.422304   -0.966306 /Angstrom
H10          -1.409677   -1.481636    0.792170 /Angstrom
H11           0.083168   -2.233107    0.101940 /Angstrom
H12           1.886382   -0.856295   -0.306274 /Angstrom
H13           1.505937    2.011433    0.356513 /Angstrom
H14           3.072430    1.164364    0.649615 /Angstrom
H15           1.847153    3.325418   -1.408063 /Angstrom
H16           3.351487    2.210132   -3.745785 /Angstrom
H17           1.902970    3.261220   -3.954821 /Angstrom
H18           3.435200    3.961306   -3.311543 /Angstrom
END OF BASIS
END OF INPUT

&RASSCF
TITLE
orca_geometry_optimisation_255_130_BP86_def2-SVP_def2J_scf_cas1_ras12i11
LUMORB
SPIN
1
SYMMETRY
1
NACTEL
12  0  0
INACTIVE
29
DELETED  ! delete Rydberg orbitals from an initial CAS(12,11) if done
3
FROZEN
0
RAS2
8
ITERATIONS
64 25
CIROOT
7 7
1 2 3 4 5 6 7
1 1 1 1 1 1 1
LEVSHFT
0.3
CIMX
20
FILEorb = /home/pcaah4/diamide_project/cas/ras12i11/ras_orb/orca_geometry_optimisation_255_130_BP86_def2-SVP_def2J_scf_cas1_ras12i11.RasOrb
ALTEr
2
 1 36 38
 1 37 40
END OF INPUT

&RASSI
NROF JOBIPH
    1 7
    1 2 3 5 4 6 7
TOFILE
TRDI
TDMN
1.0D-6
END OF INPUT

&CASPT2
TITLE
orca_geometry_optimisation_255_130_BP86_def2-SVP_def2J_scf_cas1_ras12i11
MULTISTATE
7 1 2 3 4 5 6 7
SHIFT
0.35
MAXITER
50
END OF INPUT

-- ----------------------------------

--- Start Module: seward at Tue Jun 10 18:40:26 2025 ---
 
()()()()()()()()()()()()()()()()()()()()()()()()()()()()()()()()()()()()()()()()()()()()()()()()()()

                                              &SEWARD

                                   only a single process is used
                       available to each process: 2.0 GB of memory, 1 thread
                                            pid: 3122889
()()()()()()()()()()()()()()()()()()()()()()()()()()()()()()()()()()()()()()()()()()()()()()()()()()
 
               SEWARD will generate:
                  Multipole Moment integrals up to order  2
                  Kinetic Energy integrals
                  Nuclear Attraction integrals (point charge)
                  One-Electron Hamiltonian integrals
                  Velocity integrals
                  Orbital angular momentum around ( 0.0000  0.0000  0.0000 )
                  Velocity quadrupole around ( 2.8368  1.7940 -1.7385 )
                  Two-Electron Repulsion integrals
 
 Title:
            orca_geometry_optimisation_255_130_BP86_def2-SVP_def2J_scf_cas1_ras12i11    
 
 
                   Integrals are discarded if absolute value <: 0.10E-13
                   Integral cutoff threshold is set to       <: 0.10E-15
 
++    Symmetry information:
      ---------------------
 
                    Character Table for C1 
 
                             E  
                    a        1  x, y, xy, Rz, z, xz, Ry, yz, Rx, I
--
 
 
++    Basis set information:
      ----------------------
 
 
      Basis set label: C.ANO-S...4S3P1D......
 
      Electronic valence basis set:
      ------------------
      Associated Effective Charge   6.000000 au
      Associated Actual Charge      6.000000 au
      Nuclear Model: Point charge
 
      Shell  nPrim  nBasis  Cartesian Spherical Contaminant
         s      10       4        X                  
         p       6       3        X                  
         d       3       1                 X         
 
 
      Basis set label: N.ANO-S...4S3P1D......
 
      Electronic valence basis set:
      ------------------
      Associated Effective Charge   7.000000 au
      Associated Actual Charge      7.000000 au
      Nuclear Model: Point charge
 
      Shell  nPrim  nBasis  Cartesian Spherical Contaminant
         s      10       4        X                  
         p       6       3        X                  
         d       3       1                 X         
 
 
      Basis set label: O.ANO-S...4S3P1D......
 
      Electronic valence basis set:
      ------------------
      Associated Effective Charge   8.000000 au
      Associated Actual Charge      8.000000 au
      Nuclear Model: Point charge
 
      Shell  nPrim  nBasis  Cartesian Spherical Contaminant
         s      10       4        X                  
         p       6       3        X                  
         d       3       1                 X         
 
 
      Basis set label: H.ANO-S...2S1P......
 
      Electronic valence basis set:
      ------------------
      Associated Effective Charge   1.000000 au
      Associated Actual Charge      1.000000 au
      Nuclear Model: Point charge
 
      Shell  nPrim  nBasis  Cartesian Spherical Contaminant
         s       7       2        X                  
         p       3       1        X                  
--
 
 
++    Molecular structure info:
      -------------------------
 
                    ************************************************ 
                    **** Cartesian Coordinates / Bohr, Angstrom **** 
                    ************************************************ 
 
     Center  Label                x              y              z                     x              y              z
        1      C1               0.087543      -0.036576       0.348981              0.046326      -0.019355       0.184673
        2      C3               4.112447       2.282028      -0.014666              2.176213       1.207597      -0.007761
        3      C4               5.034693       2.715202      -2.739154              2.664245       1.436823      -1.449498
        4      C6               5.268691       5.780353      -6.262915              2.788071       3.058831      -3.314192
        5      C19             -1.171528      -2.609296       0.044560             -0.619946      -1.380780       0.023580
        6      N2               2.689256      -0.054418       0.148132              1.423093      -0.028797       0.078388
        7      N5               4.534579       5.055594      -3.720997              2.399596       2.675305      -1.969067
        8      O7              -1.124119       1.904339       0.764891             -0.594858       1.007733       0.404763
        9      O8               6.134006       1.022368      -3.901011              3.245976       0.541014      -2.064326
       10      H9              -2.115913      -2.687765      -1.826054             -1.119693      -1.422304      -0.966306
       11      H10             -2.663903      -2.799886       1.496984             -1.409677      -1.481636       0.792170
       12      H11              0.157165      -4.219961       0.192639              0.083168      -2.233107       0.101940
       13      H12              3.564745      -1.618163      -0.578774              1.886382      -0.856295      -0.306274
       14      H13              2.845808       3.801057       0.673712              1.505937       2.011433       0.356513
       15      H14              5.806051       2.200329       1.227594              3.072430       1.164364       0.649615
       16      H15              3.490613       6.284129      -2.660853              1.847153       3.325418      -1.408063
       17      H16              6.333393       4.176544      -7.078508              3.351487       2.210132      -3.745785
       18      H17              3.596092       6.162813      -7.473529              1.902970       3.261220      -3.954821
       19      H18              6.491587       7.485783      -6.257909              3.435200       3.961306      -3.311543
 
                    ************************************************* 
                    **** InterNuclear Distances / Bohr, Angstrom **** 
                    ************************************************* 
 
     Atom centers         Bohr        Angstrom
   16 H15       7 N5      1.929526        1.021061
   13 H12       6 N2      1.933952        1.023403
   17 H16       4 C6      2.090690        1.106345
   11 H10       5 C19     2.091183        1.106606
   12 H11       5 C19     2.093225        1.107687
   14 H13       2 C3      2.094203        1.108205
   10 H9        5 C19     2.096954        1.109660
   19 H18       4 C6      2.098570        1.110515
   18 H17       4 C6      2.099868        1.111202
   15 H14       2 C3      2.101947        1.112303
    8 O7        1 C1      2.325566        1.230637
    9 O8        3 C4      2.328966        1.232436
    7 N5        3 C4      2.586806        1.368879
    6 N2        1 C1      2.609515        1.380896
    6 N2        2 C3      2.740612        1.450269
    7 N5        4 C6      2.743272        1.451677
    5 C19       1 C1      2.880421        1.524253
    3 C4        2 C3      2.908782        1.539261
   11 H10      10 H9      3.369784        1.783213
   12 H11      10 H9      3.404354        1.801506
   18 H17      17 H16     3.405014        1.801856
   19 H18      18 H17     3.407620        1.803235
   15 H14      14 H13     3.410594        1.804809
   19 H18      17 H16     3.413132        1.806152
   12 H11      11 H10     3.417068        1.808235
   16 H15       3 C4      3.889416        2.058190
   14 H13       6 N2      3.894283        2.060766
   17 H16       7 N5      3.909135        2.068625
   13 H12       1 C1      3.931041        2.080217
   13 H12       2 C3      3.978653        2.105413
   15 H14       6 N2      3.995440        2.114296
   19 H18       7 N5      4.021396        2.128031
   18 H17       7 N5      4.023454        2.129120
   16 H15       4 C6      4.048481        2.142364
   11 H10       1 C1      4.065004        2.151107
   15 H14       3 C4      4.073718        2.155719
   10 H9        1 C1      4.076126        2.156993
   12 H11       1 C1      4.186884        2.215604
   14 H13       3 C4      4.197375        2.221155
   16 H15      14 H13     4.207225        2.226368
    8 O7        6 N2      4.331160        2.291951
    9 O8        7 N5      4.342520        2.297962
   13 H12      12 H11     4.356149        2.305175
   14 H13       8 O7      4.400702        2.328751
   17 H16       9 O8      4.481637        2.371580
    9 O8        2 C3      4.558192        2.412091
    8 O7        5 C19     4.570999        2.418868
    6 N2        5 C19     4.630743        2.450484
    6 N2        3 C4      4.637704        2.454167
    7 N5        2 C3      4.648414        2.459835
    2 C3        1 C1      4.659185        2.465535
    4 C6        3 C4      4.676195        2.474536
   14 H13       1 C1      4.737183        2.506809
   17 H16       3 C4      4.759425        2.518579
   15 H14      13 H12     4.781977        2.530513
   18 H17      16 H15     4.815359        2.548178
   19 H18      16 H15     4.836179        2.559196
   16 H15       2 C3      4.837954        2.560135
   14 H13       7 N5      4.872297        2.578309
   12 H11       6 N2      4.874957        2.579716
   13 H12       5 C19     4.878850        2.581776
   13 H12       9 O8      4.960923        2.625208
   11 H10       8 O7      5.003662        2.647824
   13 H12       3 C4      5.060241        2.677764
   15 H14       9 O8      5.272356        2.790011
    8 O7        2 C3      5.307728        2.808729
   10 H9        8 O7      5.365079        2.839078
    9 O8        4 C6      5.381987        2.848025
    9 O8        6 N2      5.424143        2.870333
   14 H13      13 H12     5.608346        2.967809
   17 H16      16 H15     5.660298        2.995301
--
 
 
            Nuclear Potential Energy            452.53662390 au
 
 
      Basis set specifications :
      Symmetry species         a  
      Basis functions          212
 
 
      Input file to MOLDEN was generated!
 
--- Stop Module: seward at Tue Jun 10 18:42:15 2025 /rc=_RC_ALL_IS_WELL_ ---
*** files: orca_geometry_optimisation_255_130_BP86_def2-SVP_def2J_scf_cas1_ras12i11_cas8.GssOrb
           orca_geometry_optimisation_255_130_BP86_def2-SVP_def2J_scf_cas1_ras12i11_cas8.guessorb.molden xmldump
    saved to directory /home/pcaah4/diamide_project
--- Module seward spent 1 minute 48 seconds ---

*** symbolic link created: INPORB -> orca_geometry_optimisation_255_130_BP86_def2-SVP_def2J_scf_cas1_ras12i11_cas8.GssOrb
--- Start Module: rasscf at Tue Jun 10 18:42:16 2025 ---
 
()()()()()()()()()()()()()()()()()()()()()()()()()()()()()()()()()()()()()()()()()()()()()()()()()()

                                              &RASSCF

                                   only a single process is used
                       available to each process: 2.0 GB of memory, 1 thread
                                            pid: 3122909
()()()()()()()()()()()()()()()()()()()()()()()()()()()()()()()()()()()()()()()()()()()()()()()()()()
 
 
      Header of the ONEINT file:
      --------------------------
      orca_geometry_optimisation_255_130_BP86_def2-SVP_def2J_scf_cas1_ras12i11
      Integrals generated by Gateway/Seward, Tue Jun 10 18:40:26 2025
 
 
      OrdInt status: non-squared
 
 
      Cartesian coordinates in Angstrom:
      -----------------------------------------------------
      No.  Label        X            Y            Z        
      -----------------------------------------------------
       1   C1         0.04632600  -0.01935500   0.18467300
       2   C3         2.17621300   1.20759700  -0.00776100
       3   C4         2.66424500   1.43682300  -1.44949800
       4   C6         2.78807100   3.05883100  -3.31419200
       5   C19       -0.61994600  -1.38078000   0.02358000
       6   N2         1.42309300  -0.02879700   0.07838800
       7   N5         2.39959600   2.67530500  -1.96906700
       8   O7        -0.59485800   1.00773300   0.40476300
       9   O8         3.24597600   0.54101400  -2.06432600
      10   H9        -1.11969300  -1.42230400  -0.96630600
      11   H10       -1.40967700  -1.48163600   0.79217000
      12   H11        0.08316800  -2.23310700   0.10194000
      13   H12        1.88638200  -0.85629500  -0.30627400
      14   H13        1.50593700   2.01143300   0.35651300
      15   H14        3.07243000   1.16436400   0.64961500
      16   H15        1.84715300   3.32541800  -1.40806300
      17   H16        3.35148700   2.21013200  -3.74578500
      18   H17        1.90297000   3.26122000  -3.95482100
      19   H18        3.43520000   3.96130600  -3.31154300
      -----------------------------------------------------
      Nuclear repulsion energy =  452.53662390
 
++    Wave function specifications:
      -----------------------------
 
      Number of closed shell electrons          58
      Number of electrons in active shells      12
      Max number of holes in RAS1 space          0
      Max nr of electrons in RAS3 space          0
      Number of inactive orbitals               29
      Number of active orbitals                  8
      Number of secondary orbitals             172
      Spin quantum number                      0.0
      State symmetry                             1
--
 
++    Orbital specifications:
      -----------------------
 
      Symmetry species                           1
                                                 a
      Frozen orbitals                            0
      Inactive orbitals                         29
      Active orbitals                            8
      RAS1 orbitals                              0
      RAS2 orbitals                              8
      RAS3 orbitals                              0
      Secondary orbitals                       172
      Deleted orbitals                           3
      Number of basis functions                212
--
 
++    CI expansion specifications:
      ----------------------------
 
      Number of CSFs                           336
      Number of determinants                   406
      Number of root(s) required                 7
      Root chosen for geometry opt.              7
      CI roots used                              1     2     3     4     5     6     7
      weights                                0.143 0.143 0.143 0.143 0.143 0.143 0.143
      highest root included in the CI            7
      max. size of the explicit Hamiltonian    200
--
 
++    Optimization specifications:
      ----------------------------
 
      RASSCF algorithm: Conventional
      Maximum number of macro iterations        64
      Maximum number of SX iterations           25
      Threshold for RASSCF energy            0.100E-07
      Threshold for max MO rotation          0.100E+00
      Threshold for max BLB element          0.100E-03
      Level shift parameter                  0.300E+00
      Make Quasi-Newton update
--
 
      The MO-coefficients are taken from the file:
      /home/pcaah4/diamide_project/cas/ras12i11/ras_orb/orca_geometry_optimisation_255_130_BP86_def2-SVP_def2J_scf_cas1_ras12i11.RasOrb                                                                                                                               
      Title: RASSCF average (pseudo-natural) orbitals                                      
 
      Total molecular charge    0.00
 
      Molecular orbitals exchanged:
        In symmetry  1 :  36  38
        In symmetry  1 :  37  40
 
 
      ************************************************************************************************************************
      *                                                                                                                      *
      *                                            Wave function control section                                             *
      *                                                                                                                      *
      ************************************************************************************************************************
 
 
                                         RASSCF iterations: Energy and convergence statistics
                                         ----------------------------------------------------
 
      Iter CI   SX   CI       RASSCF       Energy    max ROT     max BLB   max BLB  Level Ln srch  Step   QN   Walltime
          iter iter root      energy       change     param      element    value   shift minimum  type update hh:mm:ss
 Nr of preliminary CI iterations:   4
        1   1   18    0  -453.70328535    0.00E+00  -0.51E-01   34 144 1 -0.14E-01*  0.19   0.00    SX    NO    0:00:13
        2   3   11    0  -453.70723354   -0.39E-02*  0.31E-01   33  40 1  0.45E-02*  0.20   0.00    SX    NO    0:00:06
        3   3   11    0  -453.70798704   -0.75E-03* -0.18E-01   32  40 1  0.23E-02*  0.20   0.00    SX    NO    0:00:06
        4   4   11    0  -453.70824373   -0.26E-03* -0.11E-01   37  38 1 -0.11E-02*  0.20   0.00    SX    NO    0:00:06
        5   4   10    0  -453.70835006   -0.11E-03* -0.16E-01   37  38 1 -0.80E-03*  0.20   2.50    LS   YES    0:00:07
        6   5   10    0  -453.70842656   -0.77E-04*  0.66E-02   37  41 1  0.49E-03*  0.20   1.42    QN   YES    0:00:07
        7   4   10    0  -453.70844941   -0.23E-04*  0.35E-02   32  40 1 -0.41E-03*  0.20   1.24    QN   YES    0:00:06
        8   4    9    0  -453.70845595   -0.65E-05* -0.28E-02   32  40 1 -0.21E-03*  0.20   1.59    QN   YES    0:00:06
        9   4    9    0  -453.70845870   -0.27E-05* -0.96E-03   34  38 1 -0.68E-04   0.20   1.06    QN   YES    0:00:06
       10   4    8    0  -453.70845917   -0.47E-06*  0.86E-03   33  40 1  0.59E-04   0.20   1.72    QN   YES    0:00:06
       11   4    8    0  -453.70845941   -0.23E-06* -0.29E-03   32  40 1  0.34E-04   0.20   1.21    QN   YES    0:00:06
       12   3    7    0  -453.70845945   -0.43E-07*  0.15E-03   32  40 1  0.15E-04   0.20   1.30    QN   YES    0:00:06
       13   3    6    0  -453.70845946   -0.13E-07*  0.92E-04   33  40 1 -0.89E-05   0.20   1.31    QN   YES    0:00:06
       14   1    5    0  -453.70845946   -0.32E-08   0.24E-04   33  39 1 -0.40E-05   0.20   1.14    QN   YES    0:00:06
      Convergence after 14 iterations
       15   1    5    0  -453.70845946   -0.58E-09   0.24E-04   32  40 1 -0.31E-05   0.20   1.14    QN   YES    0:00:06
 
      ************************************************************************************************************************
                                                      Wave function printout:
                       occupation of active orbitals, and spin coupling of open shells (u,d: Spin up or down)
      ************************************************************************************************************************
 
      Note: transformation to natural orbitals
      has been made, which may change the order of the CSFs.
 
      printout of CI-coefficients larger than  0.05 for root  1
      energy=    -453.960283
      conf/sym  11111111     Coeff  Weight
             1  22222200   0.96255 0.92651
             2  22222ud0  -0.13915 0.01936
             4  22222020  -0.07709 0.00594
            17  22220202  -0.08484 0.00720
            61  2u2222d0  -0.07860 0.00618
            62  2u222d20  -0.06623 0.00439
            84  u222220d  -0.09437 0.00891
           171  20222220  -0.09934 0.00987
           195  02222202  -0.07675 0.00589
 
      printout of CI-coefficients larger than  0.05 for root  2
      energy=    -453.749907
      conf/sym  11111111     Coeff  Weight
             2  22222ud0  -0.06831 0.00467
            21  222u22d0   0.95771 0.91721
            22  222u2d20   0.09502 0.00903
            24  222u220d   0.06633 0.00440
            38  222u02d2   0.08240 0.00679
           111  22ud2220   0.05182 0.00269
           121  2u2d2220   0.18586 0.03454
           213  u22u22dd  -0.07802 0.00609
           270  022u22d2  -0.07700 0.00593
 
      printout of CI-coefficients larger than  0.05 for root  3
      energy=    -453.735241
      conf/sym  11111111     Coeff  Weight
             7  22222u0d   0.24629 0.06066
             8  2222u20d  -0.05758 0.00331
            24  222u220d  -0.05554 0.00308
            44  22u2220d  -0.91496 0.83714
            45  22u22dud   0.06432 0.00414
            47  22u22udd   0.11677 0.01364
            49  22u2202d   0.07773 0.00604
            54  22u2d202  -0.16614 0.02760
           165  u2d22202  -0.12080 0.01459
           219  2uu222dd  -0.06559 0.00430
           220  2uu22d2d  -0.05561 0.00309
           293  20u2222d  -0.09479 0.00898
 
      printout of CI-coefficients larger than  0.05 for root  4
      energy=    -453.644446
      conf/sym  11111111     Coeff  Weight
             2  22222ud0   0.18664 0.03483
             7  22222u0d  -0.16629 0.02765
             8  2222u20d   0.90105 0.81189
            12  2222uudd  -0.09502 0.00903
            13  2222u02d  -0.07752 0.00601
            44  22u2220d  -0.09992 0.00998
            68  2u22u2dd   0.06656 0.00443
            84  u222220d  -0.07876 0.00620
            94  u222d202   0.22866 0.05229
           174  2022u22d   0.09038 0.00817
 
      printout of CI-coefficients larger than  0.05 for root  5
      energy=    -453.639406
      conf/sym  11111111     Coeff  Weight
             1  22222200   0.06171 0.00381
             2  22222ud0   0.40997 0.16807
             4  22222020  -0.08802 0.00775
             7  22222u0d   0.81331 0.66148
             8  2222u20d   0.07789 0.00607
            24  222u220d  -0.07342 0.00539
            44  22u2220d   0.21431 0.04593
            62  2u222d20   0.10560 0.01115
            65  2u222dud   0.12921 0.01669
            67  2u222udd   0.17404 0.03029
           173  20222u2d   0.11349 0.01288
 
      printout of CI-coefficients larger than  0.05 for root  6
      energy=    -453.619621
      conf/sym  11111111     Coeff  Weight
             1  22222200  -0.11118 0.01236
             2  22222ud0  -0.79485 0.63179
             4  22222020   0.16385 0.02685
             7  22222u0d   0.38374 0.14726
             8  2222u20d   0.26018 0.06770
            19  22220ud2   0.07652 0.00586
            21  222u22d0  -0.05265 0.00277
            44  22u2220d   0.07831 0.00613
            62  2u222d20  -0.20026 0.04010
            65  2u222dud   0.07058 0.00498
            67  2u222udd   0.10049 0.01010
            87  u2222udd   0.07400 0.00548
            94  u222d202   0.06556 0.00430
           171  20222220  -0.08947 0.00800
           173  20222u2d   0.06291 0.00396
           196  02222ud2   0.05987 0.00358
 
      printout of CI-coefficients larger than  0.05 for root  7
      energy=    -453.610313
      conf/sym  11111111     Coeff  Weight
             7  22222u0d   0.09891 0.00978
            21  222u22d0  -0.06061 0.00367
            24  222u220d   0.89250 0.79655
            25  222u2dud   0.23279 0.05419
            27  222u2udd   0.31568 0.09966
           112  22ud22ud  -0.05937 0.00352
           201  22uu22dd   0.05650 0.00319
           208  2u2u2d2d  -0.07879 0.00621
           261  202u222d   0.08312 0.00691
 
      Natural orbitals and occupation numbers for root  1
      sym 1:   1.971942   1.996124   1.999875   1.999832   1.994015   1.953506   0.050485   0.034221
 
      Natural orbitals and occupation numbers for root  2
      sym 1:   1.971544   1.999873   1.999686   1.004051   1.994600   1.999367   0.996472   0.034407
 
      Natural orbitals and occupation numbers for root  3
      sym 1:   1.999835   1.994665   1.010938   1.999041   1.998515   1.951972   0.052377   0.992658
 
      Natural orbitals and occupation numbers for root  4
      sym 1:   1.981135   1.974674   1.999521   1.999757   1.070338   1.929386   0.092515   0.952673
 
      Natural orbitals and occupation numbers for root  5
      sym 1:   1.994869   1.917218   1.981918   1.998693   1.988889   1.059418   0.107511   0.951484
 
      Natural orbitals and occupation numbers for root  6
      sym 1:   1.984205   1.951268   1.997465   1.998903   1.919778   1.079374   0.947327   0.121680
 
      Natural orbitals and occupation numbers for root  7
      sym 1:   1.999827   1.995088   1.997168   1.010536   1.999189   1.931608   0.072373   0.994211
 
      ************************************************************************************************************************
      *                                                                                                                      *
      *                                                    Final results                                                     *
      *                                                                                                                      *
      ************************************************************************************************************************
 
 
++    Wave function specifications:
      -----------------------------
 
      Number of closed shell electrons          58
      Number of electrons in active shells      12
      Max number of holes in RAS1 space          0
      Max nr of electrons in RAS3 space          0
      Number of inactive orbitals               29
      Number of active orbitals                  8
      Number of secondary orbitals             172
      Spin quantum number                      0.0
      State symmetry                             1
--
 
++    Orbital specifications:
      -----------------------
 
      Symmetry species                           1
                                                 a
      Frozen orbitals                            0
      Inactive orbitals                         29
      Active orbitals                            8
      RAS1 orbitals                              0
      RAS2 orbitals                              8
      RAS3 orbitals                              0
      Secondary orbitals                       172
      Deleted orbitals                           3
      Number of basis functions                212
--
 
++    CI expansion specifications:
      ----------------------------
 
      Number of CSFs                           336
      Number of determinants                   406
      Number of root(s) required                 7
      CI roots used                              1     2     3     4     5     6     7
      weights                                0.143 0.143 0.143 0.143 0.143 0.143 0.143
      highest root included in the CI            7
      Root passed to geometry opt.               7
--
 
++    Final optimization conditions:
      ------------------------------
 
      Average CI energy                            -453.70845946
      RASSCF energy for state  7                   -453.61031300
      Super-CI energy                                -0.00000000
      RASSCF energy change                            0.00000000
      Max change in MO coefficients               0.249E-04
      Max non-diagonal density matrix element     0.239E-04
      Maximum BLB matrix element                 -0.305E-05
      (orbital pair  32,  40 in symmetry   1)
      Norm of electronic gradient            0.406E+00
--
 
 
      Final state energy(ies):
      ------------------------
 
::    RASSCF root number  1 Total energy:   -453.96028252
::    RASSCF root number  2 Total energy:   -453.74990743
::    RASSCF root number  3 Total energy:   -453.73524130
::    RASSCF root number  4 Total energy:   -453.64444558
::    RASSCF root number  5 Total energy:   -453.63940561
::    RASSCF root number  6 Total energy:   -453.61962082
::    RASSCF root number  7 Total energy:   -453.61031300
 
++    Molecular orbitals:
      -------------------
 
      Pseudonatural active orbitals and approximate occupation numbers
 
 
 
 
      Molecular orbitals for symmetry species 1: a  
 
 
      Orbital                 1         2         3         4         5         6         7         8         9        10
      Energy           -20.5997  -20.5178  -15.6350  -15.5802  -11.3414  -11.2872  -11.2858  -11.2601  -11.2574   -1.4243
      Occ. No.           2.0000    2.0000    2.0000    2.0000    2.0000    2.0000    2.0000    2.0000    2.0000    2.0000
 
     1 C1     1s        -0.0003    0.0001    0.0003   -0.0000    1.0000    0.0001    0.0001    0.0000    0.0037   -0.0395
     2 C1     2s        -0.0007    0.0006    0.0013   -0.0002    0.0022   -0.0008    0.0007   -0.0000    0.0003    0.3498
     3 C1     3s         0.0006    0.0004    0.0005   -0.0002   -0.0002   -0.0007    0.0005   -0.0001    0.0006   -0.0078
     4 C1     4s         0.0004    0.0000    0.0001   -0.0001    0.0012   -0.0003    0.0001   -0.0000    0.0002    0.0028
     5 C1     2px        0.0012   -0.0001    0.0017   -0.0005    0.0013    0.0000    0.0004   -0.0003    0.0004   -0.0438
     6 C1     3px        0.0007   -0.0004    0.0012   -0.0006    0.0014   -0.0003    0.0003   -0.0004   -0.0001    0.0221
     7 C1     4px       -0.0001   -0.0002   -0.0001   -0.0001    0.0005   -0.0003   -0.0001   -0.0001   -0.0002   -0.0134
     8 C1     2py       -0.0029    0.0000   -0.0001   -0.0002    0.0009    0.0001    0.0003   -0.0003    0.0007    0.0979
     9 C1     3py       -0.0020    0.0000   -0.0001   -0.0003    0.0008   -0.0004    0.0003   -0.0004   -0.0001   -0.0661
    10 C1     4py        0.0004    0.0000    0.0000   -0.0001    0.0007   -0.0004   -0.0000   -0.0001   -0.0003    0.0232
    11 C1     2pz       -0.0005   -0.0002   -0.0002    0.0000    0.0001    0.0001   -0.0002   -0.0000    0.0000    0.0168
    12 C1     3pz       -0.0003   -0.0002    0.0000    0.0000    0.0000    0.0001   -0.0002    0.0000   -0.0001   -0.0146
    13 C1     4pz        0.0001    0.0000    0.0001   -0.0000    0.0001   -0.0000   -0.0000    0.0000   -0.0000    0.0052
    14 C1     3d2-      -0.0001    0.0000    0.0001    0.0000   -0.0004    0.0000    0.0000   -0.0000   -0.0000   -0.0314
    15 C1     3d1-       0.0000   -0.0000   -0.0000    0.0000    0.0002   -0.0000   -0.0000    0.0000    0.0000    0.0122
    16 C1     3d0        0.0000   -0.0000    0.0001    0.0000   -0.0004   -0.0001   -0.0000    0.0000   -0.0001   -0.0256
    17 C1     3d1+      -0.0000   -0.0000    0.0000    0.0000   -0.0001   -0.0000   -0.0000   -0.0000   -0.0000   -0.0086
    18 C1     3d2+      -0.0001    0.0000   -0.0002   -0.0000   -0.0001    0.0000    0.0000    0.0000    0.0000   -0.0114
    19 C3     1s        -0.0001    0.0001    0.0003    0.0001   -0.0001    0.9752    0.2189    0.0000   -0.0001   -0.0100
    20 C3     2s        -0.0007    0.0004    0.0017    0.0005    0.0006   -0.0014   -0.0001    0.0004   -0.0008    0.0141
    21 C3     3s        -0.0004    0.0002    0.0008    0.0004    0.0004   -0.0026   -0.0002    0.0002   -0.0005   -0.0213
    22 C3     4s        -0.0001   -0.0001    0.0001    0.0000    0.0000    0.0007    0.0002   -0.0000   -0.0001   -0.0026
    23 C3     2px        0.0000   -0.0008   -0.0006    0.0004    0.0002   -0.0006   -0.0001   -0.0002   -0.0004   -0.0206
    24 C3     3px       -0.0001   -0.0007   -0.0003    0.0004    0.0005   -0.0007    0.0003   -0.0004   -0.0005   -0.0048
    25 C3     4px       -0.0001    0.0001    0.0001   -0.0000    0.0002   -0.0006    0.0001   -0.0001   -0.0001   -0.0033
    26 C3     2py        0.0001    0.0012   -0.0003   -0.0007    0.0005   -0.0002   -0.0000    0.0003    0.0003   -0.0166
    27 C3     3py        0.0000    0.0012    0.0002   -0.0007    0.0005    0.0000    0.0002    0.0003    0.0002   -0.0009
    28 C3     4py       -0.0000   -0.0000    0.0001    0.0000    0.0001   -0.0007   -0.0000    0.0000   -0.0000   -0.0032
    29 C3     2pz       -0.0003   -0.0001   -0.0004    0.0002   -0.0008    0.0003    0.0003   -0.0004   -0.0000    0.0018
    30 C3     3pz       -0.0003   -0.0000   -0.0005    0.0003   -0.0009    0.0001   -0.0003   -0.0002   -0.0001    0.0035
    31 C3     4pz        0.0000    0.0001   -0.0000    0.0002   -0.0001   -0.0001   -0.0001    0.0001   -0.0000    0.0016
    32 C3     3d2-      -0.0000   -0.0000   -0.0000   -0.0000    0.0000   -0.0001   -0.0000    0.0000   -0.0000    0.0039
    33 C3     3d1-       0.0000   -0.0001   -0.0000    0.0000    0.0000    0.0000   -0.0000   -0.0000    0.0000    0.0001
    34 C3     3d0        0.0000   -0.0000    0.0001    0.0000   -0.0000   -0.0000   -0.0000    0.0001    0.0000   -0.0019
    35 C3     3d1+      -0.0000   -0.0000    0.0000   -0.0000   -0.0000    0.0000   -0.0000   -0.0000   -0.0000   -0.0009
    36 C3     3d2+       0.0000   -0.0001    0.0001   -0.0000    0.0000    0.0001   -0.0001    0.0000   -0.0000   -0.0009
    37 C4     1s        -0.0000    0.0003   -0.0001    0.0003   -0.0002    0.2190   -0.9758    0.0003    0.0001    0.0003
    38 C4     2s        -0.0000    0.0007   -0.0008    0.0011   -0.0017    0.0013   -0.0024   -0.0005    0.0006    0.0357
    39 C4     3s         0.0000   -0.0006   -0.0005    0.0005   -0.0014    0.0002   -0.0001   -0.0004    0.0005    0.0133
    40 C4     4s         0.0000   -0.0004   -0.0002    0.0001   -0.0004    0.0003   -0.0014   -0.0002    0.0002    0.0046
    41 C4     2px       -0.0001    0.0015    0.0004   -0.0003    0.0002   -0.0002    0.0000    0.0002   -0.0001   -0.0046
    42 C4     3px       -0.0002    0.0010    0.0003   -0.0002    0.0001    0.0001    0.0002    0.0000   -0.0002   -0.0072
    43 C4     4px       -0.0001   -0.0002   -0.0000    0.0000   -0.0000    0.0002   -0.0001   -0.0001   -0.0001   -0.0017
    44 C4     2py        0.0002   -0.0025   -0.0004    0.0014   -0.0000    0.0000   -0.0009   -0.0004   -0.0004   -0.0098
    45 C4     3py        0.0002   -0.0019   -0.0002    0.0010   -0.0000    0.0003   -0.0005   -0.0007   -0.0004   -0.0063
    46 C4     4py       -0.0000    0.0002    0.0002   -0.0001   -0.0000    0.0002   -0.0000   -0.0003   -0.0000   -0.0017
    47 C4     2pz        0.0002   -0.0015    0.0002   -0.0007   -0.0001    0.0012    0.0005    0.0001    0.0003    0.0054
    48 C4     3pz        0.0005   -0.0010    0.0004   -0.0005   -0.0000    0.0008    0.0002    0.0007    0.0004    0.0075
    49 C4     4pz        0.0002    0.0002    0.0001    0.0001    0.0001   -0.0001    0.0003    0.0005    0.0000    0.0021
    50 C4     3d2-      -0.0000    0.0001    0.0001    0.0001    0.0000   -0.0000    0.0003   -0.0000   -0.0000   -0.0014
    51 C4     3d1-      -0.0000   -0.0002    0.0001    0.0001    0.0000    0.0000   -0.0001   -0.0000    0.0000    0.0002
    52 C4     3d0       -0.0000    0.0001   -0.0000    0.0001    0.0000    0.0000    0.0001   -0.0000    0.0000   -0.0001
    53 C4     3d1+       0.0000    0.0000   -0.0000   -0.0000    0.0000   -0.0001    0.0001   -0.0000   -0.0000   -0.0014
    54 C4     3d2+      -0.0000   -0.0000   -0.0001    0.0002    0.0000    0.0000    0.0003   -0.0001   -0.0000   -0.0010
    55 C6     1s        -0.0000    0.0001   -0.0001    0.0003   -0.0001   -0.0000    0.0004    0.9997   -0.0000    0.0006
    56 C6     2s        -0.0001    0.0005   -0.0005    0.0014   -0.0004    0.0000    0.0005    0.0001   -0.0001    0.0080
    57 C6     3s        -0.0000    0.0003   -0.0004    0.0003   -0.0004   -0.0000    0.0005   -0.0016   -0.0000    0.0069
    58 C6     4s         0.0000    0.0001   -0.0001   -0.0001   -0.0001   -0.0000    0.0002    0.0009    0.0000    0.0027
    59 C6     2px        0.0000    0.0001   -0.0001   -0.0002   -0.0000   -0.0003    0.0000   -0.0001    0.0000   -0.0003
    60 C6     3px        0.0000    0.0001   -0.0001   -0.0000   -0.0000   -0.0002    0.0000    0.0001    0.0000    0.0006
    61 C6     4px        0.0000   -0.0000   -0.0000    0.0001    0.0000   -0.0000    0.0000   -0.0002    0.0000    0.0005
    62 C6     2py       -0.0000   -0.0002   -0.0002   -0.0000   -0.0001   -0.0000   -0.0003    0.0001    0.0000    0.0006
    63 C6     3py       -0.0000   -0.0001   -0.0002    0.0002   -0.0001   -0.0000   -0.0005   -0.0000    0.0000    0.0005
    64 C6     4py       -0.0000    0.0000   -0.0000    0.0001    0.0000    0.0000   -0.0001   -0.0002   -0.0000   -0.0005
    65 C6     2pz        0.0001    0.0002   -0.0002    0.0005   -0.0003    0.0000    0.0004    0.0000    0.0000    0.0068
    66 C6     3pz        0.0001    0.0002   -0.0002   -0.0002   -0.0003   -0.0001    0.0004   -0.0002    0.0001    0.0068
    67 C6     4pz       -0.0000    0.0000   -0.0000   -0.0002   -0.0000   -0.0001    0.0001    0.0006    0.0000    0.0010
    68 C6     3d2-       0.0000   -0.0000   -0.0000    0.0000   -0.0000   -0.0000    0.0000    0.0000    0.0000    0.0003
    69 C6     3d1-      -0.0000   -0.0000    0.0000   -0.0000    0.0000   -0.0000    0.0001    0.0000   -0.0000   -0.0003
    70 C6     3d0        0.0000    0.0000   -0.0000   -0.0001   -0.0000    0.0000    0.0000   -0.0001   -0.0000    0.0003
    71 C6     3d1+      -0.0000   -0.0000   -0.0000    0.0001    0.0000   -0.0000   -0.0000    0.0001    0.0000   -0.0001
    72 C6     3d2+      -0.0000   -0.0000    0.0000    0.0000    0.0000   -0.0000    0.0000   -0.0000    0.0000    0.0000
    73 C19    1s        -0.0002    0.0000   -0.0001   -0.0000    0.0036    0.0002    0.0000   -0.0000   -0.9999   -0.0141
    74 C19    2s        -0.0010    0.0002   -0.0002   -0.0002    0.0005    0.0008    0.0000   -0.0002   -0.0019   -0.0101
    75 C19    3s        -0.0006    0.0001   -0.0001   -0.0002    0.0002    0.0004    0.0000   -0.0002    0.0005   -0.0378
    76 C19    4s        -0.0001    0.0000   -0.0000   -0.0001    0.0001   -0.0000    0.0000   -0.0001   -0.0012   -0.0035
    77 C19    2px       -0.0008    0.0002   -0.0004    0.0000   -0.0002    0.0002    0.0001   -0.0000    0.0002   -0.0088
    78 C19    3px       -0.0005    0.0003   -0.0003    0.0000   -0.0004    0.0002    0.0001    0.0000    0.0001   -0.0073
    79 C19    4px        0.0002    0.0000    0.0000    0.0000   -0.0000   -0.0000    0.0000    0.0000   -0.0002    0.0077
    80 C19    2py        0.0001   -0.0001    0.0003   -0.0002    0.0004    0.0002    0.0000   -0.0001    0.0002    0.0200
    81 C19    3py        0.0003   -0.0001    0.0003   -0.0002   -0.0001    0.0001    0.0000   -0.0001    0.0000   -0.0071
    82 C19    4py        0.0001   -0.0000   -0.0001   -0.0000   -0.0001   -0.0001    0.0000    0.0000   -0.0004    0.0051
    83 C19    2pz       -0.0000   -0.0001    0.0001   -0.0000    0.0002    0.0001    0.0000   -0.0001    0.0000    0.0046
    84 C19    3pz       -0.0000   -0.0001    0.0001   -0.0001    0.0001    0.0001    0.0000   -0.0001   -0.0000    0.0001
    85 C19    4pz        0.0000    0.0000   -0.0000   -0.0000   -0.0000   -0.0000    0.0000   -0.0000   -0.0000    0.0003
    86 C19    3d2-      -0.0001   -0.0000   -0.0000   -0.0000    0.0000    0.0001   -0.0000   -0.0000    0.0001    0.0007
    87 C19    3d1-       0.0000    0.0000    0.0000   -0.0000   -0.0000    0.0000   -0.0000    0.0000    0.0000    0.0012
    88 C19    3d0        0.0001   -0.0000   -0.0001    0.0000    0.0001   -0.0000   -0.0000    0.0000   -0.0001    0.0014
    89 C19    3d1+       0.0000    0.0000   -0.0000   -0.0000    0.0000   -0.0000    0.0000    0.0000    0.0000    0.0003
    90 C19    3d2+      -0.0001   -0.0000   -0.0000    0.0000   -0.0001   -0.0000   -0.0000    0.0000   -0.0001   -0.0068
    91 N2     1s        -0.0001   -0.0000    0.9998    0.0000   -0.0002    0.0001   -0.0001    0.0000   -0.0001   -0.0175
    92 N2     2s        -0.0006   -0.0002   -0.0001    0.0001   -0.0003    0.0014   -0.0004    0.0002   -0.0006    0.1150
    93 N2     3s        -0.0004   -0.0001   -0.0014    0.0001   -0.0004    0.0008   -0.0004    0.0001   -0.0004   -0.0470
    94 N2     4s        -0.0001   -0.0000    0.0004    0.0000    0.0000    0.0003   -0.0001    0.0000   -0.0001   -0.0112
    95 N2     2px       -0.0001    0.0005    0.0005   -0.0003   -0.0001    0.0007    0.0002    0.0000    0.0004   -0.0313
    96 N2     3px       -0.0000    0.0006    0.0006   -0.0004    0.0002    0.0005    0.0002    0.0000    0.0003    0.0135
    97 N2     4px        0.0000    0.0000   -0.0002   -0.0000   -0.0002   -0.0000   -0.0000   -0.0000   -0.0001   -0.0064
    98 N2     2py        0.0014   -0.0000   -0.0006   -0.0001    0.0003    0.0008   -0.0001   -0.0000    0.0002    0.0368
    99 N2     3py        0.0017   -0.0001   -0.0001   -0.0002    0.0003    0.0008   -0.0001   -0.0000    0.0001    0.0122
   100 N2     4py        0.0000   -0.0000    0.0005   -0.0000   -0.0000    0.0002    0.0001   -0.0000   -0.0001   -0.0057
   101 N2     2pz        0.0003    0.0003   -0.0004   -0.0001   -0.0000   -0.0002   -0.0001    0.0001    0.0002    0.0091
   102 N2     3pz        0.0003    0.0005   -0.0000   -0.0001   -0.0002   -0.0002    0.0001    0.0001    0.0003    0.0107
   103 N2     4pz       -0.0000    0.0001   -0.0003   -0.0000   -0.0001   -0.0000   -0.0000    0.0000    0.0000    0.0002
   104 N2     3d2-      -0.0001    0.0000   -0.0002   -0.0000   -0.0001   -0.0000   -0.0000    0.0000    0.0000   -0.0032
   105 N2     3d1-      -0.0000    0.0000    0.0001    0.0000   -0.0000   -0.0000    0.0000    0.0000   -0.0000   -0.0006
   106 N2     3d0        0.0000    0.0000    0.0000    0.0000    0.0001    0.0001    0.0000   -0.0000    0.0001   -0.0026
   107 N2     3d1+      -0.0000    0.0000   -0.0000   -0.0000    0.0000    0.0000    0.0000    0.0000    0.0000   -0.0012
   108 N2     3d2+       0.0000   -0.0000   -0.0000   -0.0000    0.0001   -0.0000   -0.0000   -0.0000   -0.0000    0.0044
   109 N5     1s        -0.0000    0.0002    0.0001    0.9999    0.0001   -0.0000    0.0003    0.0001    0.0000   -0.0015
   110 N5     2s        -0.0003    0.0010    0.0005    0.0006    0.0005    0.0001    0.0003    0.0017    0.0000    0.0011
   111 N5     3s        -0.0002    0.0007    0.0003   -0.0010    0.0003   -0.0000    0.0004    0.0010   -0.0000   -0.0049
   112 N5     4s        -0.0001    0.0002    0.0001    0.0006    0.0001   -0.0000   -0.0000    0.0004   -0.0000   -0.0010
   113 N5     2px        0.0001   -0.0007    0.0002   -0.0005    0.0002    0.0002   -0.0003    0.0002    0.0001   -0.0001
   114 N5     3px        0.0001   -0.0008    0.0003   -0.0003    0.0004    0.0002   -0.0002    0.0003    0.0001   -0.0006
   115 N5     4px       -0.0000   -0.0000    0.0000    0.0001    0.0001    0.0000   -0.0000    0.0001    0.0000   -0.0002
   116 N5     2py        0.0000    0.0004   -0.0001    0.0005    0.0001   -0.0003    0.0000    0.0003   -0.0000   -0.0036
   117 N5     3py       -0.0000    0.0005    0.0001    0.0002    0.0003   -0.0002   -0.0000    0.0001   -0.0000   -0.0039
   118 N5     4py       -0.0000    0.0000    0.0001   -0.0003    0.0001    0.0000    0.0002   -0.0001    0.0000   -0.0017
   119 N5     2pz       -0.0002    0.0012   -0.0003    0.0006   -0.0004    0.0000    0.0004   -0.0009   -0.0001    0.0061
   120 N5     3pz       -0.0002    0.0015   -0.0005    0.0003   -0.0007   -0.0001    0.0005   -0.0008   -0.0001    0.0100
   121 N5     4pz       -0.0000    0.0000   -0.0001   -0.0003   -0.0001   -0.0000   -0.0002   -0.0002    0.0000    0.0025
   122 N5     3d2-       0.0000    0.0000    0.0000   -0.0001    0.0000   -0.0000   -0.0001    0.0000    0.0000   -0.0001
   123 N5     3d1-       0.0000   -0.0000   -0.0000    0.0001   -0.0000   -0.0000   -0.0001    0.0000   -0.0000   -0.0001
   124 N5     3d0        0.0000    0.0001   -0.0000   -0.0001   -0.0000   -0.0000    0.0001   -0.0000    0.0000    0.0000
   125 N5     3d1+       0.0000   -0.0000    0.0000    0.0000    0.0000    0.0000   -0.0001    0.0000    0.0000   -0.0000
   126 N5     3d2+       0.0000    0.0000   -0.0000    0.0000    0.0000   -0.0000   -0.0001    0.0001   -0.0000   -0.0001
   127 O7     1s        -0.9997   -0.0000    0.0000    0.0000   -0.0002   -0.0000   -0.0000    0.0000   -0.0001   -0.0240
   128 O7     2s         0.0013    0.0000    0.0002    0.0000    0.0004   -0.0002   -0.0001    0.0001   -0.0003    0.6915
   129 O7     3s         0.0013    0.0000    0.0001    0.0000    0.0000   -0.0001   -0.0001    0.0000   -0.0003   -0.0346
   130 O7     4s        -0.0001    0.0000    0.0000    0.0000    0.0000    0.0000   -0.0000    0.0000   -0.0001   -0.0141
   131 O7     2px       -0.0002    0.0001   -0.0003    0.0001    0.0003   -0.0001   -0.0000    0.0000   -0.0001    0.0832
   132 O7     3px        0.0002    0.0001   -0.0004    0.0001   -0.0001   -0.0001   -0.0000    0.0000   -0.0001   -0.0239
   133 O7     4px       -0.0008    0.0001   -0.0001    0.0000    0.0000   -0.0000    0.0000    0.0000    0.0000   -0.0013
   134 O7     2py        0.0002   -0.0000   -0.0002    0.0001   -0.0007   -0.0000   -0.0000    0.0000    0.0001   -0.1200
   135 O7     3py       -0.0005    0.0000   -0.0002    0.0001   -0.0004   -0.0001   -0.0000    0.0000    0.0001    0.0371
   136 O7     4py        0.0011    0.0000    0.0001    0.0000   -0.0003   -0.0000   -0.0000    0.0000   -0.0001    0.0000
   137 O7     2pz        0.0001   -0.0000   -0.0000   -0.0000   -0.0001    0.0000   -0.0000   -0.0000    0.0000   -0.0255
   138 O7     3pz       -0.0001   -0.0000    0.0000    0.0000   -0.0001    0.0000    0.0000   -0.0000    0.0001    0.0089
   139 O7     4pz        0.0003   -0.0000    0.0000    0.0000   -0.0001   -0.0000    0.0000   -0.0000    0.0000    0.0005
   140 O7     3d2-      -0.0001   -0.0000    0.0000   -0.0000   -0.0002    0.0000    0.0000   -0.0000   -0.0000   -0.0172
   141 O7     3d1-       0.0000    0.0000    0.0000    0.0000    0.0001   -0.0000    0.0000   -0.0000   -0.0000    0.0055
   142 O7     3d0        0.0000   -0.0000   -0.0000    0.0000   -0.0000    0.0000   -0.0000    0.0000    0.0000   -0.0097
   143 O7     3d1+       0.0000   -0.0000    0.0000    0.0000   -0.0000    0.0000   -0.0000   -0.0000    0.0000   -0.0036
   144 O7     3d2+      -0.0000   -0.0000   -0.0001    0.0000   -0.0001   -0.0000   -0.0000    0.0000    0.0000   -0.0072
   145 O8     1s         0.0000    0.9997   -0.0001    0.0000    0.0000   -0.0000    0.0002   -0.0000   -0.0000   -0.0017
   146 O8     2s         0.0001   -0.0013   -0.0004    0.0002    0.0002    0.0003   -0.0007   -0.0003   -0.0002    0.0179
   147 O8     3s         0.0001   -0.0012   -0.0003    0.0002    0.0001    0.0002   -0.0001   -0.0002   -0.0001   -0.0043
   148 O8     4s         0.0000    0.0002   -0.0001    0.0000    0.0000    0.0001   -0.0000   -0.0000   -0.0000   -0.0013
   149 O8     2px        0.0001   -0.0002    0.0001   -0.0000    0.0000   -0.0001    0.0002    0.0000    0.0000   -0.0021
   150 O8     3px        0.0001    0.0001    0.0001    0.0000    0.0000   -0.0000    0.0001   -0.0000    0.0000    0.0019
   151 O8     4px        0.0000   -0.0007   -0.0000    0.0001    0.0000   -0.0000    0.0001   -0.0000   -0.0000    0.0000
   152 O8     2py       -0.0000    0.0003   -0.0000   -0.0002    0.0001    0.0002   -0.0007   -0.0001    0.0000    0.0026
   153 O8     3py       -0.0000   -0.0003   -0.0000   -0.0003    0.0001    0.0001   -0.0001   -0.0000    0.0000   -0.0016
   154 O8     4py       -0.0000    0.0010    0.0000   -0.0001    0.0000   -0.0000   -0.0001    0.0000    0.0000    0.0003
   155 O8     2pz       -0.0000    0.0002   -0.0002    0.0003   -0.0000    0.0000   -0.0003   -0.0000   -0.0000    0.0028
   156 O8     3pz       -0.0001   -0.0002   -0.0003    0.0002   -0.0001   -0.0001   -0.0002   -0.0000   -0.0000   -0.0005
   157 O8     4pz       -0.0000    0.0007   -0.0000   -0.0000   -0.0000   -0.0000   -0.0002   -0.0000    0.0000    0.0006
   158 O8     3d2-       0.0000    0.0000    0.0000   -0.0000    0.0000   -0.0000    0.0001    0.0000    0.0000   -0.0004
   159 O8     3d1-      -0.0000   -0.0001   -0.0000    0.0000   -0.0000    0.0000   -0.0002   -0.0000   -0.0000    0.0004
   160 O8     3d0        0.0000    0.0000   -0.0000    0.0001    0.0000    0.0000    0.0001    0.0000   -0.0000   -0.0001
   161 O8     3d1+       0.0000   -0.0000    0.0000   -0.0001    0.0000   -0.0000    0.0001   -0.0000    0.0000   -0.0004
   162 O8     3d2+       0.0000   -0.0000   -0.0000   -0.0000    0.0000   -0.0000    0.0001    0.0000   -0.0000   -0.0001
   163 H9     1s        -0.0002   -0.0002    0.0001   -0.0001    0.0001   -0.0000    0.0000   -0.0001   -0.0003    0.0147
   164 H9     2s        -0.0001   -0.0001    0.0001   -0.0001    0.0001   -0.0000    0.0000   -0.0001    0.0003    0.0044
   165 H9     2px        0.0000   -0.0000    0.0000   -0.0000    0.0000   -0.0000   -0.0000   -0.0000    0.0000    0.0011
   166 H9     2py        0.0000   -0.0000   -0.0000    0.0000    0.0000   -0.0000   -0.0000    0.0000   -0.0000    0.0011
   167 H9     2pz       -0.0000   -0.0000    0.0000   -0.0000    0.0000   -0.0000    0.0000   -0.0000    0.0001    0.0007
   168 H10    1s        -0.0002    0.0001   -0.0000   -0.0001   -0.0001   -0.0003    0.0002   -0.0000   -0.0003    0.0131
   169 H10    2s        -0.0001    0.0001   -0.0000   -0.0000   -0.0000   -0.0002    0.0001   -0.0000    0.0003    0.0018
   170 H10    2px        0.0000    0.0000    0.0000   -0.0000    0.0000   -0.0000    0.0000   -0.0000    0.0000    0.0008
   171 H10    2py        0.0001    0.0000   -0.0000   -0.0000    0.0000   -0.0000    0.0000   -0.0000   -0.0000    0.0010
   172 H10    2pz        0.0000   -0.0000    0.0000    0.0000   -0.0000    0.0000   -0.0000    0.0000   -0.0001   -0.0005
   173 H11    1s         0.0004   -0.0002    0.0005   -0.0002    0.0003   -0.0000   -0.0000   -0.0001   -0.0004    0.0187
   174 H11    2s         0.0002   -0.0002    0.0004   -0.0001    0.0002   -0.0000   -0.0000   -0.0001    0.0002    0.0049
   175 H11    2px        0.0000    0.0000   -0.0001    0.0000   -0.0000    0.0000   -0.0000    0.0000   -0.0001    0.0000
   176 H11    2py        0.0000   -0.0000    0.0000   -0.0000    0.0001    0.0000   -0.0000   -0.0000    0.0000    0.0018
   177 H11    2pz       -0.0000    0.0000   -0.0000    0.0000   -0.0000   -0.0000   -0.0000    0.0000   -0.0000   -0.0006
   178 H12    1s         0.0011    0.0001   -0.0008    0.0001    0.0001   -0.0001   -0.0001   -0.0001    0.0004    0.0407
   179 H12    2s         0.0006    0.0001   -0.0006    0.0001   -0.0001   -0.0000   -0.0001   -0.0001    0.0002   -0.0001
   180 H12    2px       -0.0000   -0.0001    0.0002    0.0000   -0.0001    0.0000    0.0000    0.0000   -0.0000   -0.0038
   181 H12    2py        0.0000    0.0000   -0.0004    0.0000    0.0000    0.0000    0.0000   -0.0000    0.0000    0.0044
   182 H12    2pz        0.0001    0.0000   -0.0002   -0.0000    0.0000    0.0000   -0.0001   -0.0000    0.0000    0.0022
   183 H13    1s        -0.0001   -0.0010   -0.0005    0.0005   -0.0004    0.0008    0.0003   -0.0001   -0.0002    0.0132
   184 H13    2s        -0.0001   -0.0006   -0.0002    0.0004   -0.0002    0.0000    0.0001   -0.0001   -0.0002   -0.0032
   185 H13    2px       -0.0000   -0.0000    0.0000    0.0000   -0.0000    0.0000   -0.0000    0.0000    0.0000   -0.0003
   186 H13    2py        0.0000    0.0000   -0.0000   -0.0001    0.0000   -0.0001    0.0000   -0.0000    0.0000   -0.0013
   187 H13    2pz        0.0000    0.0000    0.0000    0.0000    0.0000   -0.0000    0.0000   -0.0000    0.0000   -0.0000
   188 H14    1s        -0.0001    0.0006   -0.0002   -0.0003    0.0000    0.0010    0.0002    0.0000    0.0004    0.0138
   189 H14    2s        -0.0000    0.0003   -0.0001   -0.0002   -0.0001    0.0002   -0.0000    0.0000    0.0003    0.0039
   190 H14    2px        0.0000   -0.0001   -0.0000    0.0000   -0.0000   -0.0000   -0.0000    0.0000   -0.0000   -0.0011
   191 H14    2py        0.0000   -0.0000    0.0000    0.0000   -0.0000   -0.0000   -0.0000   -0.0000   -0.0000   -0.0002
   192 H14    2pz        0.0000    0.0000    0.0000    0.0000    0.0000   -0.0000    0.0001    0.0000   -0.0000   -0.0007
   193 H15    1s         0.0001   -0.0012    0.0003   -0.0008    0.0002    0.0001   -0.0003   -0.0001    0.0001   -0.0009
   194 H15    2s         0.0000   -0.0007    0.0002   -0.0006    0.0001    0.0001   -0.0001   -0.0000    0.0000   -0.0021
   195 H15    2px        0.0000   -0.0001    0.0000   -0.0003   -0.0000    0.0000   -0.0001   -0.0000    0.0000    0.0002
   196 H15    2py        0.0000    0.0000   -0.0000    0.0003   -0.0000   -0.0000    0.0001    0.0000   -0.0000    0.0001
   197 H15    2pz       -0.0000    0.0000   -0.0000    0.0003    0.0000   -0.0000   -0.0000   -0.0000   -0.0000   -0.0006
   198 H16    1s         0.0001    0.0000   -0.0001   -0.0001   -0.0003    0.0001    0.0000    0.0010    0.0001    0.0064
   199 H16    2s         0.0001    0.0001   -0.0001   -0.0000   -0.0002    0.0001   -0.0001    0.0001    0.0001    0.0041
   200 H16    2px       -0.0000   -0.0000    0.0000   -0.0000    0.0000   -0.0000   -0.0000   -0.0001   -0.0000   -0.0005
   201 H16    2py        0.0000    0.0000    0.0000    0.0000   -0.0000    0.0000    0.0000    0.0001    0.0000    0.0005
   202 H16    2pz        0.0000   -0.0000   -0.0000    0.0000   -0.0000    0.0000   -0.0000    0.0001    0.0000    0.0003
   203 H17    1s         0.0000    0.0005   -0.0001   -0.0005   -0.0002   -0.0002    0.0004    0.0005    0.0001    0.0051
   204 H17    2s         0.0000    0.0003   -0.0001   -0.0002   -0.0001   -0.0002    0.0003   -0.0001    0.0001    0.0037
   205 H17    2px        0.0000    0.0000   -0.0000   -0.0000   -0.0000   -0.0000    0.0001   -0.0000    0.0000    0.0003
   206 H17    2py        0.0000   -0.0000    0.0000    0.0000    0.0000    0.0000   -0.0000   -0.0000   -0.0000   -0.0002
   207 H17    2pz       -0.0000    0.0000    0.0000   -0.0000   -0.0000   -0.0000    0.0000    0.0000    0.0000    0.0001
   208 H18    1s         0.0000    0.0002    0.0002   -0.0005    0.0001    0.0001    0.0003    0.0005   -0.0000    0.0003
   209 H18    2s         0.0000    0.0001    0.0001   -0.0002    0.0000    0.0001    0.0002   -0.0001   -0.0000    0.0004
   210 H18    2px       -0.0000   -0.0000   -0.0000    0.0000   -0.0000    0.0000   -0.0000    0.0000   -0.0000   -0.0001
   211 H18    2py       -0.0000   -0.0000   -0.0000    0.0000   -0.0000   -0.0000   -0.0000    0.0000   -0.0000   -0.0002
   212 H18    2pz       -0.0000    0.0000   -0.0000   -0.0000   -0.0000   -0.0000   -0.0000    0.0000   -0.0000   -0.0001
 
 
      Orbital                11        12        13        14        15        16        17        18        19        20
      Energy            -1.3593   -1.2539   -1.2108   -1.0284   -0.9699   -0.9137   -0.8147   -0.7750   -0.7165   -0.6948
      Occ. No.           2.0000    2.0000    2.0000    2.0000    2.0000    2.0000    2.0000    2.0000    2.0000    2.0000
 
     1 C1     1s         0.0028   -0.0073    0.0028   -0.0173   -0.0022    0.0067   -0.0149    0.0008    0.0062    0.0037
     2 C1     2s         0.0043    0.1394    0.0021    0.2680   -0.0432   -0.0843    0.3835   -0.0189   -0.2443   -0.0890
     3 C1     3s         0.0134    0.0059    0.0140   -0.0232   -0.0114    0.0132   -0.0073   -0.0006    0.0055    0.0179
     4 C1     4s         0.0046    0.0016    0.0044   -0.0063   -0.0038    0.0052   -0.0031    0.0000    0.0034    0.0034
     5 C1     2px        0.0342    0.1397    0.0125   -0.0134    0.1073   -0.0946    0.1321   -0.0050    0.1574    0.2537
     6 C1     3px        0.0236   -0.0521    0.0318   -0.0381   -0.0221    0.0347   -0.0237   -0.0117   -0.0632   -0.0652
     7 C1     4px        0.0097    0.0229    0.0041   -0.0085    0.0138   -0.0074    0.0100   -0.0021    0.0064    0.0158
     8 C1     2py        0.0120   -0.0366    0.0275   -0.1562    0.0518    0.0108    0.0471    0.0354    0.0544   -0.1379
     9 C1     3py        0.0307    0.0481    0.0297    0.0180   -0.0502    0.0449   -0.0126   -0.0019   -0.0112    0.0548
    10 C1     4py        0.0015   -0.0063    0.0064   -0.0244    0.0057    0.0041    0.0059    0.0028   -0.0030   -0.0089
    11 C1     2pz       -0.0014   -0.0311   -0.0006   -0.0218    0.0038    0.0030    0.0033    0.0112    0.0021   -0.0500
    12 C1     3pz        0.0018    0.0017   -0.0046    0.0106   -0.0012   -0.0047    0.0033    0.0045    0.0050    0.0131
    13 C1     4pz       -0.0016   -0.0039   -0.0011   -0.0005    0.0004   -0.0006    0.0008    0.0022    0.0011   -0.0041
    14 C1     3d2-       0.0028    0.0130   -0.0006    0.0082   -0.0105    0.0072    0.0114    0.0069    0.0154    0.0063
    15 C1     3d1-      -0.0009   -0.0040    0.0001    0.0023   -0.0013    0.0001    0.0013   -0.0006   -0.0055   -0.0046
    16 C1     3d0        0.0002   -0.0068    0.0004   -0.0111   -0.0005    0.0046   -0.0139    0.0006    0.0041    0.0022
    17 C1     3d1+       0.0002   -0.0029    0.0001    0.0000   -0.0021    0.0025    0.0011    0.0024    0.0050   -0.0006
    18 C1     3d2+       0.0027    0.0282   -0.0018    0.0020    0.0141   -0.0123    0.0109    0.0002    0.0160    0.0181
    19 C3     1s        -0.0153   -0.0295   -0.0045    0.0317    0.0262   -0.0191   -0.0061   -0.0056    0.0003    0.0013
    20 C3     2s         0.0266    0.1742    0.0095   -0.2932   -0.2646    0.3288    0.0999    0.0683   -0.0417    0.0247
    21 C3     3s        -0.0400   -0.0524   -0.0144    0.0522    0.0421   -0.0077   -0.0099   -0.0098    0.0044    0.0019
    22 C3     4s        -0.0058   -0.0122   -0.0016    0.0153    0.0107   -0.0039   -0.0033   -0.0035    0.0028   -0.0014
    23 C3     2px        0.0278   -0.0525    0.0138   -0.0128   -0.0441    0.0456   -0.0412   -0.0756   -0.2222    0.0347
    24 C3     3px        0.0237    0.0193    0.0197   -0.0315   -0.0012    0.0444    0.0145    0.0129    0.0240   -0.0083
    25 C3     4px        0.0042    0.0008    0.0057   -0.0088   -0.0050    0.0107   -0.0019   -0.0043   -0.0065    0.0013
    26 C3     2py       -0.0303   -0.0886    0.0259    0.0052   -0.0520   -0.0441    0.1384   -0.0276   -0.0539    0.2172
    27 C3     3py       -0.0103    0.0111    0.0017   -0.0204    0.0161   -0.0274   -0.0085    0.0124    0.0142   -0.0271
    28 C3     4py        0.0062   -0.0055    0.0030   -0.0059   -0.0057   -0.0006    0.0080    0.0061   -0.0011    0.0084
    29 C3     2pz       -0.0130    0.0186   -0.0192    0.0081    0.0339    0.0428    0.0302    0.1368    0.1592   -0.1075
    30 C3     3pz        0.0180    0.0265   -0.0043   -0.0239   -0.0361    0.0189    0.0094   -0.0182   -0.0220    0.0120
    31 C3     4pz       -0.0061    0.0101   -0.0027   -0.0115   -0.0086    0.0158    0.0029    0.0088   -0.0010    0.0001
    32 C3     3d2-       0.0042    0.0188    0.0009   -0.0038    0.0052   -0.0013   -0.0059    0.0011    0.0119   -0.0156
    33 C3     3d1-       0.0031   -0.0023   -0.0055    0.0025    0.0038    0.0024    0.0001    0.0039   -0.0009    0.0031
    34 C3     3d0        0.0028   -0.0094    0.0017   -0.0002   -0.0115   -0.0028    0.0029   -0.0153   -0.0234    0.0161
    35 C3     3d1+      -0.0018   -0.0013    0.0016    0.0036    0.0043    0.0005   -0.0056    0.0028   -0.0009   -0.0081
    36 C3     3d2+       0.0024   -0.0098   -0.0008    0.0026   -0.0034   -0.0005    0.0165   -0.0010   -0.0039    0.0122
    37 C4     1s        -0.0396    0.0076   -0.0059    0.0083    0.0139    0.0086   -0.0028    0.0161    0.0023   -0.0023
    38 C4     2s         0.3641    0.0278    0.1210   -0.0931   -0.2296   -0.0613    0.0496   -0.4050   -0.0740    0.0719
    39 C4     3s        -0.0063    0.0260    0.0070    0.0216    0.0094    0.0182   -0.0029    0.0090    0.0027    0.0006
    40 C4     4s         0.0020    0.0065    0.0019    0.0073    0.0034    0.0054   -0.0010    0.0052    0.0030   -0.0017
    41 C4     2px        0.0500   -0.0312   -0.0478    0.0228    0.0613    0.0159   -0.0017    0.0125    0.0174   -0.0233
    42 C4     3px       -0.0299    0.0035    0.0316   -0.0252    0.0036    0.0091    0.0052   -0.0115   -0.0064    0.0107
    43 C4     4px        0.0141   -0.0044   -0.0064   -0.0009    0.0082    0.0047    0.0015   -0.0013   -0.0016    0.0003
    44 C4     2py       -0.0474   -0.0074    0.1696   -0.0140   -0.0421   -0.0755    0.0166   -0.1066    0.0907   -0.0271
    45 C4     3py        0.0575   -0.0318   -0.0231   -0.0036    0.0411    0.0636    0.0136    0.0155   -0.0439    0.0173
    46 C4     4py       -0.0137   -0.0032    0.0338   -0.0014   -0.0004   -0.0032    0.0073   -0.0062    0.0049   -0.0005
    47 C4     2pz       -0.0766    0.0320   -0.0450   -0.0627   -0.1110    0.0130    0.0045    0.0294   -0.1758    0.1166
    48 C4     3pz        0.0156   -0.0262   -0.0614    0.0402   -0.0074   -0.1188   -0.0201   -0.0005    0.0688   -0.0505
    49 C4     4pz       -0.0209    0.0033   -0.0152   -0.0064   -0.0149   -0.0123   -0.0032    0.0053   -0.0051    0.0010
    50 C4     3d2-      -0.0279    0.0050    0.0023   -0.0013    0.0030    0.0089   -0.0014   -0.0002    0.0001   -0.0037
    51 C4     3d1-       0.0193   -0.0080   -0.0255    0.0041    0.0060    0.0040    0.0036    0.0183   -0.0088    0.0127
    52 C4     3d0       -0.0052    0.0034   -0.0040   -0.0073   -0.0053    0.0148    0.0038   -0.0077   -0.0080    0.0038
    53 C4     3d1+      -0.0187    0.0002    0.0096    0.0038    0.0046   -0.0061   -0.0050    0.0026    0.0029   -0.0056
    54 C4     3d2+      -0.0171    0.0025   -0.0128   -0.0010    0.0065    0.0131    0.0023    0.0104   -0.0041    0.0038
    55 C6     1s        -0.0087    0.0053   -0.0344   -0.0146   -0.0372   -0.0424   -0.0062    0.0077    0.0048   -0.0063
    56 C6     2s         0.0310    0.0269    0.1600    0.0658    0.2418    0.3806    0.0456   -0.1119   -0.0388    0.0452
    57 C6     3s        -0.0120    0.0265   -0.0596   -0.0286   -0.0711   -0.0675   -0.0166    0.0140    0.0121   -0.0180
    58 C6     4s        -0.0002    0.0074   -0.0099   -0.0051   -0.0151   -0.0139   -0.0044    0.0041    0.0031   -0.0047
    59 C6     2px       -0.0043    0.0013   -0.0274   -0.0064   -0.0069    0.0088    0.0160   -0.0796    0.0211    0.0043
    60 C6     3px        0.0007    0.0016    0.0050    0.0008    0.0022    0.0009   -0.0001    0.0028   -0.0008   -0.0031
    61 C6     4px       -0.0010    0.0002   -0.0015    0.0016    0.0025    0.0049    0.0016   -0.0054    0.0012    0.0001
    62 C6     2py       -0.0132    0.0036   -0.0298   -0.0026    0.0011    0.0253    0.0028    0.0782   -0.1138    0.1014
    63 C6     3py        0.0002    0.0019    0.0084    0.0043    0.0115    0.0151    0.0032   -0.0014    0.0105   -0.0104
    64 C6     4py       -0.0012    0.0001    0.0023    0.0007    0.0060    0.0073   -0.0001    0.0034   -0.0064    0.0052
    65 C6     2pz        0.0212    0.0125    0.0982    0.0190    0.0139   -0.0283   -0.0359    0.1093    0.0514   -0.1103
    66 C6     3pz       -0.0032    0.0161   -0.0185   -0.0049   -0.0210   -0.0000    0.0011   -0.0057   -0.0107    0.0176
    67 C6     4pz        0.0033    0.0016    0.0012   -0.0028   -0.0131   -0.0185   -0.0040    0.0102    0.0023   -0.0050
    68 C6     3d2-       0.0003    0.0005    0.0032    0.0003   -0.0005   -0.0014   -0.0007    0.0043   -0.0025    0.0009
    69 C6     3d1-      -0.0026    0.0002   -0.0095   -0.0019   -0.0016    0.0026    0.0010    0.0040   -0.0085    0.0091
    70 C6     3d0        0.0039   -0.0001    0.0189    0.0036    0.0051   -0.0020   -0.0041    0.0132    0.0056   -0.0117
    71 C6     3d1+      -0.0021    0.0001   -0.0106   -0.0025   -0.0041    0.0001    0.0024   -0.0089   -0.0037    0.0072
    72 C6     3d2+      -0.0004    0.0002    0.0008   -0.0001   -0.0006   -0.0005   -0.0008    0.0073   -0.0048    0.0032
    73 C19    1s         0.0008   -0.0092    0.0025   -0.0569    0.0415   -0.0201    0.0128   -0.0026   -0.0093    0.0008
    74 C19    2s         0.0048    0.0068    0.0105    0.3099   -0.2730    0.1562   -0.0823    0.0376    0.0932    0.0082
    75 C19    3s         0.0066   -0.0241    0.0148   -0.1115    0.0758   -0.0333    0.0326   -0.0032   -0.0181    0.0086
    76 C19    4s         0.0029   -0.0027    0.0048   -0.0239    0.0170   -0.0075    0.0092   -0.0014   -0.0054    0.0024
    77 C19    2px       -0.0004    0.0301    0.0000    0.0531    0.0017   -0.0262    0.0437   -0.0243   -0.0689    0.1157
    78 C19    3px       -0.0035    0.0042    0.0010   -0.0003    0.0050   -0.0016   -0.0074    0.0039    0.0105   -0.0075
    79 C19    4px       -0.0011    0.0005   -0.0008   -0.0086    0.0121   -0.0087    0.0025   -0.0031   -0.0063    0.0024
    80 C19    2py        0.0059    0.0039    0.0058    0.0480   -0.0094   -0.0148    0.0668   -0.0305   -0.2042   -0.0820
    81 C19    3py        0.0070   -0.0068    0.0071   -0.0288    0.0180   -0.0029   -0.0101   -0.0014    0.0230    0.0133
    82 C19    4py        0.0001    0.0006   -0.0001   -0.0127    0.0139   -0.0091    0.0131   -0.0017   -0.0079   -0.0023
    83 C19    2pz        0.0050   -0.0027    0.0038    0.0060   -0.0068    0.0046    0.0122   -0.0019   -0.0221   -0.0256
    84 C19    3pz        0.0055   -0.0019    0.0044   -0.0021   -0.0039    0.0054    0.0034   -0.0004    0.0042    0.0024
    85 C19    4pz        0.0002    0.0001    0.0005   -0.0017    0.0011   -0.0006    0.0015   -0.0001   -0.0006   -0.0004
    86 C19    3d2-       0.0005    0.0055   -0.0005    0.0114   -0.0024   -0.0024    0.0080   -0.0026   -0.0146   -0.0025
    87 C19    3d1-      -0.0001   -0.0006    0.0001    0.0020   -0.0013    0.0003    0.0006   -0.0006   -0.0039   -0.0022
    88 C19    3d0       -0.0001   -0.0011    0.0000   -0.0085    0.0034    0.0005   -0.0035    0.0022    0.0082   -0.0059
    89 C19    3d1+      -0.0001    0.0011   -0.0000    0.0013    0.0000   -0.0008    0.0013   -0.0006   -0.0011    0.0034
    90 C19    3d2+       0.0005    0.0024   -0.0002   -0.0065    0.0043   -0.0010   -0.0031    0.0017    0.0127    0.0055
    91 N2     1s        -0.0050   -0.0407    0.0020   -0.0042   -0.0051    0.0019    0.0047    0.0011    0.0027   -0.0001
    92 N2     2s         0.0590    0.5875   -0.0404   -0.0257    0.2059   -0.1094   -0.1466    0.0002    0.1271   -0.0390
    93 N2     3s        -0.0083   -0.0773    0.0033   -0.0124   -0.0011   -0.0001    0.0108    0.0033    0.0120    0.0017
    94 N2     4s        -0.0022   -0.0251    0.0015   -0.0014   -0.0027    0.0014    0.0039    0.0004    0.0002    0.0007
    95 N2     2px        0.0060   -0.0357    0.0085   -0.1473   -0.0459    0.1199   -0.3596    0.0055   -0.0792   -0.2869
    96 N2     3px       -0.0034   -0.0122    0.0083    0.0196    0.0432   -0.0665    0.0933   -0.0028   -0.0025    0.0609
    97 N2     4px        0.0016    0.0007    0.0014   -0.0062    0.0084   -0.0059   -0.0022   -0.0000   -0.0021    0.0070
    98 N2     2py        0.0007   -0.0001    0.0046   -0.1155   -0.0524    0.1074    0.2136    0.1418    0.2545   -0.1555
    99 N2     3py       -0.0122   -0.0471   -0.0016    0.0414    0.0528   -0.0522   -0.0301   -0.0406   -0.0530    0.0206
   100 N2     4py       -0.0011   -0.0135   -0.0002   -0.0000    0.0046   -0.0049    0.0088   -0.0024   -0.0006    0.0038
   101 N2     2pz       -0.0142   -0.0105    0.0016    0.0177    0.0008   -0.0014    0.0915    0.0513    0.1099   -0.0182
   102 N2     3pz       -0.0115    0.0189   -0.0023    0.0170    0.0005   -0.0048   -0.0381   -0.0110   -0.0174    0.0020
   103 N2     4pz       -0.0023   -0.0011   -0.0002    0.0030   -0.0005    0.0002    0.0011   -0.0001   -0.0013    0.0018
   104 N2     3d2-       0.0013    0.0073   -0.0002   -0.0027   -0.0077    0.0094    0.0027    0.0049    0.0061   -0.0041
   105 N2     3d1-      -0.0006    0.0019   -0.0008    0.0014    0.0037   -0.0024   -0.0084   -0.0008   -0.0030   -0.0007
   106 N2     3d0       -0.0014   -0.0152    0.0009    0.0015   -0.0027    0.0010   -0.0036   -0.0017   -0.0048   -0.0003
   107 N2     3d1+      -0.0010   -0.0034    0.0004    0.0013   -0.0020    0.0010    0.0043    0.0021    0.0031    0.0012
   108 N2     3d2+       0.0006    0.0056   -0.0000    0.0104    0.0059   -0.0104    0.0196   -0.0026   -0.0014    0.0132
   109 N5     1s        -0.0202   -0.0006   -0.0424   -0.0016    0.0016    0.0028    0.0016   -0.0035    0.0034   -0.0025
   110 N5     2s         0.1311   -0.0112    0.5765    0.0415   -0.0125   -0.2186   -0.0704    0.1675    0.0797   -0.1110
   111 N5     3s        -0.0505   -0.0003   -0.0793   -0.0053   -0.0017   -0.0137   -0.0007   -0.0000    0.0146   -0.0131
   112 N5     4s        -0.0119    0.0010   -0.0263   -0.0027   -0.0017   -0.0013    0.0001   -0.0020    0.0016   -0.0013
   113 N5     2px        0.0195   -0.0112   -0.0023    0.0158    0.0175    0.0258    0.0191   -0.1624    0.1092   -0.0867
   114 N5     3px       -0.0027   -0.0109   -0.0196    0.0110   -0.0144   -0.0336   -0.0078    0.0428   -0.0179    0.0181
   115 N5     4px       -0.0023   -0.0015   -0.0067    0.0022   -0.0005   -0.0021   -0.0005   -0.0046    0.0013   -0.0006
   116 N5     2py       -0.0329   -0.0039   -0.0142    0.0271    0.0943    0.0856   -0.0455    0.3592   -0.1885    0.0889
   117 N5     3py        0.0158   -0.0144    0.0211   -0.0039   -0.0096   -0.0246    0.0076   -0.0908    0.0292   -0.0114
   118 N5     4py       -0.0038   -0.0036    0.0080    0.0027    0.0049   -0.0014    0.0001    0.0054   -0.0008    0.0020
   119 N5     2pz       -0.0128    0.0332    0.0121   -0.0578   -0.1521   -0.1359   -0.0068    0.0193   -0.0895    0.1296
   120 N5     3pz       -0.0106    0.0417    0.0311    0.0076    0.0376    0.0954   -0.0031   -0.0033    0.0168   -0.0296
   121 N5     4pz        0.0079    0.0064    0.0065   -0.0005   -0.0038    0.0050   -0.0021    0.0052   -0.0016   -0.0005
   122 N5     3d2-      -0.0034    0.0007   -0.0058   -0.0003    0.0022    0.0066    0.0008   -0.0029    0.0003   -0.0009
   123 N5     3d1-      -0.0016   -0.0007   -0.0122    0.0013    0.0026   -0.0010   -0.0024    0.0141   -0.0038    0.0020
   124 N5     3d0       -0.0030    0.0010    0.0061    0.0018    0.0067    0.0098   -0.0003    0.0061   -0.0019   -0.0014
   125 N5     3d1+       0.0004   -0.0002   -0.0061   -0.0017   -0.0040   -0.0022    0.0015   -0.0098    0.0022   -0.0000
   126 N5     3d2+      -0.0046    0.0007   -0.0107    0.0005    0.0042    0.0071   -0.0008    0.0086   -0.0044    0.0014
   127 O7     1s         0.0007    0.0025   -0.0009   -0.0043    0.0023    0.0003   -0.0139   -0.0010    0.0134    0.0216
   128 O7     2s        -0.0663   -0.3030    0.0094   -0.2061    0.0574    0.0282   -0.3557   -0.0317    0.2206    0.3519
   129 O7     3s        -0.0021   -0.0092   -0.0037   -0.0203    0.0102   -0.0003   -0.0440   -0.0041    0.0378    0.0616
   130 O7     4s         0.0000   -0.0000   -0.0014   -0.0036    0.0024   -0.0006   -0.0085   -0.0011    0.0074    0.0129
   131 O7     2px       -0.0071    0.0017   -0.0037   -0.0059    0.0252   -0.0300    0.1697    0.0217   -0.0809   -0.2038
   132 O7     3px       -0.0021    0.0029   -0.0041   -0.0088   -0.0011    0.0039   -0.0231   -0.0023    0.0032    0.0173
   133 O7     4px       -0.0003    0.0011   -0.0006   -0.0015   -0.0013    0.0015   -0.0021   -0.0000   -0.0004    0.0010
   134 O7     2py        0.0099    0.0402   -0.0029   -0.0344    0.0203    0.0040   -0.1638   -0.0081    0.2536    0.4121
   135 O7     3py       -0.0033    0.0002   -0.0029    0.0107   -0.0039   -0.0019    0.0253    0.0006   -0.0313   -0.0431
   136 O7     4py       -0.0008   -0.0012   -0.0005   -0.0014   -0.0008    0.0006    0.0031    0.0008   -0.0041   -0.0065
   137 O7     2pz        0.0012    0.0050    0.0004   -0.0047    0.0020    0.0047   -0.0426   -0.0048    0.0434    0.0793
   138 O7     3pz       -0.0012    0.0008    0.0009    0.0031    0.0009    0.0003    0.0056   -0.0023   -0.0048   -0.0079
   139 O7     4pz       -0.0003   -0.0000    0.0002    0.0001    0.0006    0.0003    0.0007   -0.0008   -0.0003   -0.0010
   140 O7     3d2-       0.0013    0.0030   -0.0001    0.0009   -0.0023    0.0025   -0.0119   -0.0010    0.0082    0.0167
   141 O7     3d1-      -0.0005   -0.0021    0.0002   -0.0001   -0.0005    0.0002    0.0023    0.0002   -0.0041   -0.0065
   142 O7     3d0        0.0008    0.0039   -0.0003    0.0014    0.0001   -0.0003   -0.0046   -0.0007    0.0052    0.0107
   143 O7     3d1+       0.0001    0.0005   -0.0001    0.0008   -0.0006    0.0006   -0.0027   -0.0003    0.0012    0.0030
   144 O7     3d2+       0.0008    0.0049   -0.0004   -0.0024    0.0041   -0.0026    0.0004    0.0006    0.0111    0.0133
   145 O8     1s        -0.0234    0.0020    0.0041    0.0003    0.0027    0.0005   -0.0013    0.0122    0.0019   -0.0004
   146 O8     2s         0.6681   -0.1453   -0.3239    0.0988    0.1561    0.0114   -0.0144    0.3509    0.0422    0.0111
   147 O8     3s        -0.0277   -0.0042   -0.0089    0.0037    0.0134    0.0014   -0.0023    0.0450    0.0065   -0.0007
   148 O8     4s        -0.0123   -0.0004    0.0001   -0.0003    0.0016   -0.0001    0.0003    0.0092    0.0015   -0.0000
   149 O8     2px       -0.0621    0.0066    0.0214    0.0030    0.0037    0.0003    0.0013    0.0805    0.0163    0.0075
   150 O8     3px        0.0208   -0.0022   -0.0022   -0.0007   -0.0057   -0.0036   -0.0003   -0.0125   -0.0025   -0.0016
   151 O8     4px        0.0008   -0.0004   -0.0012    0.0001    0.0004   -0.0005   -0.0006   -0.0011   -0.0004   -0.0008
   152 O8     2py        0.1085   -0.0244   -0.0180    0.0090   -0.0102   -0.0308    0.0180   -0.1609    0.0508   -0.0393
   153 O8     3py       -0.0337    0.0011   -0.0013    0.0046    0.0038   -0.0027   -0.0022    0.0234   -0.0016    0.0022
   154 O8     4py       -0.0016   -0.0008   -0.0003    0.0007   -0.0004   -0.0000    0.0010    0.0030   -0.0006    0.0009
   155 O8     2pz        0.0677   -0.0010   -0.0352   -0.0203   -0.0246    0.0339    0.0025   -0.0652   -0.1026    0.0445
   156 O8     3pz       -0.0180    0.0085    0.0078   -0.0000    0.0066    0.0140    0.0039    0.0141    0.0116   -0.0022
   157 O8     4pz        0.0007    0.0024    0.0031   -0.0006   -0.0008    0.0017    0.0012    0.0021    0.0032   -0.0008
   158 O8     3d2-      -0.0123    0.0021    0.0039   -0.0012   -0.0010    0.0010   -0.0003    0.0058   -0.0020    0.0018
   159 O8     3d1-       0.0127   -0.0019   -0.0046   -0.0004   -0.0011    0.0010    0.0008   -0.0060   -0.0035    0.0015
[...]
AIVX     1  Mu1.0001  In1.024 Se1.047               0.15144013      0.00011667     -0.00036228     -0.00000004
AIVX     1  Mu1.0001  In1.025 Se1.047               0.29362166     -0.00013709      0.00019502     -0.00000003
AIVX     1  Mu1.0001  In1.026 Se1.047               0.05076221      0.00000147     -0.00015316     -0.00000000
AIVX     1  Mu1.0001  In1.027 Se1.047               0.26953577      0.00021229      0.00012570      0.00000003
AIVX     1  Mu1.0001  In1.028 Se1.047               0.21730999     -0.00015799      0.00003236     -0.00000001
AIVX     1  Mu1.0001  In1.029 Se1.047               0.09832657      0.00014399     -0.00012294     -0.00000002
AIVX     1  Mu1.0001  In1.018 Se1.048               0.28101788      0.00020108     -0.00026812     -0.00000005
AIVX     1  Mu1.0001  In1.021 Se1.048               0.22342880     -0.00029169      0.00033947     -0.00000010
AIVX     1  Mu1.0001  In1.022 Se1.048               0.12296057      0.00038593     -0.00020927     -0.00000008
AIVX     1  Mu1.0001  In1.024 Se1.048               0.14291420      0.00003805     -0.00018078     -0.00000001
AIVX     1  Mu1.0001  In1.025 Se1.048               0.28509574      0.00030760     -0.00049533     -0.00000015
AIVX     1  Mu1.0001  In1.026 Se1.048               0.04223628     -0.00019053      0.00033241     -0.00000006
AIVX     1  Mu1.0001  In1.027 Se1.048               0.26100985      0.00002349      0.00040277      0.00000001
AIVX     1  Mu1.0001  In1.028 Se1.048               0.20878406     -0.00024937      0.00013877     -0.00000003
AIVX     1  Mu1.0001  In1.029 Se1.048               0.08980065      0.00005122      0.00006747      0.00000000
AIVX     1  Mu1.0001  In1.021 Se1.049               0.25945118      0.00017565     -0.00016186     -0.00000003
AIVX     1  Mu1.0001  In1.022 Se1.049               0.15898295     -0.00009173     -0.00015397      0.00000001
AIVX     1  Mu1.0001  In1.024 Se1.049               0.17893659      0.00003819     -0.00002662     -0.00000000
AIVX     1  Mu1.0001  In1.026 Se1.049               0.07825867     -0.00013534      0.00037045     -0.00000005
AIVX     1  Mu1.0001  In1.027 Se1.049               0.29703223      0.00027672     -0.00063124     -0.00000017
AIVX     1  Mu1.0001  In1.028 Se1.049               0.24480645      0.00024172     -0.00027397     -0.00000007
AIVX     1  Mu1.0001  In1.029 Se1.049               0.12582303     -0.00018548      0.00027738     -0.00000005
AIVX     1  Mu1.0001  In1.021 Se1.050               0.24647406      0.00003030      0.00000510      0.00000000
AIVX     1  Mu1.0001  In1.022 Se1.050               0.14600583     -0.00008551     -0.00005673      0.00000000
AIVX     1  Mu1.0001  In1.024 Se1.050               0.16595947      0.00011730     -0.00019253     -0.00000002
AIVX     1  Mu1.0001  In1.026 Se1.050               0.06528155      0.00018520     -0.00038540     -0.00000007
AIVX     1  Mu1.0001  In1.027 Se1.050               0.28405511     -0.00001952     -0.00016046      0.00000000
AIVX     1  Mu1.0001  In1.028 Se1.050               0.23182933      0.00006041     -0.00002277     -0.00000000
AIVX     1  Mu1.0001  In1.029 Se1.050               0.11284592      0.00005047     -0.00018335     -0.00000001
AIVX     1  Mu1.0001  In1.021 Se1.051               0.27164023      0.00007008     -0.00014314     -0.00000001
AIVX     1  Mu1.0001  In1.022 Se1.051               0.17117200      0.00004252      0.00010297      0.00000000
AIVX     1  Mu1.0001  In1.024 Se1.051               0.19112564      0.00005281     -0.00012829     -0.00000001
AIVX     1  Mu1.0001  In1.026 Se1.051               0.09044772      0.00011389     -0.00035686     -0.00000004
AIVX     1  Mu1.0001  In1.028 Se1.051               0.25699550      0.00005012     -0.00016756     -0.00000001
AIVX     1  Mu1.0001  In1.029 Se1.051               0.13801209     -0.00003363      0.00011312     -0.00000000
AIVX     1  Mu1.0001  In1.021 Se1.052               0.29854500      0.00022304     -0.00018550     -0.00000004
AIVX     1  Mu1.0001  In1.022 Se1.052               0.19807677     -0.00029209      0.00006637     -0.00000002
AIVX     1  Mu1.0001  In1.024 Se1.052               0.21803040      0.00005927     -0.00003409     -0.00000000
AIVX     1  Mu1.0001  In1.026 Se1.052               0.11735248      0.00013384     -0.00018619     -0.00000002
AIVX     1  Mu1.0001  In1.028 Se1.052               0.28390026      0.00010905      0.00001453      0.00000000
AIVX     1  Mu1.0001  In1.029 Se1.052               0.16491685     -0.00007395     -0.00000632      0.00000000
AIVX     1  Mu1.0001  In1.022 Se1.053               0.25355903      0.00017363     -0.00038737     -0.00000007
AIVX     1  Mu1.0001  In1.024 Se1.053               0.27351267     -0.00006748      0.00014295     -0.00000001
AIVX     1  Mu1.0001  In1.026 Se1.053               0.17283475      0.00017738     -0.00032765     -0.00000006
AIVX     1  Mu1.0001  In1.029 Se1.053               0.22039912      0.00004814     -0.00010885     -0.00000001
AIVX     1  Mu1.0001  In1.022 Se1.054               0.24705487     -0.00005414      0.00016706     -0.00000001
AIVX     1  Mu1.0001  In1.024 Se1.054               0.26700851     -0.00005038      0.00005938     -0.00000000
AIVX     1  Mu1.0001  In1.026 Se1.054               0.16633059      0.00031205     -0.00059845     -0.00000019
AIVX     1  Mu1.0001  In1.029 Se1.054               0.21389495      0.00012373     -0.00017997     -0.00000002
AIVX     1  Mu1.0001  In1.022 Se1.055               0.24153248      0.00011696      0.00019091      0.00000002
AIVX     1  Mu1.0001  In1.024 Se1.055               0.26148611      0.00006855     -0.00018924     -0.00000001
AIVX     1  Mu1.0001  In1.026 Se1.055               0.16080819     -0.00031217      0.00056837     -0.00000018
AIVX     1  Mu1.0001  In1.029 Se1.055               0.20837256      0.00002098      0.00010455      0.00000000
AIVX     1  Mu1.0001  In1.022 Se1.056               0.25898163     -0.00007098      0.00008775     -0.00000001
AIVX     1  Mu1.0001  In1.024 Se1.056               0.27893527     -0.00010781      0.00018665     -0.00000002
AIVX     1  Mu1.0001  In1.026 Se1.056               0.17825735     -0.00007192      0.00016050     -0.00000001
AIVX     1  Mu1.0001  In1.029 Se1.056               0.22582172      0.00009296     -0.00018000     -0.00000002
AIVX     1  Mu1.0001  In1.022 Se1.057               0.20964021     -0.00021288      0.00015044     -0.00000003
AIVX     1  Mu1.0001  In1.024 Se1.057               0.22959385      0.00002669     -0.00002719     -0.00000000
AIVX     1  Mu1.0001  In1.026 Se1.057               0.12891593     -0.00003944      0.00009632     -0.00000000
AIVX     1  Mu1.0001  In1.028 Se1.057               0.29546371      0.00005482      0.00001028      0.00000000
AIVX     1  Mu1.0001  In1.029 Se1.057               0.17648030     -0.00008637      0.00006571     -0.00000001
AIVX     1  Mu1.0001  In1.026 Se1.058               0.25920358     -0.00037572      0.00064490     -0.00000024
AIVX     1  Mu1.0001  In1.022 Se1.059               0.29028873      0.00031227     -0.00025305     -0.00000008
AIVX     1  Mu1.0001  In1.026 Se1.059               0.20956445     -0.00003126      0.00005479     -0.00000000
AIVX     1  Mu1.0001  In1.029 Se1.059               0.25712882      0.00002570      0.00006406      0.00000000
AIVX     1  Mu1.0001  In1.026 Se1.060               0.24329965      0.00010457     -0.00012732     -0.00000001
AIVX     1  Mu1.0001  In1.029 Se1.060               0.29086402     -0.00009090      0.00007807     -0.00000001
AIVX     1  Mu1.0001  In1.022 Se1.061               0.29173923      0.00015101     -0.00010314     -0.00000002
AIVX     1  Mu1.0001  In1.026 Se1.061               0.21101495      0.00004206     -0.00010089     -0.00000000
AIVX     1  Mu1.0001  In1.029 Se1.061               0.25857932      0.00011568     -0.00015592     -0.00000002
AIVX     1  Mu1.0001  In1.026 Se1.062               0.27845053     -0.00019058      0.00025054     -0.00000005
AIVX     1  Mu1.0001  In1.026 Se1.064               0.21975645      0.00011386     -0.00015622     -0.00000002
AIVX     1  Mu1.0001  In1.029 Se1.064               0.26732082     -0.00006605      0.00005284     -0.00000000
AIVX     1  Mu1.0001  In1.026 Se1.208               0.29768694     -0.00015613      0.00022669     -0.00000004
--
 
   (Skipping property calculation,
    use PROP keyword to activate)
--
 
  Total CASPT2 energies:
::    CASPT2 Root  1     Total energy:   -455.38157496
::    CASPT2 Root  2     Total energy:   -455.16946378
::    CASPT2 Root  3     Total energy:   -455.17271716
::    CASPT2 Root  4     Total energy:   -455.13153214
::    CASPT2 Root  5     Total energy:   -455.11316504
::    CASPT2 Root  6     Total energy:   -455.12557629
::    CASPT2 Root  7     Total energy:   -455.07188106
 
++ Multi-State CASPT2 section:
********************************************************************************
  MULTI-STATE CASPT2 SECTION
--------------------------------------------------------------------------------
 
  Output diagonal energies have been shifted. Add   -455.000000000000     
 
  Effective Hamiltonian matrix (Symmetric):
 
                1               2               3               4               5
   1        -0.38157496
   2         0.00064146     -0.16946378
   3         0.00005402      0.00029869     -0.17271716
   4        -0.01242654      0.00049704      0.00126982     -0.13153214
   5        -0.01334985      0.00327744     -0.00362432     -0.00134599     -0.11316504
   6         0.01546312     -0.00281405     -0.00226401     -0.00081929      0.01902892
   7         0.00002567     -0.00096431      0.00051953      0.00033652     -0.00050756
 
                6               7
   6        -0.12557629
   7        -0.00072828     -0.07188106
 
       Total MS-CASPT2 energies:
::    MS-CASPT2 Root  1     Total energy:   -455.38389882
::    MS-CASPT2 Root  2     Total energy:   -455.17304993
::    MS-CASPT2 Root  3     Total energy:   -455.16996536
::    MS-CASPT2 Root  4     Total energy:   -455.13730270
::    MS-CASPT2 Root  5     Total energy:   -455.13081867
::    MS-CASPT2 Root  6     Total energy:   -455.09903724
::    MS-CASPT2 Root  7     Total energy:   -455.07183771
 
       Eigenvectors:
            0.99531053     -0.00128188      0.01570264      0.07353230     -0.06069334
           -0.00474708     -0.12362448      0.98403222     -0.12357663      0.02874811
           -0.00029888      0.98996001      0.12589279      0.01092788      0.02404076
            0.04910142     -0.02685890     -0.01255066      0.14868378      0.98601631
            0.05383506      0.06086277     -0.07760700     -0.56320710      0.12269709
           -0.06344389      0.01535304      0.09652467      0.79993121     -0.08718015
           -0.00020952     -0.00575656      0.00936172      0.00183347     -0.00536563
 
           -0.00424145     -0.00026689
            0.01332758     -0.00998888
           -0.05822226      0.00654940
           -0.04828816      0.00658454
            0.80904165     -0.02386350
            0.58176556     -0.02192411
            0.03291288      0.99938169
 
--
 
  THE ORIGINAL CI ARRAYS ARE NOW MIXED AS LINEAR
  COMBINATIONS, GIVEN BY THE EIGENVECTORS.
  A NEW JOBIPH FILE NAMED 'JOBMIX' IS PREPARED.
********************************************************************************
 
++ Mixed CI coefficients:
  The CI coefficients for the MIXED state nr.   1
--------------------------------------------------------------------------------
 CI COEFFICIENTS LARGER THAN  0.50D-01
  Occupation of active orbitals, and spin coupling
  of open shells. (u,d: Spin up or down).
  SGUGA info is (Midvert:IsyUp:UpperWalk/LowerWalk)
        Conf  SGUGA info        Occupation    Coefficient         Weight
           1  ( 1:1:   1/   1)   22222200        0.970727       0.942310
           2  ( 1:1:   2/   1)   22222ud0       -0.056510       0.003193
           4  ( 1:1:   4/   1)   22222020       -0.093702       0.008780
          17  ( 1:1:  17/   1)   22220202       -0.089441       0.008000
          61  ( 2:1:   1/   3)   2u2222d0       -0.079131       0.006262
          84  ( 2:1:   4/   4)   u222220d       -0.102833       0.010575
         171  ( 3:1:   1/   8)   20222220       -0.089613       0.008031
         195  ( 3:1:   5/  10)   02222202       -0.075489       0.005699
 
  The CI coefficients for the MIXED state nr.   2
--------------------------------------------------------------------------------
 CI COEFFICIENTS LARGER THAN  0.50D-01
  Occupation of active orbitals, and spin coupling
  of open shells. (u,d: Spin up or down).
  SGUGA info is (Midvert:IsyUp:UpperWalk/LowerWalk)
        Conf  SGUGA info        Occupation    Coefficient         Weight
           7  ( 1:1:   7/   1)   22222u0d        0.304324       0.092613
           8  ( 1:1:   8/   1)   2222u20d       -0.072328       0.005231
          21  ( 2:1:   1/   1)   222u22d0       -0.094200       0.008874
          24  ( 2:1:   4/   1)   222u220d       -0.073790       0.005445
          44  ( 2:1:   4/   2)   22u2220d       -0.890713       0.793370
          45  ( 2:1:   5/   2)   22u22dud        0.062814       0.003946
          47  ( 2:1:   7/   2)   22u22udd        0.115967       0.013448
          49  ( 2:1:   9/   2)   22u2202d        0.076294       0.005821
          54  ( 2:1:  14/   2)   22u2d202       -0.162206       0.026311
         165  ( 3:1:   5/   7)   u2d22202       -0.117613       0.013833
         219  ( 4:1:   1/   4)   2uu222dd       -0.063620       0.004047
         220  ( 4:1:   2/   4)   2uu22d2d       -0.054161       0.002933
         293  ( 5:1:   1/  15)   20u2222d       -0.092035       0.008470
 
  The CI coefficients for the MIXED state nr.   3
--------------------------------------------------------------------------------
 CI COEFFICIENTS LARGER THAN  0.50D-01
  Occupation of active orbitals, and spin coupling
  of open shells. (u,d: Spin up or down).
  SGUGA info is (Midvert:IsyUp:UpperWalk/LowerWalk)
        Conf  SGUGA info        Occupation    Coefficient         Weight
           2  ( 1:1:   2/   1)   22222ud0       -0.179650       0.032274
          21  ( 2:1:   1/   1)   222u22d0        0.936247       0.876559
          22  ( 2:1:   2/   1)   222u2d20        0.092946       0.008639
          24  ( 2:1:   4/   1)   222u220d        0.068613       0.004708
          38  ( 2:1:  18/   1)   222u02d2        0.080513       0.006482
          44  ( 2:1:   4/   2)   22u2220d       -0.107042       0.011458
         111  ( 3:1:   1/   2)   22ud2220        0.050619       0.002562
         121  ( 3:1:   1/   3)   2u2d2220        0.181023       0.032769
         213  ( 4:1:   1/   3)   u22u22dd       -0.076210       0.005808
         270  ( 5:1:   2/   9)   022u22d2       -0.075267       0.005665
 
  The CI coefficients for the MIXED state nr.   4
--------------------------------------------------------------------------------
 CI COEFFICIENTS LARGER THAN  0.50D-01
  Occupation of active orbitals, and spin coupling
  of open shells. (u,d: Spin up or down).
  SGUGA info is (Midvert:IsyUp:UpperWalk/LowerWalk)
        Conf  SGUGA info        Occupation    Coefficient         Weight
           2  ( 1:1:   2/   1)   22222ud0       -0.840705       0.706785
           4  ( 1:1:   4/   1)   22222020        0.169294       0.028660
           7  ( 1:1:   7/   1)   22222u0d       -0.171940       0.029563
           8  ( 1:1:   8/   1)   2222u20d        0.296731       0.088049
          19  ( 1:1:  19/   1)   22220ud2        0.078702       0.006194
          21  ( 2:1:   1/   1)   222u22d0       -0.181410       0.032910
          44  ( 2:1:   4/   2)   22u2220d       -0.084557       0.007150
          62  ( 2:1:   2/   3)   2u222d20       -0.215580       0.046475
          87  ( 2:1:   7/   4)   u2222udd        0.080624       0.006500
          94  ( 2:1:  14/   4)   u222d202        0.087414       0.007641
         171  ( 3:1:   1/   8)   20222220       -0.102895       0.010587
         196  ( 3:1:   6/  10)   02222ud2        0.063702       0.004058
 
  The CI coefficients for the MIXED state nr.   5
--------------------------------------------------------------------------------
 CI COEFFICIENTS LARGER THAN  0.50D-01
  Occupation of active orbitals, and spin coupling
  of open shells. (u,d: Spin up or down).
  SGUGA info is (Midvert:IsyUp:UpperWalk/LowerWalk)
        Conf  SGUGA info        Occupation    Coefficient         Weight
           2  ( 1:1:   2/   1)   22222ud0        0.310201       0.096225
           4  ( 1:1:   4/   1)   22222020       -0.057319       0.003285
           7  ( 1:1:   7/   1)   22222u0d       -0.092346       0.008528
           8  ( 1:1:   8/   1)   2222u20d        0.874728       0.765149
          12  ( 1:1:  12/   1)   2222uudd       -0.092476       0.008552
          13  ( 1:1:  13/   1)   2222u02d       -0.074346       0.005527
          21  ( 2:1:   1/   1)   222u22d0        0.051680       0.002671
          44  ( 2:1:   4/   2)   22u2220d       -0.100783       0.010157
          62  ( 2:1:   2/   3)   2u222d20        0.079796       0.006367
          68  ( 2:1:   8/   3)   2u22u2dd        0.065346       0.004270
          84  ( 2:1:   4/   4)   u222220d       -0.080864       0.006539
          94  ( 2:1:  14/   4)   u222d202        0.221104       0.048887
         174  ( 3:1:   4/   8)   2022u22d        0.088395       0.007814
 
  The CI coefficients for the MIXED state nr.   6
--------------------------------------------------------------------------------
 CI COEFFICIENTS LARGER THAN  0.50D-01
  Occupation of active orbitals, and spin coupling
  of open shells. (u,d: Spin up or down).
  SGUGA info is (Midvert:IsyUp:UpperWalk/LowerWalk)
        Conf  SGUGA info        Occupation    Coefficient         Weight
           2  ( 1:1:   2/   1)   22222ud0       -0.140240       0.019667
           7  ( 1:1:   7/   1)   22222u0d        0.878079       0.771024
           8  ( 1:1:   8/   1)   2222u20d        0.174166       0.030334
          44  ( 2:1:   4/   2)   22u2220d        0.276312       0.076348
          54  ( 2:1:  14/   2)   22u2d202        0.050832       0.002584
          65  ( 2:1:   5/   3)   2u222dud        0.146889       0.021576
          67  ( 2:1:   7/   3)   2u222udd        0.200275       0.040110
         173  ( 3:1:   3/   8)   20222u2d        0.128465       0.016503
 
  The CI coefficients for the MIXED state nr.   7
--------------------------------------------------------------------------------
 CI COEFFICIENTS LARGER THAN  0.50D-01
  Occupation of active orbitals, and spin coupling
  of open shells. (u,d: Spin up or down).
  SGUGA info is (Midvert:IsyUp:UpperWalk/LowerWalk)
        Conf  SGUGA info        Occupation    Coefficient         Weight
           7  ( 1:1:   7/   1)   22222u0d        0.071643       0.005133
          21  ( 2:1:   1/   1)   222u22d0       -0.069703       0.004858
          24  ( 2:1:   4/   1)   222u220d        0.893580       0.798484
          25  ( 2:1:   5/   1)   222u2dud        0.233369       0.054461
          27  ( 2:1:   7/   1)   222u2udd        0.316447       0.100139
         112  ( 3:1:   2/   2)   22ud22ud       -0.059485       0.003538
         201  ( 4:1:   1/   1)   22uu22dd        0.056588       0.003202
         208  ( 4:1:   2/   2)   2u2u2d2d       -0.079026       0.006245
         261  ( 5:1:   1/   7)   202u222d        0.083194       0.006921
 
--
 
--- Stop Module: caspt2 at Tue Jun 10 18:52:02 2025 /rc=_RC_ALL_IS_WELL_ ---
*** files: xmldump
    saved to directory /home/pcaah4/diamide_project
--- Module caspt2 spent 7 minutes 8 seconds ---

.##################.
.# Happy landing! #.
.##################.

    Timing: Wall=693.03 User=603.90 System=79.41
******************************************************
*** WorkDir at /srv/COMMUNAL_SCRATCH/12412 cleaned ***
******************************************************
