   This run of MOLCAS is using the pymolcas driver

                             OPE
                             OPE          NMOL  CASOP  ENMOLC A   SO
                 OPE        NMOLC        AS  OP EN  MO LC     AS  OP
                OPENM       OL CA        SO  PE NM  OL CA     SOP EN
                OP EN      MO   LC       AS  OP ENMOL  CASO   PENMOL
                OP  EN     MO   LC       AS  OP EN     MO     LC ASO
               OP   E  NMOL  C  AS       OP  EN MO     LC     AS  OP
               OP  E   NMO   LC AS        OPEN  MO     LCASOP EN   M
               O  PEN   MO  LCA  SO
            OPE   NMO   L   CAS    OP
        OPENMOL  CASOP     ENMOL   CASOPE
     OPENMOLCA   SOPENMOLCASOPEN   MOLCASOPE
    OPENMOLCAS   OP           EN   MOL    CAS
    OPENMOLCAS       OP  ENM        O     LCA
    OPENMOLCAS    OPEN  MOLCASO     P  E  NMO
    OPENMOLCAS     OP               E  N  MOL
    OPENMOLCA   SO           PENM   O  L  CAS    OPEN    MO    LCAS
    OPENMOLCA   SOP           ENM   O  L  CAS   OP  EN  MOLC  AS   O
    OPENMOLCA   SOPE           NM      O  LCA   S      OP  EN MO
    OPENMOLC                AS         O  PEN   M      OL  CA  SOPE
    OPENMO        LCASOPE  NMOL        C  ASO   P      ENMOLC     AS
    OPE     NMO      LCA  SO     P     E   NM   OL  CA SO  PE N   MO
          OPENMOLCA            SOPE   NMO        LCAS  O    P  ENMO
     OPENMOLCASOPENMOLCASOPENMOLCASOPENMOLCA
        OPENMOLCASOPENMOLCASOPENMOLCASOPE
            OPENMOLCASOPENMOLCASOPENM
               OPENMOLCASOPENMOLCA        version: v23.06
                   OPENMOLCASO
                       OPE                tag:

 OpenMolcas is free software; you can redistribute it and/or modify it
 under the terms of the GNU Lesser General Public License version 2.1.
 OpenMolcas is distributed in the hope that it will be useful, but it
 is provided "as is" and without any express or implied warranties.
 For more details see the full text of the license in the file
 LICENSE or in <http://www.gnu.org/licenses/>.

                 Copyright (C) The OpenMolcas Authors
           For the author list and the recommended citation,
                   consult the file CONTRIBUTORS.md

           *************************************************
           * pymolcas version py2.24                       *
           *   build 4567b286dd94b1984b333a4ddf893180      *
           *   (after the EMIL interpreter by V. Veryazov) *
           *************************************************

configuration info
------------------
Host name: loginchem01.nottingham.ac.uk (Linux)
C Compiler ID: Intel
C flags: -std=gnu99 -gcc-sys -qopenmp
Fortran Compiler ID: Intel
Fortran flags: -fpp -i8 -heap-arrays -qopenmp
Definitions: _MOLCAS_;_I8_;_LINUX_
Parallel: OFF (GA=OFF)


   ----------------------------------------------------------------------------------------------------
  |
  |              Project: orca_geometry_optimisation_300_285_BP86_def2-SVP_def2J_scf_cas1_ras12i11_cas8
  |       Submitted from: /home/pcaah4/diamide_project
  |         Scratch area: /srv/COMMUNAL_SCRATCH/12454
  |      Save outputs to: /home/pcaah4/diamide_project
  |               Molcas: /software/chemistry/openmolcas/openmolcas-23.06-openmp
  |
  | Scratch area is empty
  |
  |       MOLCAS_DRIVER = /software/chemistry/openmolcas/openmolcas-23.06-openmp/sbin/pymolcas
  | MOLCAS_KEEP_WORKDIR = NO
  |       MOLCAS_NPROCS = 1
  |       MOLCAS_SOURCE = /software/chemistry/openmolcas/openmolcas-23.06-openmp
  |    MOLCAS_STRUCTURE = 0
  |
   ----------------------------------------------------------------------------------------------------

++ ---------   Input file   ---------

&SEWARD
TITLE
orca_geometry_optimisation_300_285_BP86_def2-SVP_def2J_scf_cas1_ras12i11
MULTIPOLES
2
SDIPOLE
ANGMOM
0 0 0
BASIS SET
C.ANO-S...4S3P1D.
C1           -0.027064   -0.055615    0.054265 /Angstrom
C3            2.185343    1.077141   -0.193733 /Angstrom
C4            1.853685    2.055749   -1.351207 /Angstrom
C6            2.006484    2.357892   -3.804638 /Angstrom
C19          -0.714462   -1.412152    0.208469 /Angstrom
END OF BASIS
BASIS SET
N.ANO-S...4S3P1D.
N2            1.341620   -0.112182   -0.118391 /Angstrom
N5            2.270573    1.609544   -2.589188 /Angstrom
END OF BASIS
BASIS SET
O.ANO-S...4S3P1D.
O7           -0.640714    1.004524    0.090487 /Angstrom
O8            1.401561    3.176367   -1.155294 /Angstrom
END OF BASIS
BASIS SET
H.ANO-S...2S1P.
H9           -1.576745   -1.450575   -0.485236 /Angstrom
H10          -1.124512   -1.488295    1.235944 /Angstrom
H11          -0.058493   -2.285483    0.020975 /Angstrom
H12           1.797974   -1.023841   -0.080027 /Angstrom
H13           2.082457    1.686427    0.728818 /Angstrom
H14           3.237739    0.741075   -0.282750 /Angstrom
H15           2.522298    0.622962   -2.675886 /Angstrom
H16           1.188663    1.908946   -4.410475 /Angstrom
H17           1.696276    3.374885   -3.497975 /Angstrom
H18           2.915822    2.431253   -4.437306 /Angstrom
END OF BASIS
END OF INPUT

&RASSCF
TITLE
orca_geometry_optimisation_300_285_BP86_def2-SVP_def2J_scf_cas1_ras12i11
LUMORB
SPIN
1
SYMMETRY
1
NACTEL
12  0  0
INACTIVE
29
DELETED  ! delete Rydberg orbitals from an initial CAS(12,11) if done
3
FROZEN
0
RAS2
8
ITERATIONS
64 25
CIROOT
7 7
1 2 3 4 5 6 7
1 1 1 1 1 1 1
LEVSHFT
0.3
CIMX
20
FILEorb = /home/pcaah4/diamide_project/cas/ras12i11/ras_orb/orca_geometry_optimisation_300_285_BP86_def2-SVP_def2J_scf_cas1_ras12i11.RasOrb
ALTEr
2
 1 36 37
 1 37 39
END OF INPUT

&RASSI
NROF JOBIPH
    1 7
    1 2 3 5 4 6 7
TOFILE
TRDI
TDMN
1.0D-6
END OF INPUT

&CASPT2
TITLE
orca_geometry_optimisation_300_285_BP86_def2-SVP_def2J_scf_cas1_ras12i11
MULTISTATE
7 1 2 3 4 5 6 7
SHIFT
0.35
MAXITER
50
END OF INPUT

-- ----------------------------------

--- Start Module: seward at Tue Jun 10 20:37:01 2025 ---
 
()()()()()()()()()()()()()()()()()()()()()()()()()()()()()()()()()()()()()()()()()()()()()()()()()()

                                              &SEWARD

                                   only a single process is used
                       available to each process: 2.0 GB of memory, 1 thread
                                            pid: 3126856
()()()()()()()()()()()()()()()()()()()()()()()()()()()()()()()()()()()()()()()()()()()()()()()()()()
 
               SEWARD will generate:
                  Multipole Moment integrals up to order  2
                  Kinetic Energy integrals
                  Nuclear Attraction integrals (point charge)
                  One-Electron Hamiltonian integrals
                  Velocity integrals
                  Orbital angular momentum around ( 0.0000  0.0000  0.0000 )
                  Velocity quadrupole around ( 2.0220  2.0437 -1.8884 )
                  Two-Electron Repulsion integrals
 
 Title:
            orca_geometry_optimisation_300_285_BP86_def2-SVP_def2J_scf_cas1_ras12i11    
 
 
                   Integrals are discarded if absolute value <: 0.10E-13
                   Integral cutoff threshold is set to       <: 0.10E-15
 
++    Symmetry information:
      ---------------------
 
                    Character Table for C1 
 
                             E  
                    a        1  x, y, xy, Rz, z, xz, Ry, yz, Rx, I
--
 
 
++    Basis set information:
      ----------------------
 
 
      Basis set label: C.ANO-S...4S3P1D......
 
      Electronic valence basis set:
      ------------------
      Associated Effective Charge   6.000000 au
      Associated Actual Charge      6.000000 au
      Nuclear Model: Point charge
 
      Shell  nPrim  nBasis  Cartesian Spherical Contaminant
         s      10       4        X                  
         p       6       3        X                  
         d       3       1                 X         
 
 
      Basis set label: N.ANO-S...4S3P1D......
 
      Electronic valence basis set:
      ------------------
      Associated Effective Charge   7.000000 au
      Associated Actual Charge      7.000000 au
      Nuclear Model: Point charge
 
      Shell  nPrim  nBasis  Cartesian Spherical Contaminant
         s      10       4        X                  
         p       6       3        X                  
         d       3       1                 X         
 
 
      Basis set label: O.ANO-S...4S3P1D......
 
      Electronic valence basis set:
      ------------------
      Associated Effective Charge   8.000000 au
      Associated Actual Charge      8.000000 au
      Nuclear Model: Point charge
 
      Shell  nPrim  nBasis  Cartesian Spherical Contaminant
         s      10       4        X                  
         p       6       3        X                  
         d       3       1                 X         
 
 
      Basis set label: H.ANO-S...2S1P......
 
      Electronic valence basis set:
      ------------------
      Associated Effective Charge   1.000000 au
      Associated Actual Charge      1.000000 au
      Nuclear Model: Point charge
 
      Shell  nPrim  nBasis  Cartesian Spherical Contaminant
         s       7       2        X                  
         p       3       1        X                  
--
 
 
++    Molecular structure info:
      -------------------------
 
                    ************************************************ 
                    **** Cartesian Coordinates / Bohr, Angstrom **** 
                    ************************************************ 
 
     Center  Label                x              y              z                     x              y              z
        1      C1              -0.051144      -0.105097       0.102546             -0.027064      -0.055615       0.054265
        2      C3               4.129700       2.035501      -0.366102              2.185343       1.077141      -0.193733
        3      C4               3.502957       3.884803      -2.553411              1.853685       2.055749      -1.351207
        4      C6               3.791705       4.455770      -7.189724              2.006484       2.357892      -3.804638
        5      C19             -1.350138      -2.668581       0.393949             -0.714462      -1.412152       0.208469
        6      N2               2.535294      -0.211993      -0.223727              1.341620      -0.112182      -0.118391
        7      N5               4.290761       3.041597      -4.892856              2.270573       1.609544      -2.589188
        8      O7              -1.210774       1.898275       0.170996             -0.640714       1.004524       0.090487
        9      O8               2.648566       6.002464      -2.183189              1.401561       3.176367      -1.155294
       10      H9              -2.979616      -2.741189      -0.916963             -1.576745      -1.450575      -0.485236
       11      H10             -2.125020      -2.812470       2.335596             -1.124512      -1.488295       1.235944
       12      H11             -0.110536      -4.318937       0.039637             -0.058493      -2.285483       0.020975
       13      H12              3.397678      -1.934779      -0.151229              1.797974      -1.023841      -0.080027
       14      H13              3.935273       3.186885       1.377266              2.082457       1.686427       0.728818
       15      H14              6.118440       1.400429      -0.534320              3.237739       0.741075      -0.282750
       16      H15              4.766452       1.177228      -5.056692              2.522298       0.622962      -2.675886
       17      H16              2.246248       3.607385      -8.334590              1.188663       1.908946      -4.410475
       18      H17              3.205497       6.377608      -6.610215              1.696276       3.374885      -3.497975
       19      H18              5.510105       4.594402      -8.385293              2.915822       2.431253      -4.437306
 
                    ************************************************* 
                    **** InterNuclear Distances / Bohr, Angstrom **** 
                    ************************************************* 
 
     Atom centers         Bohr        Angstrom
   13 H12       6 N2      1.927940        1.020222
   16 H15       7 N5      1.931062        1.021874
   18 H17       4 C6      2.091156        1.106592
   10 H9        5 C19     2.092598        1.107355
   12 H11       5 C19     2.094236        1.108222
   15 H14       2 C3      2.094446        1.108333
   11 H10       5 C19     2.095504        1.108893
   19 H18       4 C6      2.097976        1.110201
   14 H13       2 C3      2.098290        1.110367
   17 H16       4 C6      2.102121        1.112395
    9 O8        3 C4      2.313339        1.224166
    8 O7        1 C1      2.315800        1.225469
    7 N5        3 C4      2.608569        1.380395
    6 N2        1 C1      2.609127        1.380690
    7 N5        4 C6      2.743090        1.451581
    6 N2        2 C3      2.759281        1.460149
    5 C19       1 C1      2.888555        1.528557
    3 C4        2 C3      2.932071        1.551585
   11 H10      10 H9      3.363711        1.779999
   18 H17      17 H16     3.401142        1.799807
   12 H11      11 H10     3.405733        1.802236
   15 H14      14 H13     3.407610        1.803230
   19 H18      17 H16     3.410211        1.804606
   12 H11      10 H9      3.411157        1.805107
   19 H18      18 H17     3.412029        1.805568
   16 H15       3 C4      3.897922        2.062692
   18 H17       7 N5      3.905904        2.066916
   13 H12       1 C1      3.912354        2.070328
   15 H14       6 N2      3.941485        2.085744
   14 H13       6 N2      4.009426        2.121697
   19 H18       7 N5      4.011872        2.122991
   14 H13       3 C4      4.015497        2.124909
   16 H15       4 C6      4.030980        2.133103
   13 H12       2 C3      4.042914        2.139418
   17 H16       7 N5      4.042979        2.139453
   10 H9        1 C1      4.069930        2.153714
   11 H10       1 C1      4.076437        2.157158
   15 H14       3 C4      4.133956        2.187595
   12 H11       1 C1      4.214728        2.230338
   13 H12      12 H11     4.245963        2.246867
    8 O7        6 N2      4.317646        2.284800
   15 H14      13 H12     4.321217        2.286689
    9 O8        7 N5      4.336569        2.294813
   18 H17       9 O8      4.477662        2.369477
    8 O7        5 C19     4.574418        2.420678
    9 O8        2 C3      4.607857        2.438373
    6 N2        5 C19     4.638203        2.454431
    7 N5        2 C3      4.640008        2.455386
    4 C6        3 C4      4.680254        2.476684
   14 H13       9 O8      4.718044        2.496682
    2 C3        1 C1      4.720301        2.497876
   16 H15      15 H14     4.725414        2.500581
   18 H17       3 C4      4.770767        2.524581
   17 H16      16 H15     4.796010        2.537939
   16 H15       2 C3      4.810792        2.545761
    6 N2        3 C4      4.811189        2.545971
   19 H18      16 H15     4.828011        2.554873
   13 H12       5 C19     4.835022        2.558584
   12 H11       6 N2      4.892521        2.589011
   15 H14       7 N5      5.003067        2.647509
   10 H9        8 O7      5.083020        2.689818
   11 H10       8 O7      5.264262        2.785728
   14 H13       1 C1      5.324808        2.817767
    9 O8        4 C6      5.363247        2.838108
    8 O7        2 C3      5.369168        2.841241
   14 H13      13 H12     5.371848        2.842660
   14 H13       8 O7      5.440350        2.878909
   16 H15       6 N2      5.501414        2.911223
   18 H17      16 H15     5.647475        2.988515
--
 
 
            Nuclear Potential Energy            457.77898789 au
 
 
      Basis set specifications :
      Symmetry species         a  
      Basis functions          212
 
 
      Input file to MOLDEN was generated!
 
--- Stop Module: seward at Tue Jun 10 20:38:51 2025 /rc=_RC_ALL_IS_WELL_ ---
*** files: orca_geometry_optimisation_300_285_BP86_def2-SVP_def2J_scf_cas1_ras12i11_cas8.GssOrb
           orca_geometry_optimisation_300_285_BP86_def2-SVP_def2J_scf_cas1_ras12i11_cas8.guessorb.molden xmldump
    saved to directory /home/pcaah4/diamide_project
--- Module seward spent 1 minute 50 seconds ---

*** symbolic link created: INPORB -> orca_geometry_optimisation_300_285_BP86_def2-SVP_def2J_scf_cas1_ras12i11_cas8.GssOrb
--- Start Module: rasscf at Tue Jun 10 20:38:52 2025 ---
 
()()()()()()()()()()()()()()()()()()()()()()()()()()()()()()()()()()()()()()()()()()()()()()()()()()

                                              &RASSCF

                                   only a single process is used
                       available to each process: 2.0 GB of memory, 1 thread
                                            pid: 3126921
()()()()()()()()()()()()()()()()()()()()()()()()()()()()()()()()()()()()()()()()()()()()()()()()()()
 
 
      Header of the ONEINT file:
      --------------------------
      orca_geometry_optimisation_300_285_BP86_def2-SVP_def2J_scf_cas1_ras12i11
      Integrals generated by Gateway/Seward, Tue Jun 10 20:37:01 2025
 
 
      OrdInt status: non-squared
 
 
      Cartesian coordinates in Angstrom:
      -----------------------------------------------------
      No.  Label        X            Y            Z        
      -----------------------------------------------------
       1   C1        -0.02706400  -0.05561500   0.05426500
       2   C3         2.18534300   1.07714100  -0.19373300
       3   C4         1.85368500   2.05574900  -1.35120700
       4   C6         2.00648400   2.35789200  -3.80463800
       5   C19       -0.71446200  -1.41215200   0.20846900
       6   N2         1.34162000  -0.11218200  -0.11839100
       7   N5         2.27057300   1.60954400  -2.58918800
       8   O7        -0.64071400   1.00452400   0.09048700
       9   O8         1.40156100   3.17636700  -1.15529400
      10   H9        -1.57674500  -1.45057500  -0.48523600
      11   H10       -1.12451200  -1.48829500   1.23594400
      12   H11       -0.05849300  -2.28548300   0.02097500
      13   H12        1.79797400  -1.02384100  -0.08002700
      14   H13        2.08245700   1.68642700   0.72881800
      15   H14        3.23773900   0.74107500  -0.28275000
      16   H15        2.52229800   0.62296200  -2.67588600
      17   H16        1.18866300   1.90894600  -4.41047500
      18   H17        1.69627600   3.37488500  -3.49797500
      19   H18        2.91582200   2.43125300  -4.43730600
      -----------------------------------------------------
      Nuclear repulsion energy =  457.77898789
 
++    Wave function specifications:
      -----------------------------
 
      Number of closed shell electrons          58
      Number of electrons in active shells      12
      Max number of holes in RAS1 space          0
      Max nr of electrons in RAS3 space          0
      Number of inactive orbitals               29
      Number of active orbitals                  8
      Number of secondary orbitals             172
      Spin quantum number                      0.0
      State symmetry                             1
--
 
++    Orbital specifications:
      -----------------------
 
      Symmetry species                           1
                                                 a
      Frozen orbitals                            0
      Inactive orbitals                         29
      Active orbitals                            8
      RAS1 orbitals                              0
      RAS2 orbitals                              8
      RAS3 orbitals                              0
      Secondary orbitals                       172
      Deleted orbitals                           3
      Number of basis functions                212
--
 
++    CI expansion specifications:
      ----------------------------
 
      Number of CSFs                           336
      Number of determinants                   406
      Number of root(s) required                 7
      Root chosen for geometry opt.              7
      CI roots used                              1     2     3     4     5     6     7
      weights                                0.143 0.143 0.143 0.143 0.143 0.143 0.143
      highest root included in the CI            7
      max. size of the explicit Hamiltonian    200
--
 
++    Optimization specifications:
      ----------------------------
 
      RASSCF algorithm: Conventional
      Maximum number of macro iterations        64
      Maximum number of SX iterations           25
      Threshold for RASSCF energy            0.100E-07
      Threshold for max MO rotation          0.100E+00
      Threshold for max BLB element          0.100E-03
      Level shift parameter                  0.300E+00
      Make Quasi-Newton update
--
 
      The MO-coefficients are taken from the file:
      /home/pcaah4/diamide_project/cas/ras12i11/ras_orb/orca_geometry_optimisation_300_285_BP86_def2-SVP_def2J_scf_cas1_ras12i11.RasOrb                                                                                                                               
      Title: RASSCF average (pseudo-natural) orbitals                                      
 
      Total molecular charge    0.00
 
      Molecular orbitals exchanged:
        In symmetry  1 :  36  37
        In symmetry  1 :  37  39
 
 
      ************************************************************************************************************************
      *                                                                                                                      *
      *                                            Wave function control section                                             *
      *                                                                                                                      *
      ************************************************************************************************************************
 
 
                                         RASSCF iterations: Energy and convergence statistics
                                         ----------------------------------------------------
 
      Iter CI   SX   CI       RASSCF       Energy    max ROT     max BLB   max BLB  Level Ln srch  Step   QN   Walltime
          iter iter root      energy       change     param      element    value   shift minimum  type update hh:mm:ss
 Nr of preliminary CI iterations:   9
        1   1   25    0  -453.67717381    0.00E+00   0.11E+00*  37  38 1  0.18E-01*  0.16   0.00    SX    NO    0:00:14
        2   6   27    0  -453.69374280   -0.17E-01*  0.83E-01   37  38 1  0.13E-01*  0.15   0.00    SX    NO    0:00:07
        3   4   10    0  -453.69787725   -0.41E-02*  0.53E-01   37  38 1  0.85E-02*  0.16   0.00    SX    NO    0:00:07
        4   7   13    0  -453.70027784   -0.24E-02* -0.36E-01   37  38 1  0.57E-02*  0.16   0.00    SX    NO    0:00:07
        5   6   12    0  -453.70117403   -0.90E-03*  0.86E-01   37  38 1  0.40E-02*  0.16   1.62    QN   YES    0:00:07
        6   6   11    0  -453.70187478   -0.70E-03* -0.96E-02   34  39 1  0.31E-02*  0.16   0.77    QN   YES    0:00:07
        7   5   10    0  -453.70201473   -0.14E-03*  0.75E-02   21  97 1 -0.24E-02*  0.16   0.74    QN   YES    0:00:07
        8   4    9    0  -453.70206259   -0.48E-04*  0.11E-01   36  38 1 -0.40E-03*  0.16   2.50    LS   YES    0:00:07
        9   6   10    0  -453.70204612    0.16E-04*  0.86E-03   21  97 1  0.19E-02*  0.16   0.39    SX   YES    0:00:07
       10   6    9    0  -453.70207919   -0.33E-04*  0.61E-03   33  39 1  0.24E-03*  0.16   1.05    QN   YES    0:00:07
       11   1    8    0  -453.70208123   -0.20E-05* -0.99E-03   21  97 1  0.30E-03*  0.16   1.46    QN   YES    0:00:07
       12   6    9    0  -453.70208180   -0.57E-06* -0.90E-03   33  39 1 -0.12E-03*  0.16   0.61    QN   YES    0:00:07
       13   4    8    0  -453.70208248   -0.68E-06* -0.32E-03   21  97 1  0.14E-03*  0.16   1.06    QN   YES    0:00:07
       14   4    7    0  -453.70208260   -0.12E-06* -0.32E-03   21  97 1  0.60E-04   0.16   1.99    LS   YES    0:00:07
       15   4    7    0  -453.70208263   -0.35E-07* -0.48E-04   21  77 1 -0.21E-04   0.16   0.89    QN   YES    0:00:07
       16   1    6    0  -453.70208265   -0.14E-07*  0.21E-04   21  97 1  0.16E-04   0.16   1.06    QN   YES    0:00:07
       17   1    5    0  -453.70208265   -0.28E-08   0.15E-04   21  97 1  0.31E-05   0.16   1.07    QN   YES    0:00:07
      Convergence after 17 iterations
       18   1    5    0  -453.70208265   -0.48E-09   0.15E-04   21  97 1  0.17E-05   0.16   1.07    QN   YES    0:00:07
 
      ************************************************************************************************************************
                                                      Wave function printout:
                       occupation of active orbitals, and spin coupling of open shells (u,d: Spin up or down)
      ************************************************************************************************************************
 
      Note: transformation to natural orbitals
      has been made, which may change the order of the CSFs.
 
      printout of CI-coefficients larger than  0.05 for root  1
      energy=    -453.950964
      conf/sym  11111111     Coeff  Weight
             1  22222200  -0.96200 0.92545
             3  2222u2d0  -0.14101 0.01988
             6  22220220   0.07867 0.00619
            15  22222002   0.08123 0.00660
            64  2u22220d   0.08005 0.00641
            73  2u222d02  -0.05856 0.00343
            81  u22222d0  -0.07432 0.00552
            83  u222d220   0.07298 0.00533
           175  20222202   0.08026 0.00644
           191  02222220   0.09810 0.00962
 
      printout of CI-coefficients larger than  0.05 for root  2
      energy=    -453.744441
      conf/sym  11111111     Coeff  Weight
            21  222u22d0   0.95968 0.92099
            23  222ud220  -0.10238 0.01048
            35  222u20d2   0.08042 0.00647
           111  22ud2220   0.07176 0.00515
           131  u22d2220  -0.18539 0.03437
           207  2u2u22dd  -0.06729 0.00453
           262  202u22d2  -0.07919 0.00627
 
      printout of CI-coefficients larger than  0.05 for root  3
      energy=    -453.736403
      conf/sym  11111111     Coeff  Weight
             7  22222u0d   0.07422 0.00551
             8  2222u20d  -0.28144 0.07921
            44  22u2220d  -0.90126 0.81227
            46  22u2d2ud  -0.05681 0.00323
            48  22u2u2dd  -0.09927 0.00985
            52  22u2022d   0.08198 0.00672
            53  22u22d02   0.17532 0.03074
           155  2ud22202  -0.14079 0.01982
           225  u2u222dd   0.05561 0.00309
           227  u2u2d22d  -0.05649 0.00319
           301  02u2222d  -0.08987 0.00808
 
      printout of CI-coefficients larger than  0.05 for root  4
      energy=    -453.639306
      conf/sym  11111111     Coeff  Weight
             7  22222u0d  -0.85682 0.73414
             8  2222u20d  -0.36495 0.13319
            10  2222udud  -0.05582 0.00312
            12  2222uudd   0.11020 0.01215
            14  22220u2d  -0.07498 0.00562
            15  22222002  -0.05498 0.00302
            24  222u220d  -0.12550 0.01575
            64  2u22220d  -0.07583 0.00575
            73  2u222d02  -0.19920 0.03968
            87  u2222udd   0.06166 0.00380
            88  u222u2dd   0.07157 0.00512
            90  u222du2d  -0.06592 0.00434
           175  20222202   0.07167 0.00514
           193  02222u2d  -0.08600 0.00740
 
      printout of CI-coefficients larger than  0.05 for root  5
      energy=    -453.627841
      conf/sym  11111111     Coeff  Weight
             1  22222200  -0.08460 0.00716
             3  2222u2d0   0.58440 0.34152
             6  22220220   0.10090 0.01018
             7  22222u0d  -0.28319 0.08020
             8  2222u20d   0.46209 0.21353
            24  222u220d   0.43033 0.18518
            26  222ud2ud  -0.11582 0.01341
            28  222uu2dd  -0.15711 0.02468
            44  22u2220d  -0.19047 0.03628
            68  2u22u2dd  -0.06635 0.00440
            73  2u222d02  -0.06096 0.00372
            83  u222d220  -0.15174 0.02303
            86  u222d2ud  -0.08146 0.00664
            88  u222u2dd  -0.09911 0.00982
           191  02222220  -0.05993 0.00359
           194  0222u22d   0.06359 0.00404
 
      printout of CI-coefficients larger than  0.05 for root  6
      energy=    -453.619637
      conf/sym  11111111     Coeff  Weight
             3  2222u2d0   0.18353 0.03368
             7  22222u0d   0.18966 0.03597
             8  2222u20d  -0.64976 0.42219
            16  2222ud02  -0.05272 0.00278
            24  222u220d   0.58588 0.34326
            26  222ud2ud  -0.13388 0.01792
            28  222uu2dd  -0.17704 0.03134
            44  22u2220d   0.18329 0.03360
            73  2u222d02   0.05638 0.00318
            86  u222d2ud   0.11620 0.01350
            88  u222u2dd   0.15528 0.02411
           194  0222u22d  -0.09545 0.00911
           201  22uu22dd   0.05247 0.00275
           269  022u222d   0.05419 0.00294
 
      printout of CI-coefficients larger than  0.05 for root  7
      energy=    -453.595986
      conf/sym  11111111     Coeff  Weight
             1  22222200  -0.09267 0.00859
             3  2222u2d0   0.67632 0.45741
             6  22220220   0.15694 0.02463
             7  22222u0d   0.16484 0.02717
             8  2222u20d  -0.23318 0.05438
            15  22222002   0.07439 0.00553
            18  2222u0d2   0.05935 0.00352
            24  222u220d  -0.52726 0.27801
            26  222ud2ud   0.12645 0.01599
            28  222uu2dd   0.16778 0.02815
            44  22u2220d   0.09816 0.00963
            64  2u22220d   0.11829 0.01399
            81  u22222d0  -0.07047 0.00497
            83  u222d220  -0.16494 0.02720
            88  u222u2dd   0.05613 0.00315
           177  2022u2d2  -0.05846 0.00342
           191  02222220  -0.08173 0.00668
 
      Natural orbitals and occupation numbers for root  1
      sym 1:   1.996796   1.966317   1.999812   1.999411   1.949413   1.996350   0.053995   0.037906
 
      Natural orbitals and occupation numbers for root  2
      sym 1:   1.999951   1.968188   1.999698   1.000836   1.999842   1.996062   0.999453   0.035968
 
      Natural orbitals and occupation numbers for root  3
      sym 1:   1.994696   1.999929   1.002485   1.999282   1.951031   1.998512   0.052765   1.001300
 
      Natural orbitals and occupation numbers for root  4
      sym 1:   1.992286   1.969201   1.998246   1.997094   1.939373   0.919282   0.063885   1.120632
 
      Natural orbitals and occupation numbers for root  5
      sym 1:   1.940837   1.986044   1.994437   1.815103   1.251704   1.971973   0.268130   0.771771
 
      Natural orbitals and occupation numbers for root  6
      sym 1:   1.953489   1.993495   1.982274   1.902420   1.073433   1.998586   0.125183   0.971122
 
      Natural orbitals and occupation numbers for root  7
      sym 1:   1.957133   1.993277   1.994414   1.725484   1.299626   1.971231   0.735485   0.323351
 
      ************************************************************************************************************************
      *                                                                                                                      *
      *                                                    Final results                                                     *
      *                                                                                                                      *
      ************************************************************************************************************************
 
 
++    Wave function specifications:
      -----------------------------
 
      Number of closed shell electrons          58
      Number of electrons in active shells      12
      Max number of holes in RAS1 space          0
      Max nr of electrons in RAS3 space          0
      Number of inactive orbitals               29
      Number of active orbitals                  8
      Number of secondary orbitals             172
      Spin quantum number                      0.0
      State symmetry                             1
--
 
++    Orbital specifications:
      -----------------------
 
      Symmetry species                           1
                                                 a
      Frozen orbitals                            0
      Inactive orbitals                         29
      Active orbitals                            8
      RAS1 orbitals                              0
      RAS2 orbitals                              8
      RAS3 orbitals                              0
      Secondary orbitals                       172
      Deleted orbitals                           3
      Number of basis functions                212
--
 
++    CI expansion specifications:
      ----------------------------
 
      Number of CSFs                           336
      Number of determinants                   406
      Number of root(s) required                 7
      CI roots used                              1     2     3     4     5     6     7
      weights                                0.143 0.143 0.143 0.143 0.143 0.143 0.143
      highest root included in the CI            7
      Root passed to geometry opt.               7
--
 
++    Final optimization conditions:
      ------------------------------
 
      Average CI energy                            -453.70208265
      RASSCF energy for state  7                   -453.59598644
      Super-CI energy                                -0.00000000
      RASSCF energy change                            0.00000000
      Max change in MO coefficients              -0.184E-04
      Max non-diagonal density matrix element     0.152E-04
      Maximum BLB matrix element                  0.168E-05
      (orbital pair  21,  97 in symmetry   1)
      Norm of electronic gradient            0.180E+00
--
 
 
      Final state energy(ies):
      ------------------------
 
::    RASSCF root number  1 Total energy:   -453.95096434
::    RASSCF root number  2 Total energy:   -453.74444150
::    RASSCF root number  3 Total energy:   -453.73640327
::    RASSCF root number  4 Total energy:   -453.63930553
::    RASSCF root number  5 Total energy:   -453.62784062
::    RASSCF root number  6 Total energy:   -453.61963687
::    RASSCF root number  7 Total energy:   -453.59598644
 
++    Molecular orbitals:
      -------------------
 
      Pseudonatural active orbitals and approximate occupation numbers
 
 
 
 
      Molecular orbitals for symmetry species 1: a  
 
 
      Orbital                 1         2         3         4         5         6         7         8         9        10
      Energy           -20.5926  -20.5119  -15.6406  -15.5788  -11.3404  -11.2890  -11.2862  -11.2608  -11.2572   -1.4206
      Occ. No.           2.0000    2.0000    2.0000    2.0000    2.0000    2.0000    2.0000    2.0000    2.0000    2.0000
 
     1 C1     1s         0.0002   -0.0000    0.0002    0.0000    0.9999   -0.0000   -0.0001    0.0038   -0.0000    0.0384
     2 C1     2s         0.0004   -0.0003    0.0006    0.0002    0.0016   -0.0015   -0.0010    0.0005   -0.0002   -0.3661
     3 C1     3s        -0.0009   -0.0003    0.0000    0.0000   -0.0006   -0.0012   -0.0007    0.0008   -0.0002    0.0004
     4 C1     4s        -0.0005   -0.0001   -0.0000   -0.0000    0.0012   -0.0004   -0.0002    0.0002   -0.0001   -0.0044
     5 C1     2px       -0.0011   -0.0002    0.0016   -0.0006    0.0014   -0.0003   -0.0001    0.0003   -0.0002    0.0414
     6 C1     3px       -0.0008   -0.0001    0.0012   -0.0008    0.0015   -0.0006   -0.0001   -0.0002   -0.0003   -0.0201
     7 C1     4px        0.0001    0.0001   -0.0000   -0.0002    0.0006   -0.0003   -0.0000   -0.0002   -0.0000    0.0133
     8 C1     2py        0.0030   -0.0001   -0.0000   -0.0006    0.0008    0.0003   -0.0002    0.0006   -0.0001   -0.1042
     9 C1     3py        0.0021   -0.0003   -0.0000   -0.0007    0.0007    0.0000   -0.0002   -0.0001   -0.0002    0.0664
    10 C1     4py       -0.0004   -0.0001    0.0000   -0.0001    0.0007   -0.0003   -0.0000   -0.0003   -0.0001   -0.0242
    11 C1     2pz        0.0000   -0.0001   -0.0001    0.0002   -0.0002   -0.0001    0.0002   -0.0000    0.0002   -0.0040
    12 C1     3pz       -0.0000   -0.0002   -0.0001    0.0002   -0.0004   -0.0001    0.0002    0.0001    0.0003    0.0005
    13 C1     4pz       -0.0000   -0.0001    0.0000    0.0000   -0.0002   -0.0000    0.0001    0.0000    0.0001   -0.0005
    14 C1     3d2-       0.0001    0.0000    0.0001    0.0000   -0.0004    0.0000   -0.0000   -0.0001    0.0000    0.0322
    15 C1     3d1-      -0.0000   -0.0000   -0.0000    0.0000    0.0000    0.0000   -0.0000   -0.0000    0.0000   -0.0018
    16 C1     3d0       -0.0000   -0.0000    0.0001    0.0000   -0.0004   -0.0001    0.0000   -0.0001    0.0000    0.0279
    17 C1     3d1+      -0.0000    0.0000    0.0001    0.0000   -0.0001   -0.0000    0.0000   -0.0000    0.0000    0.0030
    18 C1     3d2+       0.0001   -0.0000   -0.0002    0.0000   -0.0001    0.0000    0.0000    0.0000   -0.0000    0.0138
    19 C3     1s         0.0002    0.0001    0.0003    0.0000   -0.0002    0.9946   -0.0993   -0.0000    0.0001    0.0098
    20 C3     2s         0.0014    0.0005    0.0019    0.0005    0.0002   -0.0013   -0.0003   -0.0005    0.0008   -0.0121
    21 C3     3s         0.0008    0.0004    0.0010    0.0005    0.0001   -0.0025   -0.0003   -0.0003    0.0005    0.0223
    22 C3     4s         0.0001    0.0001    0.0002    0.0001   -0.0001    0.0007   -0.0002   -0.0000    0.0001    0.0032
    23 C3     2px       -0.0003    0.0002   -0.0005   -0.0007    0.0006    0.0002    0.0000   -0.0003   -0.0000    0.0214
    24 C3     3px       -0.0002    0.0002    0.0000   -0.0006    0.0008    0.0001   -0.0000   -0.0004    0.0000    0.0056
    25 C3     4px        0.0001    0.0000    0.0002    0.0001    0.0002   -0.0006   -0.0001   -0.0001    0.0000    0.0037
    26 C3     2py       -0.0002   -0.0011   -0.0007    0.0004   -0.0002   -0.0009    0.0004    0.0003   -0.0002    0.0098
    27 C3     3py       -0.0003   -0.0011   -0.0003    0.0003   -0.0002   -0.0007   -0.0001    0.0003   -0.0004   -0.0041
    28 C3     4py       -0.0000   -0.0001    0.0001   -0.0000   -0.0001   -0.0008   -0.0001   -0.0000   -0.0002    0.0029
    29 C3     2pz        0.0003   -0.0004   -0.0004    0.0002   -0.0004    0.0001    0.0001    0.0003   -0.0004   -0.0099
    30 C3     3pz        0.0003   -0.0003   -0.0006    0.0002   -0.0006    0.0001    0.0004    0.0003   -0.0004   -0.0132
    31 C3     4pz        0.0000    0.0001   -0.0001    0.0001   -0.0002   -0.0002    0.0001    0.0000    0.0000   -0.0023
    32 C3     3d2-       0.0000    0.0000   -0.0000   -0.0000    0.0000   -0.0001    0.0000   -0.0000   -0.0000   -0.0041
    33 C3     3d1-       0.0000    0.0000   -0.0000    0.0000    0.0000    0.0001   -0.0000    0.0000   -0.0001    0.0010
    34 C3     3d0        0.0000    0.0001    0.0001    0.0000   -0.0000   -0.0000   -0.0001    0.0000    0.0000    0.0019
    35 C3     3d1+       0.0000   -0.0000    0.0000   -0.0000   -0.0000   -0.0001    0.0000    0.0000    0.0000    0.0003
    36 C3     3d2+      -0.0000    0.0000    0.0000   -0.0001    0.0001    0.0001    0.0000   -0.0000   -0.0000    0.0007
    37 C4     1s        -0.0001    0.0004   -0.0001    0.0003   -0.0001    0.0993    0.9951    0.0000    0.0003    0.0004
    38 C4     2s        -0.0004    0.0014   -0.0004    0.0012   -0.0007    0.0012    0.0024    0.0003   -0.0004   -0.0387
    39 C4     3s        -0.0002   -0.0001   -0.0001    0.0006   -0.0006    0.0005    0.0001    0.0003   -0.0004   -0.0114
    40 C4     4s        -0.0000   -0.0003    0.0000    0.0001   -0.0002    0.0002    0.0013    0.0001   -0.0002   -0.0036
    41 C4     2px        0.0001   -0.0012    0.0003    0.0004   -0.0001    0.0005    0.0003    0.0001   -0.0001    0.0024
    42 C4     3px        0.0001   -0.0010    0.0001    0.0003   -0.0002    0.0005   -0.0002    0.0002   -0.0000   -0.0041
    43 C4     4px       -0.0000    0.0001   -0.0001    0.0000   -0.0001    0.0001    0.0000    0.0000    0.0000   -0.0023
    44 C4     2py        0.0002    0.0030   -0.0002   -0.0005    0.0002   -0.0006   -0.0000   -0.0002    0.0002    0.0049
    45 C4     3py        0.0002    0.0022   -0.0001   -0.0005    0.0003    0.0001   -0.0002   -0.0003   -0.0001    0.0097
    46 C4     4py        0.0000   -0.0003    0.0001   -0.0000    0.0001    0.0003    0.0001   -0.0001   -0.0002    0.0022
    47 C4     2pz        0.0003    0.0008    0.0001   -0.0016    0.0005    0.0013   -0.0006   -0.0002    0.0002   -0.0003
    48 C4     3pz        0.0004    0.0008    0.0005   -0.0011    0.0008    0.0011   -0.0003   -0.0002    0.0009    0.0066
    49 C4     4pz        0.0001    0.0000    0.0002    0.0002    0.0002    0.0000   -0.0003   -0.0000    0.0005    0.0016
    50 C4     3d2-      -0.0000    0.0000    0.0001    0.0001    0.0000    0.0000   -0.0003   -0.0000   -0.0000    0.0017
    51 C4     3d1-       0.0000   -0.0001    0.0000   -0.0001   -0.0000   -0.0001    0.0002    0.0000    0.0000    0.0000
    52 C4     3d0       -0.0000    0.0002    0.0001   -0.0001    0.0000   -0.0000   -0.0001    0.0000    0.0001    0.0006
    53 C4     3d1+       0.0000   -0.0000    0.0000    0.0001    0.0000   -0.0000   -0.0002   -0.0000   -0.0000    0.0012
    54 C4     3d2+      -0.0000    0.0000    0.0000    0.0000    0.0000   -0.0000   -0.0003   -0.0000   -0.0000    0.0017
    55 C6     1s         0.0000    0.0001   -0.0001    0.0003   -0.0000    0.0000   -0.0004    0.0000    0.9997   -0.0007
    56 C6     2s         0.0002    0.0006   -0.0006    0.0014   -0.0002    0.0002   -0.0003    0.0002   -0.0000   -0.0091
    57 C6     3s         0.0002    0.0004   -0.0004    0.0004   -0.0001    0.0002   -0.0004    0.0002   -0.0017   -0.0058
    58 C6     4s         0.0001    0.0001   -0.0001   -0.0001   -0.0001    0.0000   -0.0002    0.0000    0.0009   -0.0019
    59 C6     2px        0.0000    0.0003   -0.0002    0.0001   -0.0001   -0.0002   -0.0001    0.0001   -0.0000   -0.0041
    60 C6     3px        0.0000    0.0003   -0.0002    0.0000   -0.0001   -0.0002    0.0001    0.0001   -0.0001   -0.0036
    61 C6     4px        0.0000    0.0000    0.0000    0.0000    0.0000   -0.0000    0.0001   -0.0000    0.0001    0.0003
    62 C6     2py        0.0000    0.0001    0.0001   -0.0003    0.0001   -0.0001   -0.0001   -0.0001   -0.0002    0.0043
    63 C6     3py       -0.0000    0.0001    0.0001    0.0000    0.0001   -0.0001   -0.0001   -0.0000    0.0002    0.0029
    64 C6     4py       -0.0000   -0.0001   -0.0000    0.0001    0.0000   -0.0000   -0.0000    0.0000   -0.0003   -0.0004
    65 C6     2pz        0.0001    0.0003   -0.0000    0.0004   -0.0000    0.0002   -0.0004    0.0001   -0.0001   -0.0023
    66 C6     3pz        0.0001    0.0002   -0.0000   -0.0002   -0.0001    0.0001   -0.0006    0.0001   -0.0002   -0.0022
    67 C6     4pz        0.0000   -0.0000   -0.0000   -0.0002   -0.0001   -0.0001   -0.0001    0.0000    0.0006   -0.0013
    68 C6     3d2-      -0.0000   -0.0000    0.0000    0.0001    0.0000   -0.0000    0.0000    0.0000    0.0000   -0.0001
    69 C6     3d1-      -0.0000   -0.0000    0.0000    0.0000    0.0000   -0.0000    0.0000   -0.0000    0.0001    0.0004
    70 C6     3d0       -0.0000    0.0000    0.0000   -0.0000    0.0000    0.0000    0.0001    0.0000   -0.0000   -0.0001
    71 C6     3d1+      -0.0000   -0.0000   -0.0000   -0.0000    0.0000    0.0000   -0.0000   -0.0000   -0.0000   -0.0000
    72 C6     3d2+      -0.0000   -0.0000   -0.0000    0.0001   -0.0000   -0.0000    0.0000    0.0000    0.0001   -0.0002
    73 C19    1s         0.0002   -0.0001   -0.0000   -0.0001    0.0038    0.0002    0.0000   -1.0000   -0.0000    0.0145
    74 C19    2s         0.0011   -0.0005   -0.0001   -0.0004    0.0005    0.0009    0.0004   -0.0020   -0.0001    0.0112
    75 C19    3s         0.0006   -0.0005   -0.0000   -0.0004    0.0002    0.0005    0.0003    0.0004   -0.0002    0.0390
    76 C19    4s         0.0001   -0.0001   -0.0000   -0.0001    0.0001    0.0000    0.0001   -0.0012   -0.0001    0.0037
    77 C19    2px        0.0008   -0.0000   -0.0003   -0.0001   -0.0001    0.0003    0.0001    0.0001    0.0000    0.0088
    78 C19    3px        0.0005   -0.0001   -0.0003    0.0000   -0.0003    0.0003    0.0001    0.0001    0.0000    0.0074
    79 C19    4px       -0.0002    0.0000   -0.0000    0.0000   -0.0001    0.0000   -0.0000   -0.0002    0.0000   -0.0082
    80 C19    2py       -0.0002   -0.0002    0.0003   -0.0003    0.0004    0.0002    0.0000    0.0003   -0.0001   -0.0212
    81 C19    3py       -0.0003   -0.0002    0.0003   -0.0002   -0.0000    0.0000    0.0000    0.0000   -0.0001    0.0067
    82 C19    4py       -0.0001    0.0000   -0.0001    0.0000   -0.0001   -0.0001   -0.0000   -0.0004   -0.0000   -0.0046
    83 C19    2pz       -0.0002    0.0001    0.0001   -0.0001    0.0002    0.0001   -0.0001   -0.0001   -0.0001    0.0019
    84 C19    3pz       -0.0001    0.0000    0.0001   -0.0002    0.0002    0.0001   -0.0001   -0.0001   -0.0001    0.0009
    85 C19    4pz        0.0000   -0.0000    0.0000   -0.0000    0.0000    0.0000   -0.0000    0.0000   -0.0000    0.0013
    86 C19    3d2-       0.0001   -0.0000   -0.0000   -0.0000    0.0000    0.0001    0.0000    0.0001    0.0000   -0.0014
    87 C19    3d1-      -0.0000    0.0000    0.0000    0.0000   -0.0000   -0.0000   -0.0000   -0.0000    0.0000    0.0006
    88 C19    3d0       -0.0001    0.0000   -0.0001    0.0000    0.0001   -0.0000   -0.0000   -0.0001    0.0000   -0.0011
    89 C19    3d1+      -0.0000    0.0000   -0.0000    0.0000    0.0000   -0.0000   -0.0000   -0.0000   -0.0000   -0.0017
    90 C19    3d2+       0.0001    0.0000   -0.0000    0.0000   -0.0001   -0.0000   -0.0000   -0.0001    0.0000    0.0067
    91 N2     1s         0.0000   -0.0000    0.9998   -0.0000   -0.0003    0.0002    0.0000   -0.0001    0.0000    0.0169
    92 N2     2s         0.0002   -0.0001   -0.0001   -0.0002   -0.0006    0.0020    0.0002   -0.0004    0.0001   -0.1266
    93 N2     3s         0.0002   -0.0000   -0.0014   -0.0001   -0.0006    0.0011    0.0003   -0.0003    0.0000    0.0434
    94 N2     4s         0.0000    0.0000    0.0004   -0.0000   -0.0000    0.0003    0.0001   -0.0001    0.0000    0.0106
    95 N2     2px       -0.0001   -0.0007    0.0000    0.0000   -0.0005    0.0003   -0.0001    0.0004   -0.0001    0.0240
    96 N2     3px       -0.0003   -0.0010   -0.0001    0.0000   -0.0004   -0.0001   -0.0001    0.0004   -0.0002   -0.0231
    97 N2     4px       -0.0000   -0.0001   -0.0002    0.0000   -0.0003   -0.0001    0.0000   -0.0001   -0.0000    0.0057
    98 N2     2py       -0.0016    0.0001   -0.0007   -0.0001    0.0006    0.0007    0.0005    0.0001   -0.0001   -0.0319
    99 N2     3py       -0.0019    0.0001    0.0001   -0.0001    0.0007    0.0007    0.0005    0.0001   -0.0001   -0.0054
   100 N2     4py       -0.0000    0.0000    0.0005    0.0000    0.0000    0.0002   -0.0001   -0.0001    0.0000    0.0068
   101 N2     2pz        0.0000    0.0001    0.0001    0.0001    0.0000   -0.0001    0.0001   -0.0001   -0.0000   -0.0057
   102 N2     3pz        0.0001    0.0001   -0.0001    0.0001   -0.0001   -0.0001   -0.0001   -0.0001   -0.0001    0.0018
   103 N2     4pz        0.0000   -0.0000    0.0000    0.0000   -0.0000    0.0000    0.0000    0.0000   -0.0000   -0.0019
   104 N2     3d2-       0.0001   -0.0000   -0.0002    0.0000   -0.0001   -0.0001    0.0000    0.0000    0.0000    0.0034
   105 N2     3d1-      -0.0000    0.0000    0.0000    0.0000    0.0000   -0.0000   -0.0000    0.0000    0.0000   -0.0007
   106 N2     3d0       -0.0000   -0.0000   -0.0000    0.0000    0.0001    0.0001   -0.0000    0.0001   -0.0000    0.0026
   107 N2     3d1+      -0.0000    0.0000    0.0000    0.0000    0.0000    0.0000   -0.0000    0.0000    0.0000    0.0012
   108 N2     3d2+      -0.0000   -0.0000   -0.0000    0.0000    0.0001   -0.0001    0.0000   -0.0000   -0.0000   -0.0044
   109 N5     1s         0.0000    0.0001   -0.0000    0.9999    0.0001    0.0000   -0.0002   -0.0000    0.0001    0.0023
   110 N5     2s         0.0003    0.0009   -0.0003    0.0002    0.0005    0.0002   -0.0001   -0.0003    0.0017    0.0005
   111 N5     3s         0.0002    0.0006   -0.0002   -0.0013    0.0003    0.0001   -0.0003   -0.0002    0.0010    0.0078
   112 N5     4s         0.0001    0.0001   -0.0000    0.0005    0.0001    0.0000    0.0000   -0.0001    0.0004    0.0018
   113 N5     2px       -0.0001    0.0004    0.0001    0.0002    0.0001   -0.0000    0.0001   -0.0000   -0.0001    0.0028
   114 N5     3px       -0.0001    0.0005    0.0001    0.0002    0.0002   -0.0001   -0.0000   -0.0000   -0.0002    0.0028
   115 N5     4px        0.0000    0.0000    0.0000   -0.0004    0.0001   -0.0000   -0.0001   -0.0000   -0.0001    0.0011
   116 N5     2py       -0.0000   -0.0014    0.0003   -0.0010    0.0002    0.0000    0.0005   -0.0001    0.0004    0.0016
   117 N5     3py       -0.0001   -0.0016    0.0005   -0.0005    0.0003    0.0001    0.0003   -0.0002    0.0006    0.0051
   118 N5     4py       -0.0001   -0.0000    0.0000    0.0002    0.0001    0.0001   -0.0000   -0.0000    0.0002    0.0015
   119 N5     2pz        0.0002    0.0005   -0.0006   -0.0000   -0.0003    0.0001    0.0000    0.0001   -0.0009   -0.0108
   120 N5     3pz        0.0003    0.0006   -0.0008    0.0000   -0.0006   -0.0001   -0.0001    0.0003   -0.0007   -0.0146
   121 N5     4pz       -0.0000   -0.0000   -0.0001    0.0000   -0.0001   -0.0001    0.0003    0.0001   -0.0000   -0.0033
   122 N5     3d2-       0.0000    0.0000    0.0000    0.0000    0.0000   -0.0000    0.0001   -0.0000    0.0000    0.0002
   123 N5     3d1-       0.0000   -0.0001   -0.0000    0.0001    0.0000    0.0000    0.0001   -0.0000    0.0000   -0.0002
   124 N5     3d0        0.0000    0.0000   -0.0000   -0.0002   -0.0000    0.0000   -0.0001    0.0000   -0.0001   -0.0006
   125 N5     3d1+      -0.0000    0.0000    0.0000   -0.0000    0.0000   -0.0000    0.0000   -0.0000    0.0000    0.0003
   126 N5     3d2+       0.0000   -0.0000    0.0000   -0.0001   -0.0000   -0.0000    0.0001   -0.0000    0.0000    0.0000
   127 O7     1s         0.9997   -0.0000    0.0000    0.0000   -0.0003   -0.0000    0.0000   -0.0001    0.0000    0.0248
   128 O7     2s        -0.0014   -0.0002    0.0001    0.0002    0.0005   -0.0002    0.0001   -0.0004    0.0000   -0.6814
   129 O7     3s        -0.0013   -0.0002    0.0000    0.0002   -0.0000   -0.0001    0.0001   -0.0003    0.0000    0.0377
   130 O7     4s         0.0001   -0.0001   -0.0001    0.0000    0.0000    0.0000    0.0001   -0.0001    0.0000    0.0147
   131 O7     2px        0.0001   -0.0002   -0.0004    0.0001    0.0003   -0.0000   -0.0000   -0.0001   -0.0000   -0.0785
   132 O7     3px       -0.0003   -0.0002   -0.0005    0.0001   -0.0002    0.0001   -0.0000   -0.0001   -0.0000    0.0230
   133 O7     4px        0.0007   -0.0000   -0.0001    0.0000    0.0000    0.0000   -0.0000    0.0000   -0.0000    0.0005
   134 O7     2py       -0.0003   -0.0000   -0.0002    0.0001   -0.0008   -0.0000   -0.0001    0.0002    0.0000    0.1276
   135 O7     3py        0.0004   -0.0002   -0.0002    0.0002   -0.0005   -0.0001   -0.0001    0.0002    0.0000   -0.0409
   136 O7     4py       -0.0012   -0.0001    0.0000    0.0001   -0.0003   -0.0000   -0.0000   -0.0000   -0.0000   -0.0007
   137 O7     2pz       -0.0000    0.0001    0.0001   -0.0000    0.0001    0.0000    0.0000   -0.0000   -0.0000    0.0015
   138 O7     3pz       -0.0000    0.0002    0.0001   -0.0000    0.0001   -0.0000    0.0000   -0.0000   -0.0001   -0.0015
   139 O7     4pz       -0.0001    0.0001    0.0000    0.0000    0.0000   -0.0000    0.0000   -0.0000   -0.0000    0.0000
   140 O7     3d2-       0.0001   -0.0000    0.0000   -0.0000   -0.0002    0.0000   -0.0000    0.0000    0.0000    0.0174
   141 O7     3d1-      -0.0000    0.0000   -0.0000    0.0000    0.0000    0.0000   -0.0000    0.0000    0.0000   -0.0010
   142 O7     3d0       -0.0000    0.0000   -0.0000    0.0000   -0.0001   -0.0000    0.0000    0.0000    0.0000    0.0107
   143 O7     3d1+      -0.0000    0.0000   -0.0000    0.0000    0.0000   -0.0000   -0.0000    0.0000    0.0000    0.0004
   144 O7     3d2+       0.0000   -0.0000   -0.0001    0.0000   -0.0001    0.0000    0.0000    0.0000    0.0000    0.0088
   145 O8     1s        -0.0000    0.9997    0.0001    0.0000    0.0000    0.0000   -0.0003    0.0000   -0.0000    0.0018
   146 O8     2s        -0.0000   -0.0016    0.0003    0.0002    0.0001    0.0003    0.0005    0.0000   -0.0003   -0.0228
   147 O8     3s        -0.0000   -0.0015    0.0001    0.0001    0.0000    0.0002    0.0000    0.0000   -0.0002    0.0034
   148 O8     4s        -0.0000    0.0000    0.0000   -0.0000    0.0000    0.0000    0.0000   -0.0000   -0.0000    0.0007
   149 O8     2px       -0.0001    0.0001    0.0000   -0.0000    0.0000    0.0001    0.0007   -0.0000   -0.0000   -0.0008
   150 O8     3px       -0.0001   -0.0002   -0.0000   -0.0001    0.0001   -0.0001    0.0001   -0.0000   -0.0000    0.0000
   151 O8     4px       -0.0000    0.0005   -0.0000   -0.0000   -0.0000   -0.0001    0.0001    0.0000   -0.0000   -0.0007
   152 O8     2py       -0.0000   -0.0003   -0.0001   -0.0000   -0.0001   -0.0002   -0.0006    0.0000    0.0001    0.0039
   153 O8     3py       -0.0001    0.0004   -0.0001    0.0001   -0.0001   -0.0001   -0.0002    0.0001    0.0000   -0.0043
   154 O8     4py       -0.0000   -0.0013    0.0000    0.0001   -0.0000    0.0000   -0.0002    0.0000   -0.0000   -0.0001
   155 O8     2pz       -0.0000   -0.0001   -0.0001    0.0003   -0.0001   -0.0002   -0.0002    0.0000    0.0001   -0.0005
   156 O8     3pz       -0.0001   -0.0000   -0.0001    0.0003   -0.0002   -0.0002    0.0000    0.0000    0.0000   -0.0022
   157 O8     4pz       -0.0000   -0.0003   -0.0000    0.0000   -0.0000   -0.0000    0.0000    0.0000   -0.0000   -0.0004
   158 O8     3d2-       0.0000    0.0000   -0.0000   -0.0000   -0.0000   -0.0001   -0.0002    0.0000   -0.0000    0.0003
   159 O8     3d1-       0.0000   -0.0000    0.0000   -0.0001    0.0000    0.0000    0.0001   -0.0000   -0.0000   -0.0000
   160 O8     3d0        0.0000    0.0001   -0.0000    0.0000   -0.0000   -0.0000   -0.0002    0.0000    0.0000    0.0004
   161 O8     3d1+       0.0000   -0.0000    0.0000    0.0000    0.0000   -0.0000   -0.0000    0.0000    0.0000    0.0001
   162 O8     3d2+      -0.0000    0.0000   -0.0000   -0.0000   -0.0000   -0.0000   -0.0001    0.0000   -0.0000    0.0004
   163 H9     1s         0.0002    0.0001    0.0002   -0.0003    0.0002   -0.0001   -0.0000   -0.0004   -0.0000   -0.0124
   164 H9     2s         0.0001    0.0000    0.0001   -0.0002    0.0001   -0.0001   -0.0000    0.0002   -0.0000   -0.0015
   165 H9     2px       -0.0000   -0.0000    0.0000   -0.0000    0.0001   -0.0000    0.0000    0.0000   -0.0000   -0.0008
   166 H9     2py       -0.0001    0.0000   -0.0000    0.0000    0.0000   -0.0000    0.0000   -0.0000    0.0000   -0.0010
   167 H9     2pz        0.0000   -0.0000   -0.0000   -0.0000    0.0000   -0.0000    0.0000    0.0001   -0.0000   -0.0004
   168 H10    1s         0.0003    0.0001    0.0000   -0.0001   -0.0001   -0.0002   -0.0001   -0.0003   -0.0000   -0.0168
   169 H10    2s         0.0002    0.0000   -0.0000   -0.0000   -0.0000   -0.0001   -0.0001    0.0003   -0.0000   -0.0053
   170 H10    2px       -0.0000   -0.0000    0.0000   -0.0000    0.0000   -0.0000   -0.0000    0.0000   -0.0000   -0.0010
   171 H10    2py       -0.0000    0.0000   -0.0000   -0.0000    0.0001    0.0000   -0.0000   -0.0000   -0.0000   -0.0011
   172 H10    2pz       -0.0000    0.0000    0.0000    0.0000   -0.0000    0.0000    0.0000   -0.0001    0.0000    0.0009
   173 H11    1s        -0.0005   -0.0001    0.0004   -0.0002    0.0003   -0.0000   -0.0002   -0.0003   -0.0001   -0.0209
   174 H11    2s        -0.0003   -0.0001    0.0003   -0.0002    0.0002   -0.0000   -0.0001    0.0003   -0.0001   -0.0059
   175 H11    2px       -0.0000    0.0000   -0.0001    0.0000   -0.0000    0.0000    0.0000   -0.0001    0.0000    0.0000
   176 H11    2py       -0.0000   -0.0000    0.0000   -0.0000    0.0001    0.0000   -0.0000    0.0000   -0.0000   -0.0021
   177 H11    2pz       -0.0000   -0.0000    0.0000    0.0000    0.0000   -0.0000   -0.0000    0.0000    0.0000   -0.0005
   178 H12    1s        -0.0010    0.0002   -0.0005    0.0002    0.0006   -0.0004    0.0005    0.0003   -0.0002   -0.0327
   179 H12    2s        -0.0006    0.0001   -0.0004    0.0002    0.0003   -0.0002    0.0003    0.0002   -0.0001    0.0067
   180 H12    2px        0.0000    0.0000    0.0002    0.0000   -0.0001    0.0001   -0.0000   -0.0000    0.0000    0.0035
   181 H12    2py       -0.0000   -0.0000   -0.0005    0.0000    0.0000   -0.0000    0.0000    0.0000   -0.0000   -0.0050
   182 H12    2pz        0.0000    0.0000    0.0000   -0.0000    0.0000    0.0000    0.0000   -0.0000   -0.0000    0.0002
   183 H13    1s        -0.0005    0.0003   -0.0004   -0.0001   -0.0005    0.0011   -0.0004   -0.0002    0.0000   -0.0093
   184 H13    2s        -0.0003    0.0002   -0.0002   -0.0000   -0.0003    0.0002   -0.0003   -0.0001    0.0000    0.0004
   185 H13    2px        0.0001    0.0000    0.0001    0.0000    0.0000   -0.0000   -0.0000    0.0000    0.0000    0.0009
   186 H13    2py        0.0000   -0.0000    0.0000    0.0000    0.0001   -0.0001    0.0000    0.0000   -0.0000    0.0010
   187 H13    2pz        0.0001    0.0000   -0.0000   -0.0000    0.0001   -0.0001   -0.0000    0.0000    0.0000    0.0011
   188 H14    1s         0.0001    0.0000   -0.0005    0.0005   -0.0006    0.0005   -0.0002    0.0003   -0.0002   -0.0147
   189 H14    2s         0.0001    0.0000   -0.0003    0.0003   -0.0004   -0.0001    0.0000    0.0002   -0.0001   -0.0042
   190 H14    2px       -0.0000   -0.0000   -0.0000   -0.0001    0.0000    0.0000   -0.0000   -0.0000    0.0000    0.0011
   191 H14    2py        0.0000    0.0001    0.0000    0.0000   -0.0000   -0.0000    0.0000    0.0000    0.0000    0.0002
   192 H14    2pz       -0.0000    0.0000    0.0000    0.0001   -0.0000   -0.0000   -0.0001   -0.0000   -0.0000   -0.0000
   193 H15    1s         0.0002   -0.0012    0.0002   -0.0009   -0.0000   -0.0001    0.0003   -0.0001   -0.0002   -0.0028
   194 H15    2s         0.0002   -0.0007    0.0001   -0.0006   -0.0000   -0.0000    0.0001   -0.0000   -0.0001    0.0001
   195 H15    2px       -0.0000   -0.0000    0.0000    0.0001    0.0000   -0.0000   -0.0000    0.0000    0.0000    0.0002
   196 H15    2py        0.0000   -0.0001    0.0000   -0.0005   -0.0000   -0.0000    0.0001    0.0000   -0.0000   -0.0008
   197 H15    2pz        0.0000   -0.0000   -0.0000   -0.0000   -0.0000    0.0000    0.0001   -0.0000   -0.0001    0.0001
   198 H16    1s         0.0001    0.0006    0.0000   -0.0005   -0.0000   -0.0001   -0.0003    0.0000    0.0005   -0.0018
   199 H16    2s         0.0001    0.0004    0.0000   -0.0002   -0.0000   -0.0001   -0.0003    0.0000   -0.0002   -0.0011
   200 H16    2px        0.0000    0.0000    0.0000   -0.0000   -0.0000    0.0000   -0.0000    0.0000   -0.0000    0.0001
   201 H16    2py        0.0000    0.0000   -0.0000    0.0000   -0.0000    0.0000   -0.0000    0.0000   -0.0000   -0.0003
   202 H16    2pz        0.0000    0.0001   -0.0000   -0.0001   -0.0000   -0.0000   -0.0000   -0.0000    0.0000   -0.0001
   203 H17    1s        -0.0000   -0.0001   -0.0001   -0.0002   -0.0001   -0.0001    0.0001    0.0001    0.0010   -0.0063
   204 H17    2s        -0.0000    0.0000   -0.0000   -0.0000   -0.0001   -0.0000    0.0001    0.0001    0.0001   -0.0036
   205 H17    2px        0.0000   -0.0000    0.0000    0.0000    0.0000    0.0000    0.0000   -0.0000    0.0000    0.0001
   206 H17    2py        0.0000   -0.0000    0.0000   -0.0000    0.0000    0.0000   -0.0000   -0.0000   -0.0001    0.0007
   207 H17    2pz       -0.0000   -0.0000   -0.0000    0.0000    0.0000    0.0000    0.0000   -0.0000   -0.0000    0.0001
   208 H18    1s         0.0000    0.0000    0.0001   -0.0004   -0.0000    0.0002   -0.0003    0.0000    0.0006   -0.0002
   209 H18    2s         0.0000   -0.0000    0.0001   -0.0002   -0.0001    0.0001   -0.0002    0.0000   -0.0001   -0.0006
   210 H18    2px       -0.0000   -0.0000   -0.0000    0.0000   -0.0000   -0.0000    0.0001    0.0000    0.0000   -0.0002
   211 H18    2py       -0.0000   -0.0000    0.0000    0.0000    0.0000    0.0000    0.0000   -0.0000   -0.0000    0.0001
   212 H18    2pz        0.0000    0.0000    0.0000   -0.0000   -0.0000    0.0000   -0.0000   -0.0000    0.0000   -0.0001
 
 
      Orbital                11        12        13        14        15        16        17        18        19        20
      Energy            -1.3549   -1.2564   -1.2059   -1.0281   -0.9689   -0.9128   -0.8207   -0.7659   -0.7072   -0.6967
      Occ. No.           2.0000    2.0000    2.0000    2.0000    2.0000    2.0000    2.0000    2.0000    2.0000    2.0000
 
     1 C1     1s         0.0041   -0.0062    0.0030   -0.0146   -0.0014    0.0074    0.0138   -0.0021    0.0065    0.0047
     2 C1     2s         0.0023    0.1357   -0.0181    0.2740   -0.0240   -0.0700   -0.3829    0.0578   -0.2278   -0.1639
     3 C1     3s         0.0166    0.0095    0.0111   -0.0130   -0.0066    0.0174    0.0018   -0.0055    0.0064    0.0159
     4 C1     4s         0.0052    0.0026    0.0039   -0.0040   -0.0031    0.0057    0.0021   -0.0018    0.0039    0.0037
     5 C1     2px        0.0268    0.1412   -0.0021   -0.0166    0.1121   -0.0831   -0.1414    0.0001    0.1440    0.2423
     6 C1     3px        0.0164   -0.0461    0.0378   -0.0398   -0.0267    0.0276    0.0322   -0.0059   -0.0635   -0.0579
     7 C1     4px        0.0060    0.0238    0.0027   -0.0097    0.0128   -0.0083   -0.0105   -0.0006    0.0023    0.0150
     8 C1     2py        0.0097   -0.0430    0.0258   -0.1604    0.0394    0.0141   -0.0297    0.0302    0.1121   -0.1134
     9 C1     3py        0.0301    0.0535    0.0163    0.0186   -0.0573    0.0366    0.0087   -0.0178   -0.0327    0.0518
    10 C1     4py        0.0026   -0.0077    0.0062   -0.0245    0.0035    0.0044   -0.0042    0.0014   -0.0023   -0.0087
    11 C1     2pz       -0.0025   -0.0141   -0.0063    0.0102   -0.0212    0.0048    0.0187    0.0037   -0.0205   -0.0321
    12 C1     3pz       -0.0026    0.0018   -0.0133    0.0025   -0.0032   -0.0124   -0.0069    0.0064    0.0094    0.0064
    13 C1     4pz       -0.0012   -0.0031   -0.0030    0.0015   -0.0034   -0.0003    0.0010    0.0019    0.0006   -0.0023
    14 C1     3d2-       0.0024    0.0109   -0.0017    0.0085   -0.0116    0.0067   -0.0100    0.0067    0.0159    0.0035
    15 C1     3d1-      -0.0002   -0.0009   -0.0001   -0.0020    0.0022   -0.0015    0.0017   -0.0008   -0.0009    0.0008
    16 C1     3d0        0.0008   -0.0057    0.0008   -0.0105   -0.0009    0.0041    0.0129   -0.0017    0.0048    0.0042
    17 C1     3d1+      -0.0004   -0.0047    0.0007   -0.0032   -0.0010    0.0022    0.0060   -0.0000   -0.0010   -0.0034
    18 C1     3d2+       0.0029    0.0289   -0.0048    0.0016    0.0146   -0.0101   -0.0131    0.0008    0.0182    0.0189
    19 C3     1s        -0.0136   -0.0296   -0.0012    0.0320    0.0265   -0.0199    0.0027   -0.0057    0.0048    0.0034
    20 C3     2s         0.0192    0.1639   -0.0026   -0.2845   -0.3026    0.3036   -0.0901    0.0783   -0.0597    0.0099
    21 C3     3s        -0.0391   -0.0554   -0.0077    0.0555    0.0372   -0.0154    0.0053   -0.0092    0.0145    0.0053
    22 C3     4s        -0.0064   -0.0127   -0.0004    0.0159    0.0100   -0.0055    0.0028   -0.0030    0.0045   -0.0005
    23 C3     2px       -0.0042   -0.0498    0.0221   -0.0153   -0.0399    0.0116    0.0453   -0.0228   -0.2328   -0.0409
    24 C3     3px        0.0130    0.0216    0.0098   -0.0459   -0.0150    0.0043   -0.0078   -0.0001    0.0292   -0.0072
    25 C3     4px        0.0022    0.0024    0.0015   -0.0144   -0.0089    0.0101    0.0017    0.0025   -0.0112    0.0015
    26 C3     2py        0.0298   -0.0963    0.0173    0.0175   -0.0237   -0.0021   -0.1738   -0.0534   -0.1466    0.2387
    27 C3     3py        0.0112   -0.0058    0.0116   -0.0030    0.0503    0.0176   -0.0123    0.0051    0.0431   -0.0274
    28 C3     4py        0.0033   -0.0089    0.0071   -0.0017   -0.0014    0.0049   -0.0148   -0.0027    0.0000    0.0052
    29 C3     2pz        0.0029    0.0143   -0.0302    0.0212    0.0446    0.0609    0.0146    0.1064    0.0653   -0.0792
    30 C3     3pz        0.0182    0.0260   -0.0018   -0.0038   -0.0215    0.0229   -0.0104   -0.0142   -0.0040    0.0167
    31 C3     4pz       -0.0066    0.0101   -0.0013   -0.0076   -0.0085    0.0161   -0.0037    0.0056   -0.0014    0.0008
    32 C3     3d2-      -0.0001    0.0193   -0.0005   -0.0031    0.0080   -0.0009    0.0024    0.0048    0.0334   -0.0114
    33 C3     3d1-      -0.0040   -0.0033   -0.0012    0.0041    0.0075    0.0032    0.0039    0.0100    0.0024   -0.0075
    34 C3     3d0       -0.0040   -0.0082    0.0057    0.0026   -0.0066   -0.0049   -0.0116   -0.0062   -0.0112    0.0162
    35 C3     3d1+       0.0016   -0.0006    0.0005   -0.0005   -0.0024   -0.0014   -0.0019   -0.0037   -0.0015    0.0055
    36 C3     3d2+      -0.0028   -0.0073    0.0027    0.0041   -0.0002   -0.0027   -0.0117    0.0022   -0.0017    0.0014
    37 C4     1s        -0.0412    0.0047   -0.0059    0.0077    0.0121    0.0099    0.0070    0.0154    0.0003   -0.0035
    38 C4     2s         0.3553    0.0426    0.1044   -0.0872   -0.2228   -0.0768   -0.1233   -0.3741   -0.0447    0.1096
    39 C4     3s        -0.0143    0.0189    0.0012    0.0209    0.0094    0.0191    0.0131    0.0089   -0.0027   -0.0037
    40 C4     4s         0.0002    0.0046    0.0001    0.0074    0.0042    0.0052    0.0048    0.0043    0.0007   -0.0028
    41 C4     2px       -0.0226    0.0075    0.0569   -0.0151   -0.0616   -0.0338   -0.0262   -0.0615   -0.0279    0.0173
    42 C4     3px        0.0273   -0.0060   -0.0225    0.0162    0.0047   -0.0000    0.0039    0.0036    0.0042    0.0034
    43 C4     4px       -0.0074    0.0044    0.0101   -0.0014   -0.0081   -0.0030   -0.0005   -0.0036   -0.0027   -0.0009
    44 C4     2py        0.1087   -0.0437   -0.0776    0.0468    0.1054    0.0472    0.0307    0.0294    0.0283   -0.0435
    45 C4     3py       -0.0551    0.0230    0.0663   -0.0424   -0.0221    0.0398   -0.0192   -0.0082   -0.0138    0.0116
    46 C4     4py        0.0269   -0.0065   -0.0107    0.0013    0.0124    0.0109    0.0008   -0.0015   -0.0020    0.0004
    47 C4     2pz       -0.0158    0.0022   -0.1430   -0.0422   -0.0570    0.0603   -0.0204    0.1253   -0.1111    0.1614
    48 C4     3pz       -0.0234   -0.0095   -0.0193    0.0135   -0.0286   -0.1208    0.0620   -0.0256    0.0340   -0.0652
    49 C4     4pz       -0.0041   -0.0042   -0.0320   -0.0056   -0.0092   -0.0076    0.0054    0.0090   -0.0053    0.0054
    50 C4     3d2-      -0.0271    0.0020    0.0052    0.0014    0.0047    0.0037   -0.0011    0.0022    0.0063   -0.0030
    51 C4     3d1-       0.0128   -0.0036    0.0084    0.0075    0.0038   -0.0183    0.0083    0.0029    0.0018   -0.0045
    52 C4     3d0       -0.0130    0.0053    0.0256   -0.0036   -0.0093   -0.0058   -0.0074   -0.0182    0.0063   -0.0054
    53 C4     3d1+      -0.0075   -0.0010   -0.0089   -0.0018   -0.0000    0.0116   -0.0027    0.0070   -0.0094    0.0064
    54 C4     3d2+      -0.0282    0.0014    0.0092    0.0014    0.0027    0.0000    0.0012    0.0010    0.0001   -0.0034
    55 C6     1s        -0.0089    0.0014   -0.0348   -0.0141   -0.0335   -0.0445    0.0056    0.0077    0.0050   -0.0041
    56 C6     2s         0.0311    0.0320    0.1620    0.0654    0.2216    0.3958   -0.0731   -0.0912   -0.0213    0.0345
    57 C6     3s        -0.0124    0.0150   -0.0604   -0.0278   -0.0642   -0.0703    0.0113    0.0182    0.0148   -0.0113
    58 C6     4s        -0.0003    0.0047   -0.0101   -0.0051   -0.0141   -0.0143    0.0034    0.0052    0.0034   -0.0031
    59 C6     2px       -0.0058    0.0094    0.0193    0.0087    0.0107    0.0133    0.0061    0.0567   -0.0158    0.0167
    60 C6     3px       -0.0069    0.0069   -0.0006    0.0030    0.0040    0.0137   -0.0053   -0.0054    0.0012   -0.0003
    61 C6     4px        0.0004   -0.0004    0.0010   -0.0011   -0.0005   -0.0025    0.0006    0.0045   -0.0013    0.0010
    62 C6     2py       -0.0091   -0.0114   -0.0534   -0.0125   -0.0121    0.0127   -0.0304   -0.1510    0.0113   -0.0322
    63 C6     3py        0.0012   -0.0062    0.0102    0.0013    0.0057   -0.0031   -0.0001    0.0050    0.0007   -0.0003
    64 C6     4py       -0.0014   -0.0002   -0.0024    0.0021    0.0060    0.0097   -0.0025   -0.0107    0.0008   -0.0017
    65 C6     2pz        0.0253    0.0110    0.0901    0.0151    0.0052   -0.0369    0.0279    0.0148    0.0884   -0.1188
    66 C6     3pz       -0.0019    0.0061   -0.0197   -0.0062   -0.0250   -0.0110    0.0016    0.0004   -0.0120    0.0146
    67 C6     4pz        0.0028    0.0019   -0.0013   -0.0019   -0.0121   -0.0187    0.0046    0.0035    0.0040   -0.0058
    68 C6     3d2-      -0.0007   -0.0002   -0.0034   -0.0013   -0.0023   -0.0016   -0.0009   -0.0032   -0.0016    0.0025
    69 C6     3d1-      -0.0035   -0.0019   -0.0187   -0.0037   -0.0044    0.0021   -0.0050   -0.0165   -0.0033    0.0038
    70 C6     3d0        0.0035    0.0005    0.0123    0.0024    0.0027   -0.0023    0.0012   -0.0043    0.0077   -0.0098
    71 C6     3d1+       0.0017    0.0004    0.0062    0.0008    0.0013   -0.0009    0.0010    0.0052    0.0021   -0.0013
    72 C6     3d2+      -0.0015   -0.0000   -0.0056   -0.0012   -0.0023   -0.0004   -0.0015   -0.0023   -0.0032    0.0048
    73 C19    1s         0.0018   -0.0095    0.0028   -0.0585    0.0413   -0.0168   -0.0135   -0.0015   -0.0098   -0.0012
    74 C19    2s         0.0103    0.0032    0.0021    0.3107   -0.2825    0.1343    0.0827    0.0056    0.0979    0.0198
    75 C19    3s         0.0126   -0.0266    0.0132   -0.1158    0.0736   -0.0271   -0.0351   -0.0054   -0.0206    0.0023
    76 C19    4s         0.0044   -0.0034    0.0041   -0.0245    0.0165   -0.0061   -0.0097   -0.0017   -0.0063    0.0007
    77 C19    2px        0.0022    0.0247   -0.0054    0.0541    0.0047   -0.0222   -0.0500   -0.0178   -0.1123    0.0808
    78 C19    3px        0.0005   -0.0009   -0.0012    0.0013    0.0060    0.0013    0.0052   -0.0007    0.0181   -0.0045
    79 C19    4px       -0.0008    0.0007   -0.0007   -0.0086    0.0134   -0.0075   -0.0032   -0.0020   -0.0075    0.0010
    80 C19    2py        0.0064    0.0062    0.0071    0.0438   -0.0071   -0.0139   -0.0662   -0.0008   -0.2291   -0.1302
    81 C19    3py        0.0081   -0.0043    0.0107   -0.0290    0.0173   -0.0016    0.0105   -0.0044    0.0229    0.0193
    82 C19    4py       -0.0001    0.0001    0.0007   -0.0128    0.0143   -0.0076   -0.0126    0.0015   -0.0079   -0.0045
    83 C19    2pz        0.0013   -0.0063    0.0032   -0.0136    0.0050    0.0039    0.0125    0.0010    0.0277   -0.0100
    84 C19    3pz        0.0017   -0.0025    0.0027   -0.0027    0.0044    0.0003    0.0022   -0.0040   -0.0059   -0.0006
    85 C19    4pz        0.0003   -0.0001    0.0000    0.0025   -0.0020    0.0017    0.0013   -0.0008    0.0014   -0.0004
    86 C19    3d2-       0.0004    0.0058   -0.0010    0.0114   -0.0020   -0.0023   -0.0086    0.0002   -0.0172   -0.0070
    87 C19    3d1-      -0.0001   -0.0006    0.0001   -0.0022    0.0007    0.0003    0.0014   -0.0001    0.0042    0.0024
    88 C19    3d0        0.0000   -0.0008    0.0003   -0.0086    0.0033    0.0005    0.0035    0.0013    0.0115   -0.0031
    89 C19    3d1+      -0.0002   -0.0007    0.0002   -0.0017    0.0000    0.0006    0.0012    0.0005    0.0015   -0.0037
    90 C19    3d2+       0.0005    0.0029   -0.0004   -0.0061    0.0041   -0.0010    0.0024   -0.0001    0.0127    0.0072
    91 N2     1s        -0.0019   -0.0395    0.0044   -0.0033   -0.0047    0.0017   -0.0058    0.0010    0.0051   -0.0001
    92 N2     2s         0.0404    0.5957   -0.0955   -0.0336    0.2088   -0.0838    0.1133   -0.0258    0.1730    0.0044
    93 N2     3s        -0.0014   -0.0706    0.0069   -0.0096   -0.0005    0.0007   -0.0144   -0.0006    0.0194    0.0017
    94 N2     4s        -0.0009   -0.0237    0.0028   -0.0005   -0.0028    0.0013   -0.0043   -0.0007    0.0010    0.0001
    95 N2     2px        0.0143   -0.0246    0.0117   -0.1434   -0.0488    0.1290    0.3631   -0.0295   -0.0394   -0.2491
    96 N2     3px        0.0107   -0.0106    0.0008    0.0323    0.0605   -0.0434   -0.1055   -0.0005   -0.0012    0.0467
    97 N2     4px        0.0014    0.0006    0.0006   -0.0050    0.0093   -0.0031   -0.0002   -0.0029   -0.0035    0.0055
    98 N2     2py        0.0048   -0.0163    0.0190   -0.1165   -0.0670    0.0887   -0.2105    0.1632    0.3886   -0.1336
    99 N2     3py       -0.0069   -0.0542    0.0143    0.0299    0.0557   -0.0500    0.0369   -0.0373   -0.0753    0.0110
   100 N2     4py       -0.0010   -0.0164    0.0013   -0.0007    0.0038   -0.0051   -0.0096   -0.0004   -0.0025    0.0024
   101 N2     2pz       -0.0057    0.0137   -0.0073    0.0272    0.0253   -0.0095   -0.0200    0.0106    0.0090   -0.0087
   102 N2     3pz       -0.0064    0.0007   -0.0004    0.0039   -0.0004    0.0054    0.0076   -0.0071    0.0052   -0.0029
   103 N2     4pz       -0.0005    0.0019   -0.0004    0.0029    0.0012    0.0016    0.0006   -0.0015    0.0008   -0.0000
   104 N2     3d2-       0.0010    0.0068   -0.0001   -0.0034   -0.0095    0.0091   -0.0030    0.0070    0.0118   -0.0050
   105 N2     3d1-      -0.0008   -0.0015   -0.0005    0.0000    0.0008    0.0004   -0.0016    0.0025    0.0019   -0.0017
   106 N2     3d0       -0.0010   -0.0157    0.0027    0.0019   -0.0035    0.0010   -0.0005    0.0002   -0.0014   -0.0005
   107 N2     3d1+      -0.0010   -0.0041    0.0004   -0.0014   -0.0008    0.0022    0.0045    0.0003   -0.0007   -0.0029
   108 N2     3d2+       0.0000    0.0057   -0.0006    0.0088    0.0056   -0.0076   -0.0210    0.0036    0.0017    0.0065
   109 N5     1s        -0.0194   -0.0054   -0.0414   -0.0033    0.0005    0.0033   -0.0012   -0.0040    0.0023   -0.0035
   110 N5     2s         0.1372    0.0403    0.5784    0.0330   -0.0149   -0.2182    0.0799    0.1462    0.0677   -0.0829
   111 N5     3s        -0.0479   -0.0097   -0.0763   -0.0117   -0.0047   -0.0110    0.0028   -0.0021    0.0104   -0.0154
   112 N5     4s        -0.0114   -0.0021   -0.0256   -0.0040   -0.0022   -0.0007   -0.0002   -0.0018    0.0012   -0.0019
   113 N5     2px       -0.0119   -0.0072   -0.0163   -0.0077   -0.0037   -0.0035    0.0046    0.1294   -0.0490    0.0790
   114 N5     3px        0.0064   -0.0040    0.0220   -0.0050    0.0100    0.0086   -0.0064   -0.0227    0.0125   -0.0107
   115 N5     4px       -0.0001   -0.0004    0.0044   -0.0009    0.0022    0.0010    0.0016    0.0032   -0.0006   -0.0003
   116 N5     2py        0.0397   -0.0147   -0.0047    0.0251    0.0455    0.0545   -0.0346   -0.3077    0.1224   -0.1687
   117 N5     3py        0.0026   -0.0160   -0.0326    0.0010   -0.0174   -0.0640    0.0322    0.0637   -0.0321    0.0311
   118 N5     4py       -0.0041   -0.0046   -0.0114   -0.0009    0.0004   -0.0043   -0.0015   -0.0081    0.0010   -0.0011
   119 N5     2pz        0.0145    0.0320    0.0102   -0.0544   -0.1580   -0.1643   -0.0300   -0.2562    0.0310   -0.0388
   120 N5     3pz       -0.0214    0.0390    0.0038    0.0153    0.0325    0.0851    0.0048    0.0709    0.0083    0.0010
   121 N5     4pz        0.0059    0.0057   -0.0032   -0.0006   -0.0048    0.0045   -0.0013    0.0022    0.0015    0.0003
   122 N5     3d2-      -0.0026    0.0000   -0.0060   -0.0016   -0.0015    0.0019   -0.0013   -0.0012   -0.0016    0.0021
   123 N5     3d1-       0.0050   -0.0011   -0.0021   -0.0016   -0.0068   -0.0117   -0.0000   -0.0078    0.0005   -0.0002
   124 N5     3d0        0.0030    0.0026    0.0156   -0.0004   -0.0023    0.0007   -0.0034   -0.0141    0.0025   -0.0032
   125 N5     3d1+      -0.0024   -0.0009   -0.0036    0.0014    0.0052    0.0082    0.0003    0.0088   -0.0021    0.0021
   126 N5     3d2+      -0.0006    0.0000   -0.0064   -0.0010   -0.0012    0.0024   -0.0020   -0.0118    0.0024   -0.0031
   127 O7     1s         0.0011    0.0030   -0.0008   -0.0041    0.0023    0.0006    0.0123   -0.0040    0.0095    0.0227
   128 O7     2s        -0.0591   -0.3019    0.0391   -0.2055    0.0525    0.0325    0.3316   -0.0971    0.1538    0.3830
   129 O7     3s         0.0006   -0.0066   -0.0010   -0.0200    0.0098    0.0021    0.0384   -0.0119    0.0261    0.0638
   130 O7     4s         0.0010    0.0009   -0.0006   -0.0037    0.0023    0.0001    0.0070   -0.0024    0.0051    0.0131
   131 O7     2px       -0.0035    0.0033   -0.0043   -0.0063    0.0263   -0.0241   -0.1495    0.0514   -0.0306   -0.2012
   132 O7     3px        0.0042    0.0044   -0.0033   -0.0081   -0.0020    0.0067    0.0184   -0.0074   -0.0040    0.0135
   133 O7     4px        0.0012    0.0009   -0.0004   -0.0014   -0.0015    0.0019    0.0011   -0.0007   -0.0008    0.0002
   134 O7     2py        0.0120    0.0451   -0.0064   -0.0266    0.0180    0.0038    0.1433   -0.0611    0.1758    0.4132
   135 O7     3py       -0.0006    0.0010   -0.0017    0.0137   -0.0044   -0.0030   -0.0273    0.0083   -0.0261   -0.0518
   136 O7     4py        0.0005   -0.0012   -0.0001   -0.0003   -0.0008    0.0002   -0.0028    0.0010   -0.0033   -0.0070
   137 O7     2pz       -0.0026   -0.0009    0.0019    0.0033   -0.0006    0.0037    0.0142   -0.0021   -0.0027    0.0128
   138 O7     3pz       -0.0036    0.0003    0.0029    0.0004    0.0042    0.0019    0.0002    0.0021    0.0014    0.0016
   139 O7     4pz       -0.0012    0.0004    0.0008    0.0002    0.0014    0.0007    0.0002    0.0007    0.0002    0.0005
   140 O7     3d2-       0.0013    0.0032   -0.0003    0.0015   -0.0027    0.0022    0.0109   -0.0037    0.0034    0.0161
   141 O7     3d1-      -0.0001   -0.0000    0.0000   -0.0003    0.0005   -0.0004   -0.0010    0.0002    0.0002   -0.0004
   142 O7     3d0        0.0006    0.0042   -0.0007    0.0015    0.0003   -0.0004    0.0042   -0.0021    0.0038    0.0120
   143 O7     3d1+      -0.0003    0.0002   -0.0001    0.0005   -0.0003    0.0001    0.0005    0.0001   -0.0005   -0.0000
   144 O7     3d2+       0.0009    0.0054   -0.0008   -0.0023    0.0041   -0.0022    0.0001   -0.0010    0.0102    0.0154
   145 O8     1s        -0.0242    0.0020    0.0044    0.0005    0.0025    0.0004    0.0030    0.0110    0.0008   -0.0040
   146 O8     2s         0.6689   -0.1266   -0.3115    0.0905    0.1596    0.0227    0.1188    0.3202    0.0081   -0.0852
   147 O8     3s        -0.0295   -0.0003   -0.0068    0.0041    0.0125    0.0008    0.0121    0.0390    0.0027   -0.0131
   148 O8     4s        -0.0121    0.0014    0.0005   -0.0000    0.0014   -0.0003    0.0024    0.0077    0.0006   -0.0028
   149 O8     2px        0.0665   -0.0143   -0.0122   -0.0016   -0.0148   -0.0110   -0.0316   -0.0793   -0.0036    0.0330
   150 O8     3px       -0.0167    0.0016    0.0005    0.0014    0.0052    0.0020    0.0044    0.0126    0.0010   -0.0050
   151 O8     4px       -0.0005    0.0008    0.0003    0.0006    0.0003    0.0005    0.0007    0.0016    0.0001   -0.0012
   152 O8     2py       -0.1256    0.0155    0.0406    0.0091    0.0159   -0.0006    0.0414    0.1446    0.0148   -0.0701
[...]
AIVX     1  Mu1.0001  In1.023 Se1.039               0.22483609     -0.00039193      0.00093074     -0.00000036
AIVX     1  Mu1.0001  In1.024 Se1.039               0.21102009     -0.00001336      0.00049555     -0.00000001
AIVX     1  Mu1.0001  In1.025 Se1.039               0.20625125     -0.00006848      0.00008182     -0.00000001
AIVX     1  Mu1.0001  In1.026 Se1.039               0.20194334     -0.00071027      0.00139212     -0.00000099
AIVX     1  Mu1.0001  In1.027 Se1.039               0.18691988     -0.00036213      0.00082041     -0.00000030
AIVX     1  Mu1.0001  In1.028 Se1.039               0.19545193     -0.00095111      0.00172299     -0.00000164
AIVX     1  Mu1.0001  In1.029 Se1.039               0.14690495      0.00010973     -0.00024401     -0.00000003
AIVX     1  Mu1.0001  In1.021 Se1.040               0.29822235     -0.00278829      0.00344946     -0.00000962
AIVX     1  Mu1.0001  In1.022 Se1.040               0.25874428     -0.00058321      0.00100613     -0.00000059
AIVX     1  Mu1.0001  In1.023 Se1.040               0.22810795     -0.00058989      0.00140115     -0.00000083
AIVX     1  Mu1.0001  In1.024 Se1.040               0.21429195      0.00019461      0.00028795      0.00000006
AIVX     1  Mu1.0001  In1.025 Se1.040               0.20952311      0.00054063     -0.00097603     -0.00000053
AIVX     1  Mu1.0001  In1.026 Se1.040               0.20521520     -0.00075917      0.00101744     -0.00000077
AIVX     1  Mu1.0001  In1.027 Se1.040               0.19019174      0.00092150     -0.00090471     -0.00000083
AIVX     1  Mu1.0001  In1.028 Se1.040               0.19872379      0.00041298     -0.00086396     -0.00000036
AIVX     1  Mu1.0001  In1.029 Se1.040               0.15017681     -0.00008778      0.00001825     -0.00000000
AIVX     1  Mu1.0001  In1.022 Se1.041               0.27550963     -0.00055590      0.00086656     -0.00000048
AIVX     1  Mu1.0001  In1.023 Se1.041               0.24487330     -0.00318848      0.00480811     -0.00001533
AIVX     1  Mu1.0001  In1.024 Se1.041               0.23105730     -0.00180210      0.00298214     -0.00000537
AIVX     1  Mu1.0001  In1.025 Se1.041               0.22628846     -0.00054908      0.00079890     -0.00000044
AIVX     1  Mu1.0001  In1.026 Se1.041               0.22198055      0.00126803     -0.00213921     -0.00000271
AIVX     1  Mu1.0001  In1.027 Se1.041               0.20695709     -0.00128758      0.00219120     -0.00000282
AIVX     1  Mu1.0001  In1.028 Se1.041               0.21548914      0.00004138      0.00010555      0.00000000
AIVX     1  Mu1.0001  In1.029 Se1.041               0.16694216     -0.00024373      0.00045484     -0.00000011
AIVX     1  Mu1.0001  In1.022 Se1.042               0.28743307      0.00160872     -0.00228694     -0.00000368
AIVX     1  Mu1.0001  In1.023 Se1.042               0.25679674      0.00277316     -0.00436894     -0.00001212
AIVX     1  Mu1.0001  In1.024 Se1.042               0.24298074     -0.00132776      0.00172338     -0.00000229
AIVX     1  Mu1.0001  In1.025 Se1.042               0.23821190     -0.00089553      0.00170927     -0.00000153
AIVX     1  Mu1.0001  In1.026 Se1.042               0.23390399      0.00100497     -0.00152569     -0.00000153
AIVX     1  Mu1.0001  In1.027 Se1.042               0.21888053     -0.00126183      0.00171823     -0.00000217
AIVX     1  Mu1.0001  In1.028 Se1.042               0.22741258     -0.00063836      0.00093519     -0.00000060
AIVX     1  Mu1.0001  In1.029 Se1.042               0.17886560      0.00001593      0.00008940      0.00000000
AIVX     1  Mu1.0001  In1.022 Se1.043               0.29702130      0.00288536     -0.00453882     -0.00001310
AIVX     1  Mu1.0001  In1.023 Se1.043               0.26638496     -0.00483779      0.00733213     -0.00003547
AIVX     1  Mu1.0001  In1.024 Se1.043               0.25256896     -0.00311223      0.00529510     -0.00001648
AIVX     1  Mu1.0001  In1.025 Se1.043               0.24780013     -0.00040481      0.00051859     -0.00000021
AIVX     1  Mu1.0001  In1.026 Se1.043               0.24349222      0.00100428     -0.00151395     -0.00000152
AIVX     1  Mu1.0001  In1.027 Se1.043               0.22846875      0.00048243     -0.00080857     -0.00000039
AIVX     1  Mu1.0001  In1.028 Se1.043               0.23700080      0.00084357     -0.00125657     -0.00000106
AIVX     1  Mu1.0001  In1.029 Se1.043               0.18845382      0.00040350     -0.00076939     -0.00000031
AIVX     1  Mu1.0001  In1.023 Se1.044               0.27470022     -0.00115822      0.00209286     -0.00000242
AIVX     1  Mu1.0001  In1.024 Se1.044               0.26088422      0.00114413     -0.00176145     -0.00000202
AIVX     1  Mu1.0001  In1.025 Se1.044               0.25611539     -0.00016452     -0.00004195      0.00000001
AIVX     1  Mu1.0001  In1.026 Se1.044               0.25180748     -0.00016327      0.00035079     -0.00000006
AIVX     1  Mu1.0001  In1.027 Se1.044               0.23678401     -0.00006567      0.00017384     -0.00000001
AIVX     1  Mu1.0001  In1.028 Se1.044               0.24531606     -0.00057259      0.00082532     -0.00000047
AIVX     1  Mu1.0001  In1.029 Se1.044               0.19676908      0.00065558     -0.00117325     -0.00000077
AIVX     1  Mu1.0001  In1.023 Se1.045               0.28843643     -0.00270274      0.00360988     -0.00000976
AIVX     1  Mu1.0001  In1.024 Se1.045               0.27462043      0.00020022     -0.00065080     -0.00000013
AIVX     1  Mu1.0001  In1.025 Se1.045               0.26985160      0.00047695     -0.00048127     -0.00000023
AIVX     1  Mu1.0001  In1.026 Se1.045               0.26554369      0.00086955     -0.00120128     -0.00000104
AIVX     1  Mu1.0001  In1.027 Se1.045               0.25052022      0.00052867     -0.00110084     -0.00000058
AIVX     1  Mu1.0001  In1.028 Se1.045               0.25905227      0.00117320     -0.00172882     -0.00000203
AIVX     1  Mu1.0001  In1.029 Se1.045               0.21050529     -0.00028640      0.00061687     -0.00000018
AIVX     1  Mu1.0001  In1.023 Se1.046               0.29748172      0.00075103     -0.00166650     -0.00000125
AIVX     1  Mu1.0001  In1.024 Se1.046               0.28366572      0.00118393     -0.00240568     -0.00000285
AIVX     1  Mu1.0001  In1.025 Se1.046               0.27889688     -0.00039518      0.00113598     -0.00000045
AIVX     1  Mu1.0001  In1.026 Se1.046               0.27458897     -0.00224253      0.00384537     -0.00000862
AIVX     1  Mu1.0001  In1.027 Se1.046               0.25956551     -0.00103598      0.00120940     -0.00000125
AIVX     1  Mu1.0001  In1.028 Se1.046               0.26809756      0.00015941     -0.00016838     -0.00000003
AIVX     1  Mu1.0001  In1.029 Se1.046               0.21955058      0.00056892     -0.00088659     -0.00000050
AIVX     1  Mu1.0001  In1.024 Se1.047               0.29321983     -0.00003939      0.00003662     -0.00000000
AIVX     1  Mu1.0001  In1.025 Se1.047               0.28845099      0.00121409     -0.00213970     -0.00000260
AIVX     1  Mu1.0001  In1.026 Se1.047               0.28414308      0.00125686     -0.00194602     -0.00000245
AIVX     1  Mu1.0001  In1.027 Se1.047               0.26911962     -0.00114557      0.00166763     -0.00000191
AIVX     1  Mu1.0001  In1.028 Se1.047               0.27765167     -0.00065842      0.00107421     -0.00000071
AIVX     1  Mu1.0001  In1.029 Se1.047               0.22910469      0.00055480     -0.00094628     -0.00000052
AIVX     1  Mu1.0001  In1.027 Se1.048               0.29360669      0.00083874     -0.00150087     -0.00000126
AIVX     1  Mu1.0001  In1.029 Se1.048               0.25359176      0.00024179     -0.00039136     -0.00000009
AIVX     1  Mu1.0001  In1.029 Se1.049               0.26165683     -0.00105162      0.00189195     -0.00000199
AIVX     1  Mu1.0001  In1.029 Se1.050               0.27577635      0.00003917     -0.00005098     -0.00000000
AIVX     1  Mu1.0001  In1.029 Se1.051               0.28691435      0.00006250     -0.00005322     -0.00000000
--
 
   (Skipping property calculation,
    use PROP keyword to activate)
--
 
  Total CASPT2 energies:
::    CASPT2 Root  1     Total energy:   -455.37026159
::    CASPT2 Root  2     Total energy:   -455.16226560
::    CASPT2 Root  3     Total energy:   -455.17377008
::    CASPT2 Root  4     Total energy:   -455.12891787
::    CASPT2 Root  5     Total energy:   -455.11549237
::    CASPT2 Root  6     Total energy:   -455.09207678
::    CASPT2 Root  7     Total energy:   -455.10617149
 
++ Multi-State CASPT2 section:
********************************************************************************
  MULTI-STATE CASPT2 SECTION
--------------------------------------------------------------------------------
 
  Output diagonal energies have been shifted. Add   -455.000000000000     
 
  Effective Hamiltonian matrix (Symmetric):
 
                1               2               3               4               5
   1        -0.37026159
   2         0.00010440     -0.16226560
   3         0.00065547      0.00014959     -0.17377008
   4         0.00834219      0.00052536     -0.00022828     -0.12891787
   5        -0.01601648     -0.00223824      0.00253207     -0.00354354     -0.11549237
   6        -0.00803917      0.00051912     -0.00239490      0.00450948     -0.00125820
   7        -0.02206268     -0.00054126     -0.00215205      0.00426798     -0.02112285
 
                6               7
   6        -0.09207678
   7        -0.00934471     -0.10617149
 
       Total MS-CASPT2 energies:
::    MS-CASPT2 Root  1     Total energy:   -455.37389745
::    MS-CASPT2 Root  2     Total energy:   -455.17398984
::    MS-CASPT2 Root  3     Total energy:   -455.16241228
::    MS-CASPT2 Root  4     Total energy:   -455.13056296
::    MS-CASPT2 Root  5     Total energy:   -455.12980859
::    MS-CASPT2 Root  6     Total energy:   -455.09476076
::    MS-CASPT2 Root  7     Total energy:   -455.08352390
 
       Eigenvectors:
            0.99254914      0.00164864     -0.00724838     -0.07733391     -0.09117253
            0.00047202     -0.01921431      0.99768930     -0.04942633     -0.03736485
           -0.00281804      0.99838369      0.02035750      0.00976169     -0.01032233
           -0.03495068     -0.00336299     -0.01121868      0.49448861     -0.84562734
            0.06849210     -0.03352855      0.05627180      0.71159155      0.28640168
            0.03209973      0.03213949     -0.00189240      0.06837996      0.18925904
            0.08885341      0.02626160      0.02920866      0.48571995      0.39655314
 
           -0.02032579      0.00921113
            0.01994510     -0.00312319
           -0.04994141      0.01056618
            0.19535913     -0.02952145
           -0.48465415      0.40956080
            0.74770640      0.63116830
            0.40567872     -0.65788203
 
--
 
  THE ORIGINAL CI ARRAYS ARE NOW MIXED AS LINEAR
  COMBINATIONS, GIVEN BY THE EIGENVECTORS.
  A NEW JOBIPH FILE NAMED 'JOBMIX' IS PREPARED.
********************************************************************************
 
++ Mixed CI coefficients:
  The CI coefficients for the MIXED state nr.   1
--------------------------------------------------------------------------------
 CI COEFFICIENTS LARGER THAN  0.50D-01
  Occupation of active orbitals, and spin coupling
  of open shells. (u,d: Spin up or down).
  SGUGA info is (Midvert:IsyUp:UpperWalk/LowerWalk)
        Conf  SGUGA info        Occupation    Coefficient         Weight
           1  ( 1:1:   1/   1)   22222200       -0.970287       0.941456
           6  ( 1:1:   6/   1)   22220220        0.099996       0.009999
          15  ( 1:1:  15/   1)   22222002        0.088247       0.007787
          64  ( 2:1:   4/   3)   2u22220d        0.094341       0.008900
          73  ( 2:1:  13/   3)   2u222d02       -0.053512       0.002864
          81  ( 2:1:   1/   4)   u22222d0       -0.081265       0.006604
         175  ( 3:1:   5/   8)   20222202        0.077899       0.006068
         191  ( 3:1:   1/  10)   02222220        0.085508       0.007312
 
  The CI coefficients for the MIXED state nr.   2
--------------------------------------------------------------------------------
 CI COEFFICIENTS LARGER THAN  0.50D-01
  Occupation of active orbitals, and spin coupling
  of open shells. (u,d: Spin up or down).
  SGUGA info is (Midvert:IsyUp:UpperWalk/LowerWalk)
        Conf  SGUGA info        Occupation    Coefficient         Weight
           7  ( 1:1:   7/   1)   22222u0d        0.096919       0.009393
           8  ( 1:1:   8/   1)   2222u20d       -0.322336       0.103900
          24  ( 2:1:   4/   1)   222u220d       -0.050135       0.002514
          44  ( 2:1:   4/   2)   22u2220d       -0.885281       0.783723
          46  ( 2:1:   6/   2)   22u2d2ud       -0.054991       0.003024
          48  ( 2:1:   8/   2)   22u2u2dd       -0.100377       0.010076
          52  ( 2:1:  12/   2)   22u2022d        0.081103       0.006578
          53  ( 2:1:  13/   2)   22u22d02        0.173297       0.030032
         155  ( 3:1:   5/   6)   2ud22202       -0.139064       0.019339
         225  ( 4:1:   1/   5)   u2u222dd        0.054380       0.002957
         227  ( 4:1:   3/   5)   u2u2d22d       -0.055554       0.003086
         301  ( 5:1:   1/  17)   02u2222d       -0.088044       0.007752
 
  The CI coefficients for the MIXED state nr.   3
--------------------------------------------------------------------------------
 CI COEFFICIENTS LARGER THAN  0.50D-01
  Occupation of active orbitals, and spin coupling
  of open shells. (u,d: Spin up or down).
  SGUGA info is (Midvert:IsyUp:UpperWalk/LowerWalk)
        Conf  SGUGA info        Occupation    Coefficient         Weight
           3  ( 1:1:   3/   1)   2222u2d0        0.066583       0.004433
          21  ( 2:1:   1/   1)   222u22d0        0.956581       0.915047
          23  ( 2:1:   3/   1)   222ud220       -0.102575       0.010522
          35  ( 2:1:  15/   1)   222u20d2        0.080113       0.006418
         111  ( 3:1:   1/   2)   22ud2220        0.071676       0.005137
         131  ( 3:1:   1/   4)   u22d2220       -0.184964       0.034212
         207  ( 4:1:   1/   2)   2u2u22dd       -0.067137       0.004507
         262  ( 5:1:   2/   7)   202u22d2       -0.078955       0.006234
 
  The CI coefficients for the MIXED state nr.   4
--------------------------------------------------------------------------------
 CI COEFFICIENTS LARGER THAN  0.50D-01
  Occupation of active orbitals, and spin coupling
  of open shells. (u,d: Spin up or down).
  SGUGA info is (Midvert:IsyUp:UpperWalk/LowerWalk)
        Conf  SGUGA info        Occupation    Coefficient         Weight
           3  ( 1:1:   3/   1)   2222u2d0        0.760607       0.578522
           6  ( 1:1:   6/   1)   22220220        0.141745       0.020092
           7  ( 1:1:   7/   1)   22222u0d       -0.531183       0.282155
          12  ( 1:1:  12/   1)   2222uudd        0.059410       0.003530
          18  ( 1:1:  18/   1)   2222u0d2        0.066253       0.004389
          21  ( 2:1:   1/   1)   222u22d0       -0.059897       0.003588
          44  ( 2:1:   4/   2)   22u2220d       -0.060971       0.003717
          68  ( 2:1:   8/   3)   2u22u2dd       -0.067730       0.004587
          73  ( 2:1:  13/   3)   2u222d02       -0.133125       0.017722
          83  ( 2:1:   3/   4)   u222d220       -0.195021       0.038033
         177  ( 3:1:   7/   8)   2022u2d2       -0.058850       0.003463
         191  ( 3:1:   1/  10)   02222220       -0.091639       0.008398
         193  ( 3:1:   3/  10)   02222u2d       -0.055554       0.003086
 
  The CI coefficients for the MIXED state nr.   5
--------------------------------------------------------------------------------
 CI COEFFICIENTS LARGER THAN  0.50D-01
  Occupation of active orbitals, and spin coupling
  of open shells. (u,d: Spin up or down).
  SGUGA info is (Midvert:IsyUp:UpperWalk/LowerWalk)
        Conf  SGUGA info        Occupation    Coefficient         Weight
           3  ( 1:1:   3/   1)   2222u2d0        0.493786       0.243824
           6  ( 1:1:   6/   1)   22220220        0.093249       0.008695
           7  ( 1:1:   7/   1)   22222u0d        0.744224       0.553870
           8  ( 1:1:   8/   1)   2222u20d        0.228618       0.052266
          10  ( 1:1:  10/   1)   2222udud        0.051394       0.002641
          12  ( 1:1:  12/   1)   2222uudd       -0.097620       0.009530
          14  ( 1:1:  14/   1)   22220u2d        0.066495       0.004422
          15  ( 1:1:  15/   1)   22222002        0.064359       0.004142
          24  ( 2:1:   4/   1)   222u220d        0.130263       0.016968
          64  ( 2:1:   4/   3)   2u22220d        0.111652       0.012466
          73  ( 2:1:  13/   3)   2u222d02        0.167058       0.027908
          83  ( 2:1:   3/   4)   u222d220       -0.127329       0.016213
          87  ( 2:1:   7/   4)   u2222udd       -0.051088       0.002610
          90  ( 2:1:  10/   4)   u222du2d        0.059336       0.003521
         175  ( 3:1:   5/   8)   20222202       -0.065827       0.004333
         191  ( 3:1:   1/  10)   02222220       -0.061236       0.003750
         193  ( 3:1:   3/  10)   02222u2d        0.073535       0.005407
 
  The CI coefficients for the MIXED state nr.   6
--------------------------------------------------------------------------------
 CI COEFFICIENTS LARGER THAN  0.50D-01
  Occupation of active orbitals, and spin coupling
  of open shells. (u,d: Spin up or down).
  SGUGA info is (Midvert:IsyUp:UpperWalk/LowerWalk)
        Conf  SGUGA info        Occupation    Coefficient         Weight
           3  ( 1:1:   3/   1)   2222u2d0        0.129457       0.016759
           7  ( 1:1:   7/   1)   22222u0d        0.174862       0.030577
           8  ( 1:1:   8/   1)   2222u20d       -0.861477       0.742142
          16  ( 1:1:  16/   1)   2222ud02       -0.072280       0.005224
          44  ( 2:1:   4/   2)   22u2220d        0.323597       0.104715
          86  ( 2:1:   6/   4)   u222d2ud        0.153013       0.023413
          88  ( 2:1:   8/   4)   u222u2dd        0.199539       0.039816
         194  ( 3:1:   4/  10)   0222u22d       -0.124552       0.015513
 
  The CI coefficients for the MIXED state nr.   7
--------------------------------------------------------------------------------
 CI COEFFICIENTS LARGER THAN  0.50D-01
  Occupation of active orbitals, and spin coupling
  of open shells. (u,d: Spin up or down).
  SGUGA info is (Midvert:IsyUp:UpperWalk/LowerWalk)
        Conf  SGUGA info        Occupation    Coefficient         Weight
           3  ( 1:1:   3/   1)   2222u2d0       -0.090817       0.008248
           7  ( 1:1:   7/   1)   22222u0d       -0.078660       0.006187
           8  ( 1:1:   8/   1)   2222u20d       -0.059691       0.003563
          15  ( 1:1:  15/   1)   22222002       -0.056115       0.003149
          24  ( 2:1:   4/   1)   222u220d        0.896094       0.802985
          26  ( 2:1:   6/   1)   222ud2ud       -0.215848       0.046590
          28  ( 2:1:   8/   1)   222uu2dd       -0.287365       0.082579
          64  ( 2:1:   4/   3)   2u22220d       -0.059334       0.003521
         112  ( 3:1:   2/   2)   22ud22ud       -0.071818       0.005158
         201  ( 4:1:   1/   1)   22uu22dd        0.076703       0.005883
         215  ( 4:1:   3/   3)   u22ud22d       -0.062694       0.003931
         269  ( 5:1:   1/   9)   022u222d        0.078764       0.006204
 
--
 
--- Stop Module: caspt2 at Tue Jun 10 20:48:50 2025 /rc=_RC_ALL_IS_WELL_ ---
*** files: xmldump
    saved to directory /home/pcaah4/diamide_project
--- Module caspt2 spent 6 minutes 56 seconds ---

.##################.
.# Happy landing! #.
.##################.

    Timing: Wall=706.03 User=615.45 System=80.37
******************************************************
*** WorkDir at /srv/COMMUNAL_SCRATCH/12454 cleaned ***
******************************************************
