   This run of MOLCAS is using the pymolcas driver

                             OPE
                             OPE          NMOL  CASOP  ENMOLC A   SO
                 OPE        NMOLC        AS  OP EN  MO LC     AS  OP
                OPENM       OL CA        SO  PE NM  OL CA     SOP EN
                OP EN      MO   LC       AS  OP ENMOL  CASO   PENMOL
                OP  EN     MO   LC       AS  OP EN     MO     LC ASO
               OP   E  NMOL  C  AS       OP  EN MO     LC     AS  OP
               OP  E   NMO   LC AS        OPEN  MO     LCASOP EN   M
               O  PEN   MO  LCA  SO
            OPE   NMO   L   CAS    OP
        OPENMOL  CASOP     ENMOL   CASOPE
     OPENMOLCA   SOPENMOLCASOPEN   MOLCASOPE
    OPENMOLCAS   OP           EN   MOL    CAS
    OPENMOLCAS       OP  ENM        O     LCA
    OPENMOLCAS    OPEN  MOLCASO     P  E  NMO
    OPENMOLCAS     OP               E  N  MOL
    OPENMOLCA   SO           PENM   O  L  CAS    OPEN    MO    LCAS
    OPENMOLCA   SOP           ENM   O  L  CAS   OP  EN  MOLC  AS   O
    OPENMOLCA   SOPE           NM      O  LCA   S      OP  EN MO
    OPENMOLC                AS         O  PEN   M      OL  CA  SOPE
    OPENMO        LCASOPE  NMOL        C  ASO   P      ENMOLC     AS
    OPE     NMO      LCA  SO     P     E   NM   OL  CA SO  PE N   MO
          OPENMOLCA            SOPE   NMO        LCAS  O    P  ENMO
     OPENMOLCASOPENMOLCASOPENMOLCASOPENMOLCA
        OPENMOLCASOPENMOLCASOPENMOLCASOPE
            OPENMOLCASOPENMOLCASOPENM
               OPENMOLCASOPENMOLCA        version: v23.06
                   OPENMOLCASO
                       OPE                tag:

 OpenMolcas is free software; you can redistribute it and/or modify it
 under the terms of the GNU Lesser General Public License version 2.1.
 OpenMolcas is distributed in the hope that it will be useful, but it
 is provided "as is" and without any express or implied warranties.
 For more details see the full text of the license in the file
 LICENSE or in <http://www.gnu.org/licenses/>.

                 Copyright (C) The OpenMolcas Authors
           For the author list and the recommended citation,
                   consult the file CONTRIBUTORS.md

           *************************************************
           * pymolcas version py2.24                       *
           *   build 4567b286dd94b1984b333a4ddf893180      *
           *   (after the EMIL interpreter by V. Veryazov) *
           *************************************************

configuration info
------------------
Host name: loginchem01.nottingham.ac.uk (Linux)
C Compiler ID: Intel
C flags: -std=gnu99 -gcc-sys -qopenmp
Fortran Compiler ID: Intel
Fortran flags: -fpp -i8 -heap-arrays -qopenmp
Definitions: _MOLCAS_;_I8_;_LINUX_
Parallel: OFF (GA=OFF)


   ----------------------------------------------------------------------------------------------------
  |
  |              Project: orca_geometry_optimisation_315_115_BP86_def2-SVP_def2J_scf_cas1_ras12i11_cas8
  |       Submitted from: /home/pcaah4/diamide_project
  |         Scratch area: /srv/COMMUNAL_SCRATCH/12467
  |      Save outputs to: /home/pcaah4/diamide_project
  |               Molcas: /software/chemistry/openmolcas/openmolcas-23.06-openmp
  |
  | Scratch area is empty
  |
  |       MOLCAS_DRIVER = /software/chemistry/openmolcas/openmolcas-23.06-openmp/sbin/pymolcas
  | MOLCAS_KEEP_WORKDIR = NO
  |       MOLCAS_NPROCS = 1
  |       MOLCAS_SOURCE = /software/chemistry/openmolcas/openmolcas-23.06-openmp
  |    MOLCAS_STRUCTURE = 0
  |
   ----------------------------------------------------------------------------------------------------

++ ---------   Input file   ---------

&SEWARD
TITLE
orca_geometry_optimisation_315_115_BP86_def2-SVP_def2J_scf_cas1_ras12i11
MULTIPOLES
2
SDIPOLE
ANGMOM
0 0 0
BASIS SET
C.ANO-S...4S3P1D.
C1           -0.051579   -0.039576    0.213857 /Angstrom
C3            2.030914    1.276541    0.064945 /Angstrom
C4            1.422113    2.228519   -0.993771 /Angstrom
C6            0.190065    4.325201   -1.346357 /Angstrom
C19          -0.674458   -1.416727    0.022602 /Angstrom
END OF BASIS
BASIS SET
N.ANO-S...4S3P1D.
N2            1.324450    0.004869    0.173600 /Angstrom
N5            0.886849    3.384271   -0.488260 /Angstrom
END OF BASIS
BASIS SET
O.ANO-S...4S3P1D.
O7           -0.727078    0.970517    0.415738 /Angstrom
O8            1.492409    1.961686   -2.192515 /Angstrom
END OF BASIS
BASIS SET
H.ANO-S...2S1P.
H9           -1.198502   -1.435097   -0.954857 /Angstrom
H10          -1.441064   -1.572131    0.805909 /Angstrom
H11           0.053925   -2.250745    0.052201 /Angstrom
H12           1.812598   -0.826131   -0.163058 /Angstrom
H13           2.074978    1.774637    1.059674 /Angstrom
H14           3.071184    1.066772   -0.248407 /Angstrom
H15           0.611988    3.349769    0.495629 /Angstrom
H16           0.528510    4.146223   -2.384281 /Angstrom
H17          -0.911858    4.178599   -1.311091 /Angstrom
H18           0.421068    5.371377   -1.058434 /Angstrom
END OF BASIS
END OF INPUT

&RASSCF
TITLE
orca_geometry_optimisation_315_115_BP86_def2-SVP_def2J_scf_cas1_ras12i11
LUMORB
SPIN
1
SYMMETRY
1
NACTEL
12  0  0
INACTIVE
29
DELETED  ! delete Rydberg orbitals from an initial CAS(12,11) if done
3
FROZEN
0
RAS2
8
ITERATIONS
64 25
CIROOT
7 7
1 2 3 4 5 6 7
1 1 1 1 1 1 1
LEVSHFT
0.3
CIMX
20
FILEorb = /home/pcaah4/diamide_project/cas/ras12i11/ras_orb/orca_geometry_optimisation_315_115_BP86_def2-SVP_def2J_scf_cas1_ras12i11.RasOrb
ALTEr
0
END OF INPUT

&RASSI
NROF JOBIPH
    1 7
    1 2 3 5 4 6 7
TOFILE
TRDI
TDMN
1.0D-6
END OF INPUT

&CASPT2
TITLE
orca_geometry_optimisation_315_115_BP86_def2-SVP_def2J_scf_cas1_ras12i11
MULTISTATE
7 1 2 3 4 5 6 7
SHIFT
0.35
MAXITER
50
END OF INPUT

-- ----------------------------------

--- Start Module: seward at Tue Jun 10 21:00:52 2025 ---
 
()()()()()()()()()()()()()()()()()()()()()()()()()()()()()()()()()()()()()()()()()()()()()()()()()()

                                              &SEWARD

                                   only a single process is used
                       available to each process: 2.0 GB of memory, 1 thread
                                            pid: 3139840
()()()()()()()()()()()()()()()()()()()()()()()()()()()()()()()()()()()()()()()()()()()()()()()()()()
 
               SEWARD will generate:
                  Multipole Moment integrals up to order  2
                  Kinetic Energy integrals
                  Nuclear Attraction integrals (point charge)
                  One-Electron Hamiltonian integrals
                  Velocity integrals
                  Orbital angular momentum around ( 0.0000  0.0000  0.0000 )
                  Velocity quadrupole around ( 1.2098  2.6842 -0.8866 )
                  Two-Electron Repulsion integrals
 
 Title:
            orca_geometry_optimisation_315_115_BP86_def2-SVP_def2J_scf_cas1_ras12i11    
 
 
                   Integrals are discarded if absolute value <: 0.10E-13
                   Integral cutoff threshold is set to       <: 0.10E-15
 
++    Symmetry information:
      ---------------------
 
                    Character Table for C1 
 
                             E  
                    a        1  x, y, xy, Rz, z, xz, Ry, yz, Rx, I
--
 
 
++    Basis set information:
      ----------------------
 
 
      Basis set label: C.ANO-S...4S3P1D......
 
      Electronic valence basis set:
      ------------------
      Associated Effective Charge   6.000000 au
      Associated Actual Charge      6.000000 au
      Nuclear Model: Point charge
 
      Shell  nPrim  nBasis  Cartesian Spherical Contaminant
         s      10       4        X                  
         p       6       3        X                  
         d       3       1                 X         
 
 
      Basis set label: N.ANO-S...4S3P1D......
 
      Electronic valence basis set:
      ------------------
      Associated Effective Charge   7.000000 au
      Associated Actual Charge      7.000000 au
      Nuclear Model: Point charge
 
      Shell  nPrim  nBasis  Cartesian Spherical Contaminant
         s      10       4        X                  
         p       6       3        X                  
         d       3       1                 X         
 
 
      Basis set label: O.ANO-S...4S3P1D......
 
      Electronic valence basis set:
      ------------------
      Associated Effective Charge   8.000000 au
      Associated Actual Charge      8.000000 au
      Nuclear Model: Point charge
 
      Shell  nPrim  nBasis  Cartesian Spherical Contaminant
         s      10       4        X                  
         p       6       3        X                  
         d       3       1                 X         
 
 
      Basis set label: H.ANO-S...2S1P......
 
      Electronic valence basis set:
      ------------------
      Associated Effective Charge   1.000000 au
      Associated Actual Charge      1.000000 au
      Nuclear Model: Point charge
 
      Shell  nPrim  nBasis  Cartesian Spherical Contaminant
         s       7       2        X                  
         p       3       1        X                  
--
 
 
++    Molecular structure info:
      -------------------------
 
                    ************************************************ 
                    **** Cartesian Coordinates / Bohr, Angstrom **** 
                    ************************************************ 
 
     Center  Label                x              y              z                     x              y              z
        1      C1              -0.097470      -0.074788       0.404131             -0.051579      -0.039576       0.213857
        2      C3               3.837871       2.412313       0.122728              2.030914       1.276541       0.064945
        3      C4               2.687404       4.211291      -1.877955              1.422113       2.228519      -0.993771
        4      C6               0.359171       8.173445      -2.544246              0.190065       4.325201      -1.346357
        5      C19             -1.274541      -2.677226       0.042712             -0.674458      -1.416727       0.022602
        6      N2               2.502848       0.009201       0.328056              1.324450       0.004869       0.173600
        7      N5               1.675902       6.395345      -0.922678              0.886849       3.384271      -0.488260
        8      O7              -1.373978       1.834011       0.785631             -0.727078       0.970517       0.415738
        9      O8               2.820244       3.707049      -4.143253              1.492409       1.961686      -2.192515
       10      H9              -2.264841      -2.711940      -1.804418             -1.198502      -1.435097      -0.954857
       11      H10             -2.723216      -2.970897       1.522947             -1.441064      -1.572131       0.805909
       12      H11              0.101903      -4.253292       0.098646              0.053925      -2.250745       0.052201
       13      H12              3.425314      -1.561161      -0.308135              1.812598      -0.826131      -0.163058
       14      H13              3.921140       3.353578       2.002494              2.074978       1.774637       1.059674
       15      H14              5.803697       2.015907      -0.469421              3.071184       1.066772      -0.248407
       16      H15              1.156490       6.330146       0.936603              0.611988       3.349769       0.495629
       17      H16              0.998739       7.835226      -4.505638              0.528510       4.146223      -2.384281
       18      H17             -1.723162       7.896408      -2.477603             -0.911858       4.178599      -1.311091
       19      H18              0.795703      10.150431      -2.000150              0.421068       5.371377      -1.058434
 
                    ************************************************* 
                    **** InterNuclear Distances / Bohr, Angstrom **** 
                    ************************************************* 
 
     Atom centers         Bohr        Angstrom
   13 H12       6 N2      1.929176        1.020876
   16 H15       7 N5      1.931571        1.022143
   17 H16       4 C6      2.090574        1.106284
   15 H14       2 C3      2.090992        1.106505
   11 H10       5 C19     2.091889        1.106980
   12 H11       5 C19     2.093254        1.107702
   10 H9        5 C19     2.096136        1.109228
   19 H18       4 C6      2.096443        1.109390
   18 H17       4 C6      2.101738        1.112192
   14 H13       2 C3      2.103909        1.113340
    9 O8        3 C4      2.324539        1.230093
    8 O7        1 C1      2.327773        1.231805
    7 N5        3 C4      2.589553        1.370333
    6 N2        1 C1      2.602786        1.377335
    7 N5        4 C6      2.743156        1.451616
    6 N2        2 C3      2.756700        1.458783
    5 C19       1 C1      2.879028        1.523516
    3 C4        2 C3      2.926197        1.548477
   11 H10      10 H9      3.368758        1.782670
   15 H14      14 H13     3.382861        1.790133
   18 H17      17 H16     3.394910        1.796509
   12 H11      10 H9      3.405715        1.802227
   19 H18      18 H17     3.413688        1.806446
   12 H11      11 H10     3.413865        1.806539
   19 H18      17 H16     3.417436        1.808429
   16 H15       3 C4      3.841222        2.032687
   13 H12       1 C1      3.889298        2.058128
   17 H16       7 N5      3.920384        2.074578
   15 H14       6 N2      3.944419        2.087297
   14 H13       6 N2      4.000019        2.116719
   19 H18       7 N5      4.004543        2.119113
   13 H12       2 C3      4.018002        2.126235
   16 H15       4 C6      4.018679        2.126593
   18 H17       7 N5      4.027979        2.131515
   15 H14       3 C4      4.063860        2.150502
   10 H9        1 C1      4.065680        2.151465
   11 H10       1 C1      4.066170        2.151725
   14 H13       3 C4      4.161209        2.202017
   12 H11       1 C1      4.194397        2.219579
   16 H15      14 H13     4.199925        2.222505
   13 H12      12 H11     4.296288        2.273498
   15 H14      13 H12     4.298620        2.274732
    8 O7        6 N2      4.309186        2.280323
    9 O8        7 N5      4.348397        2.301073
   17 H16       9 O8      4.526704        2.395428
    9 O8        2 C3      4.572800        2.419822
    8 O7        5 C19     4.573082        2.419971
    4 C6        3 C4      4.643628        2.457302
    6 N2        5 C19     4.644026        2.457513
    7 N5        2 C3      4.650971        2.461188
    2 C3        1 C1      4.663879        2.468019
   18 H17      16 H15     4.733114        2.504656
    6 N2        3 C4      4.749537        2.513347
   14 H13       7 N5      4.780175        2.529560
   17 H16       3 C4      4.784267        2.531725
   16 H15       2 C3      4.816806        2.548944
   19 H18      16 H15     4.832108        2.557041
   13 H12       5 C19     4.843277        2.562952
   12 H11       6 N2      4.897551        2.591672
   15 H14       9 O8      5.025733        2.659503
   11 H10       8 O7      5.044920        2.669657
   16 H15       8 O7      5.161520        2.731359
    8 O7        2 C3      5.285570        2.797003
   10 H9        8 O7      5.307322        2.808514
    9 O8        4 C6      5.344380        2.828124
    8 O7        3 C4      5.407492        2.861522
   14 H13      13 H12     5.453394        2.885812
   14 H13       1 C1      5.518848        2.920449
    3 C4        1 C1      5.597670        2.962159
   14 H13       8 O7      5.641641        2.985428
   17 H16      16 H15     5.648729        2.989179
--
 
 
            Nuclear Potential Energy            465.85560831 au
 
 
      Basis set specifications :
      Symmetry species         a  
      Basis functions          212
 
 
      Input file to MOLDEN was generated!
 
--- Stop Module: seward at Tue Jun 10 21:02:43 2025 /rc=_RC_ALL_IS_WELL_ ---
*** files: orca_geometry_optimisation_315_115_BP86_def2-SVP_def2J_scf_cas1_ras12i11_cas8.GssOrb
           orca_geometry_optimisation_315_115_BP86_def2-SVP_def2J_scf_cas1_ras12i11_cas8.guessorb.molden xmldump
    saved to directory /home/pcaah4/diamide_project
--- Module seward spent 1 minute 51 seconds ---

*** symbolic link created: INPORB -> orca_geometry_optimisation_315_115_BP86_def2-SVP_def2J_scf_cas1_ras12i11_cas8.GssOrb
--- Start Module: rasscf at Tue Jun 10 21:02:44 2025 ---
 
()()()()()()()()()()()()()()()()()()()()()()()()()()()()()()()()()()()()()()()()()()()()()()()()()()

                                              &RASSCF

                                   only a single process is used
                       available to each process: 2.0 GB of memory, 1 thread
                                            pid: 3139889
()()()()()()()()()()()()()()()()()()()()()()()()()()()()()()()()()()()()()()()()()()()()()()()()()()
 
 
      Header of the ONEINT file:
      --------------------------
      orca_geometry_optimisation_315_115_BP86_def2-SVP_def2J_scf_cas1_ras12i11
      Integrals generated by Gateway/Seward, Tue Jun 10 21:00:52 2025
 
 
      OrdInt status: non-squared
 
 
      Cartesian coordinates in Angstrom:
      -----------------------------------------------------
      No.  Label        X            Y            Z        
      -----------------------------------------------------
       1   C1        -0.05157900  -0.03957600   0.21385700
       2   C3         2.03091400   1.27654100   0.06494500
       3   C4         1.42211300   2.22851900  -0.99377100
       4   C6         0.19006500   4.32520100  -1.34635700
       5   C19       -0.67445800  -1.41672700   0.02260200
       6   N2         1.32445000   0.00486900   0.17360000
       7   N5         0.88684900   3.38427100  -0.48826000
       8   O7        -0.72707800   0.97051700   0.41573800
       9   O8         1.49240900   1.96168600  -2.19251500
      10   H9        -1.19850200  -1.43509700  -0.95485700
      11   H10       -1.44106400  -1.57213100   0.80590900
      12   H11        0.05392500  -2.25074500   0.05220100
      13   H12        1.81259800  -0.82613100  -0.16305800
      14   H13        2.07497800   1.77463700   1.05967400
      15   H14        3.07118400   1.06677200  -0.24840700
      16   H15        0.61198800   3.34976900   0.49562900
      17   H16        0.52851000   4.14622300  -2.38428100
      18   H17       -0.91185800   4.17859900  -1.31109100
      19   H18        0.42106800   5.37137700  -1.05843400
      -----------------------------------------------------
      Nuclear repulsion energy =  465.85560831
 
++    Wave function specifications:
      -----------------------------
 
      Number of closed shell electrons          58
      Number of electrons in active shells      12
      Max number of holes in RAS1 space          0
      Max nr of electrons in RAS3 space          0
      Number of inactive orbitals               29
      Number of active orbitals                  8
      Number of secondary orbitals             172
      Spin quantum number                      0.0
      State symmetry                             1
--
 
++    Orbital specifications:
      -----------------------
 
      Symmetry species                           1
                                                 a
      Frozen orbitals                            0
      Inactive orbitals                         29
      Active orbitals                            8
      RAS1 orbitals                              0
      RAS2 orbitals                              8
      RAS3 orbitals                              0
      Secondary orbitals                       172
      Deleted orbitals                           3
      Number of basis functions                212
--
 
++    CI expansion specifications:
      ----------------------------
 
      Number of CSFs                           336
      Number of determinants                   406
      Number of root(s) required                 7
      Root chosen for geometry opt.              7
      CI roots used                              1     2     3     4     5     6     7
      weights                                0.143 0.143 0.143 0.143 0.143 0.143 0.143
      highest root included in the CI            7
      max. size of the explicit Hamiltonian    200
--
 
++    Optimization specifications:
      ----------------------------
 
      RASSCF algorithm: Conventional
      Maximum number of macro iterations        64
      Maximum number of SX iterations           25
      Threshold for RASSCF energy            0.100E-07
      Threshold for max MO rotation          0.100E+00
      Threshold for max BLB element          0.100E-03
      Level shift parameter                  0.300E+00
      Make Quasi-Newton update
--
 
      The MO-coefficients are taken from the file:
      /home/pcaah4/diamide_project/cas/ras12i11/ras_orb/orca_geometry_optimisation_315_115_BP86_def2-SVP_def2J_scf_cas1_ras12i11.RasOrb                                                                                                                               
      Title: RASSCF average (pseudo-natural) orbitals                                      
 
      Total molecular charge    0.00
 
      ************************************************************************************************************************
      *                                                                                                                      *
      *                                            Wave function control section                                             *
      *                                                                                                                      *
      ************************************************************************************************************************
 
 
                                         RASSCF iterations: Energy and convergence statistics
                                         ----------------------------------------------------
 
      Iter CI   SX   CI       RASSCF       Energy    max ROT     max BLB   max BLB  Level Ln srch  Step   QN   Walltime
          iter iter root      energy       change     param      element    value   shift minimum  type update hh:mm:ss
 Nr of preliminary CI iterations:   3
        1   1   25    0  -429.80658285    0.00E+00   0.10E+00*  11  99 1 -0.65E+00*  0.58   0.00    SX    NO    0:00:13
        2   5   27    0  -437.60325385   -0.78E+01* -0.89E-01   11  99 1 -0.48E+00*  0.12   0.00    SX    NO    0:00:07
        3   4   29    0  -443.45956647   -0.59E+01*  0.82E-01   12 194 1  0.31E+00*  0.00   0.00    SX    NO    0:00:06
        4   3   31    0  -447.72050191   -0.43E+01*  0.76E-01   12 194 1  0.19E+00*  0.00   0.00    SX    NO    0:00:06
        5   5   33    0  -450.60993869   -0.29E+01*  0.44E-01   35 147 1 -0.16E+00*  0.00   2.50    QN   YES    0:00:07
        6   4   35    0  -451.85651136   -0.12E+01*  0.29E-01   15  36 1  0.12E+00*  0.04   2.50    LS   YES    0:00:07
        7   4   37    0  -452.44676673   -0.59E+00*  0.24E-01   15  36 1  0.10E+00*  0.07   2.50    LS   YES    0:00:07
        8   3   39    0  -452.76282947   -0.32E+00* -0.50E-01   15  36 1  0.80E-01*  0.08   2.35    QN   YES    0:00:07
        9   4   41    0  -453.00850280   -0.25E+00* -0.38E-01   15  36 1  0.51E-01*  0.09   2.45    LS   YES    0:00:07
       10   3   43    0  -453.11861134   -0.11E+00* -0.78E-01   34  40 1 -0.33E-01*  0.09   1.99    QN   YES    0:00:07
       11   4   45    0  -453.18649244   -0.68E-01* -0.11E+00*  34  40 1 -0.26E-01*  0.07   2.50    QN   YES    0:00:07
       12   6   47    0  -453.23803151   -0.52E-01* -0.12E+00*  34  40 1 -0.23E-01*  0.00   2.50    QN   YES    0:00:07
       13   5   49    0  -453.28296385   -0.45E-01*  0.12E+00*  34  40 1 -0.12E-01*  0.00   1.68    QN   YES    0:00:07
       14   6   51    0  -453.29778982   -0.15E-01*  0.16E+00*  34  40 1 -0.61E-02*  0.00   2.50    QN   YES    0:00:07
       15   7   53    0  -453.30813975   -0.10E-01*  0.17E+00*  15  36 1 -0.56E-02*  0.00   2.12    QN   YES    0:00:07
       16   8   55    0  -453.31519641   -0.71E-02*  0.11E+00*  15  36 1 -0.64E-02*  0.00   2.50    LS   YES    0:00:07
       17   7   57    0  -453.32067510   -0.55E-02*  0.76E-01   14  36 1 -0.67E-02*  0.00   2.50    SX   YES    0:00:07
       18   6   59    0  -453.33080983   -0.10E-01*  0.61E-01   37  40 1  0.48E-02*  0.00   2.48    LS   YES    0:00:07
       19   6   61    0  -453.33653823   -0.57E-02*  0.43E-01   37  40 1  0.38E-02*  0.00   2.02    LS   YES    0:00:07
       20   3   63    0  -453.33871876   -0.22E-02* -0.17E+00*  37  40 1  0.29E-02*  0.00   1.67    QN   YES    0:00:07
       21   7   65    0  -453.32798441    0.11E-01* -0.78E-01   23  32 1 -0.93E-02*  0.00  -0.07    LS   YES    0:00:07
       22   5   67    0  -453.33478446   -0.68E-02* -0.67E-01   23  36 1  0.61E-02*  0.00   2.33    LS   YES    0:00:07
       23   5   69    0  -453.33809664   -0.33E-02* -0.55E-01   17  37 1  0.35E-02*  0.00   1.66    QN   YES    0:00:07
       24   5   71    0  -453.34012654   -0.20E-02* -0.34E-01   12  69 1  0.20E-02*  0.00   1.22    QN   YES    0:00:07
       25   6   73    0  -453.34056836   -0.44E-03*  0.20E-01   18  41 1 -0.27E-02*  0.00   0.76    QN   YES    0:00:07
       26   5   70    0  -453.34056708    0.13E-05*  0.22E-01    5  32 1 -0.22E-02*  0.00   0.49    SX   YES    0:00:07
       27  10   62    0  -453.34109097   -0.52E-03*  0.16E-01   30 106 1  0.87E-03*  0.00   1.81    LS   YES    0:00:07
       28   5   58    0  -453.34124391   -0.15E-03* -0.10E-01   31  54 1 -0.50E-03*  0.00   1.20    QN   YES    0:00:07
       29   6   48    0  -453.34129926   -0.55E-04* -0.24E-02   25  41 1 -0.22E-03*  0.00   1.03    QN   YES    0:00:07
       30   5   48    0  -453.34130486   -0.56E-05*  0.11E-02   23  37 1 -0.94E-04   0.00   1.05    QN   YES    0:00:07
       31   6   43    0  -453.34130564   -0.78E-06* -0.27E-03   25  41 1 -0.94E-04   0.00   1.06    QN   YES    0:00:07
       32   3   45    0  -453.34130580   -0.16E-06* -0.10E-03    5  32 1  0.73E-04   0.00   1.16    QN   YES    0:00:07
       33   6   43    0  -453.34130587   -0.73E-07*  0.24E-03    5  32 1  0.65E-04   0.00   1.77    QN   YES    0:00:07
       34   3   42    0  -453.34130596   -0.85E-07* -0.24E-03    5  32 1  0.44E-04   0.00   1.44    QN   YES    0:00:07
       35   3   41    0  -453.34130602   -0.60E-07* -0.36E-03    5  32 1  0.24E-04   0.00   1.80    QN   YES    0:00:07
       36   3   37    0  -453.34130607   -0.53E-07* -0.12E-03   36 119 1  0.87E-05   0.00   1.31    QN   YES    0:00:07
       37   1   32    0  -453.34130609   -0.17E-07* -0.54E-04   25  41 1 -0.11E-04   0.00   1.39    QN   YES    0:00:06
       38   1   27    0  -453.34130609   -0.63E-08   0.29E-04   33  40 1  0.41E-05   0.00   1.24    QN   YES    0:00:06
      Convergence after 38 iterations
       39   1   27    0  -453.34130609   -0.14E-08   0.29E-04   25  41 1 -0.28E-05   0.00   1.24    QN   YES    0:00:06
 
      ************************************************************************************************************************
                                                      Wave function printout:
                       occupation of active orbitals, and spin coupling of open shells (u,d: Spin up or down)
      ************************************************************************************************************************
 
      Note: transformation to natural orbitals
      has been made, which may change the order of the CSFs.
 
      printout of CI-coefficients larger than  0.05 for root  1
      energy=    -453.592152
      conf/sym  11111111     Coeff  Weight
             1  22222200   0.96466 0.93056
             7  22222u0d   0.08686 0.00754
            15  22222002  -0.07989 0.00638
            41  22u222d0  -0.12137 0.01473
            61  2u2222d0   0.07688 0.00591
            93  u2222d02  -0.05037 0.00254
           141  22022220  -0.07539 0.00568
           151  2ud22220   0.06315 0.00399
           171  20222220  -0.09613 0.00924
           195  02222202  -0.08406 0.00707
 
      printout of CI-coefficients larger than  0.05 for root  2
      energy=    -453.382847
      conf/sym  11111111     Coeff  Weight
            21  222u22d0   0.95080 0.90402
            23  222ud220   0.08094 0.00655
            24  222u220d  -0.09579 0.00918
            27  222u2udd  -0.07967 0.00635
            35  222u20d2   0.08020 0.00643
            41  22u222d0  -0.06993 0.00489
           111  22ud2220   0.10248 0.01050
           121  2u2d2220  -0.17838 0.03182
           270  022u22d2  -0.08348 0.00697
 
      printout of CI-coefficients larger than  0.05 for root  3
      energy=    -453.375931
      conf/sym  11111111     Coeff  Weight
             8  2222u20d   0.88990 0.79192
            16  2222ud02  -0.13075 0.01709
            44  22u2220d  -0.31630 0.10004
            46  22u2d2ud  -0.05825 0.00339
            48  22u2u2dd   0.10090 0.01018
            68  2u22u2dd  -0.06580 0.00433
            84  u222220d   0.07926 0.00628
            94  u222d202  -0.16872 0.02847
           144  2202u22d   0.07815 0.00611
           154  2ud2u22d  -0.06576 0.00432
           174  2022u22d   0.08953 0.00802
 
      printout of CI-coefficients larger than  0.05 for root  4
      energy=    -453.279626
      conf/sym  11111111     Coeff  Weight
             7  22222u0d   0.07691 0.00592
             8  2222u20d   0.14624 0.02139
            15  22222002   0.06008 0.00361
            21  222u22d0  -0.05036 0.00254
            24  222u220d  -0.35409 0.12538
            41  22u222d0  -0.14129 0.01996
            44  22u2220d   0.26136 0.06831
            84  u222220d  -0.80674 0.65083
            93  u2222d02   0.19480 0.03795
           112  22ud22ud  -0.06752 0.00456
           135  u22d2202  -0.05371 0.00288
           195  02222202  -0.06050 0.00366
           201  22uu22dd   0.08949 0.00801
           225  u2u222dd   0.07461 0.00557
           231  uu2222dd  -0.05471 0.00299
           289  u202222d   0.06924 0.00479
           309  u022222d   0.07668 0.00588
 
      printout of CI-coefficients larger than  0.05 for root  5
      energy=    -453.273920
      conf/sym  11111111     Coeff  Weight
             1  22222200  -0.09158 0.00839
             7  22222u0d  -0.05998 0.00360
             8  2222u20d   0.11540 0.01332
            21  222u22d0  -0.07670 0.00588
            24  222u220d  -0.24275 0.05893
            41  22u222d0  -0.64165 0.41171
            44  22u2220d   0.46398 0.21527
            47  22u22udd   0.07249 0.00525
            55  22u220d2  -0.05657 0.00320
            84  u222220d   0.40239 0.16192
            93  u2222d02  -0.07905 0.00625
           112  22ud22ud  -0.07290 0.00531
           141  22022220   0.12556 0.01576
           151  2ud22220   0.15545 0.02416
           152  2ud222ud  -0.08298 0.00689
           171  20222220  -0.06934 0.00481
           201  22uu22dd   0.10009 0.01002
           219  2uu222dd  -0.08603 0.00740
           293  20u2222d   0.05900 0.00348
           302  02u222d2   0.05512 0.00304
 
      printout of CI-coefficients larger than  0.05 for root  6
      energy=    -453.248331
      conf/sym  11111111     Coeff  Weight
             8  2222u20d  -0.26051 0.06786
            21  222u22d0  -0.06449 0.00416
            24  222u220d  -0.48989 0.23999
            26  222ud2ud   0.05705 0.00325
            28  222uu2dd   0.06175 0.00381
            41  22u222d0  -0.29388 0.08636
            44  22u2220d  -0.68546 0.46985
           112  22ud22ud  -0.11944 0.01427
           141  22022220   0.05760 0.00332
           151  2ud22220   0.06623 0.00439
           152  2ud222ud   0.12100 0.01464
           201  22uu22dd   0.15447 0.02386
           219  2uu222dd   0.16098 0.02592
           293  20u2222d  -0.10130 0.01026
 
      printout of CI-coefficients larger than  0.05 for root  7
      energy=    -453.236336
      conf/sym  11111111     Coeff  Weight
             1  22222200  -0.05468 0.00299
             7  22222u0d  -0.05690 0.00324
            24  222u220d   0.61896 0.38312
            26  222ud2ud  -0.05870 0.00345
            28  222uu2dd  -0.05931 0.00352
            41  22u222d0  -0.56527 0.31953
            44  22u2220d  -0.23265 0.05413
            61  2u2222d0  -0.08470 0.00717
            84  u222220d  -0.26486 0.07015
            93  u2222d02   0.07718 0.00596
           112  22ud22ud   0.15000 0.02250
           141  22022220   0.14931 0.02229
           151  2ud22220   0.12216 0.01492
           171  20222220  -0.07373 0.00544
           201  22uu22dd  -0.20740 0.04302
           219  2uu222dd   0.05425 0.00294
           253  2udu222d   0.05352 0.00286
           302  02u222d2   0.05476 0.00300
 
      Natural orbitals and occupation numbers for root  1
      sym 1:   1.994944   1.996192   1.954857   1.999453   1.999832   1.968531   0.049093   0.037098
 
      Natural orbitals and occupation numbers for root  2
      sym 1:   1.999843   1.995180   1.999699   1.007635   1.999360   1.966574   0.992876   0.038832
 
      Natural orbitals and occupation numbers for root  3
      sym 1:   1.994850   1.997965   1.951845   1.999204   0.979377   1.999477   0.052253   1.025029
 
      Natural orbitals and occupation numbers for root  4
      sym 1:   1.161899   1.983238   1.934555   1.962188   1.997597   1.974413   0.093162   0.892949
 
      Natural orbitals and occupation numbers for root  5
      sym 1:   1.820283   1.944979   1.182498   1.992267   1.995579   1.972375   0.846672   0.245347
 
      Natural orbitals and occupation numbers for root  6
      sym 1:   1.989838   1.951337   1.088873   1.900126   1.979039   1.999016   0.144929   0.946842
 
      Natural orbitals and occupation numbers for root  7
      sym 1:   1.962852   1.968104   1.361154   1.671661   1.990310   1.989379   0.387838   0.668703
 
      ************************************************************************************************************************
      *                                                                                                                      *
      *                                                    Final results                                                     *
      *                                                                                                                      *
      ************************************************************************************************************************
 
 
++    Wave function specifications:
      -----------------------------
 
      Number of closed shell electrons          58
      Number of electrons in active shells      12
      Max number of holes in RAS1 space          0
      Max nr of electrons in RAS3 space          0
      Number of inactive orbitals               29
      Number of active orbitals                  8
      Number of secondary orbitals             172
      Spin quantum number                      0.0
      State symmetry                             1
--
 
++    Orbital specifications:
      -----------------------
 
      Symmetry species                           1
                                                 a
      Frozen orbitals                            0
      Inactive orbitals                         29
      Active orbitals                            8
      RAS1 orbitals                              0
      RAS2 orbitals                              8
      RAS3 orbitals                              0
      Secondary orbitals                       172
      Deleted orbitals                           3
      Number of basis functions                212
--
 
++    CI expansion specifications:
      ----------------------------
 
      Number of CSFs                           336
      Number of determinants                   406
      Number of root(s) required                 7
      CI roots used                              1     2     3     4     5     6     7
      weights                                0.143 0.143 0.143 0.143 0.143 0.143 0.143
      highest root included in the CI            7
      Root passed to geometry opt.               7
--
 
++    Final optimization conditions:
      ------------------------------
 
      Average CI energy                            -453.34130609
      RASSCF energy for state  7                   -453.23633613
      Super-CI energy                                -0.00000000
      RASSCF energy change                            0.00000000
      Max change in MO coefficients              -0.429E-04
      Max non-diagonal density matrix element     0.288E-04
      Maximum BLB matrix element                 -0.278E-05
      (orbital pair  25,  41 in symmetry   1)
      Norm of electronic gradient            0.169E+00
--
 
 
      Final state energy(ies):
      ------------------------
 
::    RASSCF root number  1 Total energy:   -453.59215192
::    RASSCF root number  2 Total energy:   -453.38284652
::    RASSCF root number  3 Total energy:   -453.37593050
::    RASSCF root number  4 Total energy:   -453.27962618
::    RASSCF root number  5 Total energy:   -453.27392027
::    RASSCF root number  6 Total energy:   -453.24833114
::    RASSCF root number  7 Total energy:   -453.23633613
 
++    Molecular orbitals:
      -------------------
 
      Pseudonatural active orbitals and approximate occupation numbers
 
 
 
 
      Molecular orbitals for symmetry species 1: a  
 
 
      Orbital                 1         2         3         4         5         6         7         8         9        10
      Energy           -20.6253  -20.5385  -15.6537  -15.5962  -11.3687  -11.3123  -11.3077  -11.3060  -11.2760   -1.4485
      Occ. No.           2.0000    2.0000    2.0000    2.0000    2.0000    2.0000    2.0000    2.0000    2.0000    2.0000
 
     1 C1     1s         0.0004    0.0001    0.0005   -0.0000    1.0003    0.0006    0.0050    0.0001   -0.0001   -0.0389
     2 C1     2s         0.0017    0.0003    0.0028   -0.0002    0.0051   -0.0009    0.0005    0.0001   -0.0002    0.3499
     3 C1     3s         0.0002    0.0001    0.0017   -0.0002    0.0023   -0.0012    0.0007    0.0003   -0.0002   -0.0050
     4 C1     4s        -0.0002   -0.0000    0.0004   -0.0001    0.0020   -0.0004    0.0003    0.0001   -0.0001    0.0034
     5 C1     2px       -0.0008   -0.0003    0.0025   -0.0001    0.0023   -0.0007   -0.0000    0.0022   -0.0001   -0.0464
     6 C1     3px       -0.0005   -0.0004    0.0017    0.0000    0.0022    0.0006   -0.0004    0.0017   -0.0002    0.0179
     7 C1     4px        0.0001   -0.0001   -0.0002    0.0000    0.0004    0.0010   -0.0002   -0.0004   -0.0001   -0.0213
     8 C1     2py        0.0020   -0.0008   -0.0017   -0.0001   -0.0012    0.0056    0.0008   -0.0015   -0.0004    0.0746
     9 C1     3py        0.0013   -0.0010   -0.0014   -0.0002   -0.0007    0.0050   -0.0002   -0.0015   -0.0005   -0.0898
    10 C1     4py       -0.0002   -0.0001    0.0003   -0.0001    0.0011   -0.0002   -0.0004   -0.0002   -0.0001    0.0220
    11 C1     2pz        0.0003    0.0004   -0.0006   -0.0001   -0.0003    0.0006    0.0002    0.0001   -0.0002    0.0192
    12 C1     3pz       -0.0001    0.0005   -0.0007   -0.0001   -0.0010    0.0001    0.0001    0.0005   -0.0002   -0.0068
    13 C1     4pz       -0.0001    0.0001    0.0001    0.0000    0.0001   -0.0003   -0.0000    0.0005   -0.0000    0.0084
    14 C1     3d2-       0.0002    0.0000    0.0002   -0.0000   -0.0001    0.0000   -0.0001   -0.0000   -0.0000   -0.0325
    15 C1     3d1-      -0.0000    0.0000   -0.0000    0.0000    0.0001    0.0001    0.0000   -0.0002   -0.0000    0.0106
    16 C1     3d0       -0.0001    0.0000   -0.0000   -0.0000   -0.0006    0.0002   -0.0001   -0.0003    0.0000   -0.0275
    17 C1     3d1+      -0.0000    0.0000   -0.0001    0.0000   -0.0002    0.0000   -0.0000    0.0000    0.0000   -0.0077
    18 C1     3d2+       0.0001    0.0000   -0.0001   -0.0000    0.0001    0.0000    0.0000   -0.0001    0.0000   -0.0096
    19 C3     1s         0.0001    0.0001    0.0004   -0.0000   -0.0006    1.0001    0.0002   -0.0442   -0.0002   -0.0141
    20 C3     2s         0.0008    0.0007    0.0020   -0.0000    0.0004    0.0093   -0.0004   -0.0061    0.0002   -0.0287
    21 C3     3s         0.0005    0.0005    0.0010    0.0002    0.0001    0.0049   -0.0002   -0.0047    0.0001   -0.0466
    22 C3     4s         0.0001    0.0000    0.0002    0.0001   -0.0000    0.0026    0.0000   -0.0012   -0.0000   -0.0095
    23 C3     2px       -0.0001   -0.0007   -0.0002    0.0000    0.0009   -0.0010   -0.0002    0.0011   -0.0004   -0.0063
    24 C3     3px        0.0001   -0.0005    0.0003    0.0002    0.0014   -0.0010   -0.0003    0.0022   -0.0004    0.0168
    25 C3     4px        0.0001    0.0002    0.0003    0.0001    0.0003   -0.0006   -0.0001    0.0005   -0.0000    0.0014
    26 C3     2py       -0.0010    0.0011   -0.0018   -0.0005   -0.0015   -0.0007    0.0003    0.0018    0.0003   -0.0115
    27 C3     3py       -0.0010    0.0011   -0.0015   -0.0004   -0.0016   -0.0002    0.0003    0.0016    0.0003    0.0018
    28 C3     4py       -0.0000   -0.0000   -0.0000    0.0000   -0.0001   -0.0005    0.0000    0.0001   -0.0000   -0.0030
    29 C3     2pz       -0.0001    0.0011   -0.0011   -0.0004   -0.0012    0.0004    0.0002    0.0004   -0.0001   -0.0013
    30 C3     3pz       -0.0001    0.0010   -0.0012   -0.0004   -0.0015    0.0006    0.0002    0.0000    0.0001   -0.0035
    31 C3     4pz       -0.0000   -0.0000    0.0000   -0.0000   -0.0002   -0.0000    0.0000   -0.0006    0.0001   -0.0013
    32 C3     3d2-       0.0001   -0.0000    0.0001   -0.0000    0.0001   -0.0000   -0.0000   -0.0001   -0.0000    0.0028
    33 C3     3d1-      -0.0000    0.0001    0.0000   -0.0000   -0.0000    0.0000    0.0000   -0.0002   -0.0000   -0.0015
    34 C3     3d0        0.0000   -0.0001    0.0001    0.0000   -0.0000    0.0001    0.0000   -0.0000    0.0000   -0.0025
    35 C3     3d1+       0.0000    0.0000    0.0000    0.0000    0.0000    0.0000    0.0000    0.0001    0.0000    0.0004
    36 C3     3d2+      -0.0000   -0.0001    0.0001   -0.0000    0.0001    0.0001    0.0000    0.0000   -0.0000   -0.0014
    37 C4     1s         0.0001    0.0003   -0.0000    0.0004    0.0000    0.0434    0.0034    0.9992    0.0000   -0.0017
    38 C4     2s         0.0005    0.0012   -0.0001    0.0022    0.0009    0.0005    0.0002    0.0038   -0.0002    0.0299
    39 C4     3s         0.0004   -0.0002   -0.0000    0.0014    0.0007    0.0000    0.0002    0.0022   -0.0002    0.0091
    40 C4     4s         0.0001   -0.0003   -0.0000    0.0004    0.0001   -0.0000    0.0001    0.0023   -0.0001    0.0037
    41 C4     2px        0.0003    0.0000    0.0000   -0.0010   -0.0003    0.0006    0.0001   -0.0011   -0.0001   -0.0094
    42 C4     3px        0.0004   -0.0001    0.0001   -0.0009   -0.0004    0.0006    0.0001   -0.0023    0.0002   -0.0125
    43 C4     4px        0.0001   -0.0001    0.0001   -0.0000   -0.0001    0.0000    0.0000   -0.0011    0.0002   -0.0027
    44 C4     2py        0.0010   -0.0012    0.0017    0.0015    0.0024    0.0013   -0.0006   -0.0006    0.0000   -0.0232
    45 C4     3py        0.0011   -0.0011    0.0020    0.0013    0.0033    0.0024   -0.0008   -0.0003   -0.0004   -0.0211
    46 C4     4py        0.0001   -0.0000    0.0003   -0.0000    0.0006    0.0007   -0.0002    0.0008   -0.0004   -0.0039
    47 C4     2pz        0.0010   -0.0035    0.0005    0.0012    0.0013   -0.0008   -0.0002    0.0029   -0.0002    0.0046
    48 C4     3pz        0.0010   -0.0024    0.0009    0.0011    0.0016   -0.0010   -0.0002    0.0028    0.0002    0.0048
    49 C4     4pz       -0.0000    0.0004    0.0001    0.0001    0.0001    0.0000   -0.0000   -0.0001    0.0003   -0.0020
    50 C4     3d2-      -0.0001   -0.0001    0.0001    0.0000    0.0000    0.0001    0.0000   -0.0003   -0.0001   -0.0007
    51 C4     3d1-       0.0000   -0.0001    0.0000   -0.0002    0.0000   -0.0001    0.0000    0.0003    0.0000    0.0006
    52 C4     3d0       -0.0000   -0.0001    0.0000    0.0000    0.0001    0.0000    0.0000    0.0003   -0.0000    0.0023
    53 C4     3d1+       0.0000    0.0000    0.0000    0.0001    0.0000    0.0000    0.0000   -0.0001   -0.0000   -0.0007
    54 C4     3d2+      -0.0000   -0.0001   -0.0000    0.0001    0.0000    0.0000   -0.0000   -0.0001   -0.0001   -0.0003
    55 C6     1s        -0.0001   -0.0000    0.0005   -0.0004   -0.0002   -0.0007    0.0001   -0.0038    0.9999   -0.0102
    56 C6     2s        -0.0008   -0.0002    0.0029   -0.0033   -0.0017   -0.0061    0.0007   -0.0252    0.0014   -0.0600
    57 C6     3s        -0.0006   -0.0002    0.0021   -0.0032   -0.0016   -0.0048    0.0006   -0.0192   -0.0005   -0.0489
    58 C6     4s        -0.0002   -0.0001    0.0005   -0.0011   -0.0006   -0.0015    0.0002   -0.0054    0.0011   -0.0121
    59 C6     2px        0.0003    0.0003    0.0006   -0.0002    0.0007    0.0004    0.0000   -0.0024   -0.0000   -0.0077
    60 C6     3px        0.0005    0.0003    0.0008   -0.0002    0.0015    0.0009   -0.0000   -0.0013   -0.0001   -0.0023
    61 C6     4px        0.0001    0.0000    0.0002   -0.0000    0.0004    0.0001    0.0000    0.0002    0.0002    0.0021
    62 C6     2py       -0.0000    0.0001    0.0002   -0.0004    0.0005   -0.0001    0.0000    0.0001    0.0002   -0.0023
    63 C6     3py       -0.0002    0.0002   -0.0004    0.0005    0.0000    0.0006   -0.0000    0.0019    0.0001    0.0055
    64 C6     4py       -0.0001    0.0000   -0.0004    0.0005   -0.0002    0.0007   -0.0000    0.0015   -0.0006    0.0060
    65 C6     2pz       -0.0004    0.0001   -0.0005   -0.0000   -0.0013   -0.0014    0.0002   -0.0016    0.0002    0.0063
    66 C6     3pz       -0.0008    0.0000   -0.0011   -0.0005   -0.0027   -0.0021    0.0002   -0.0019    0.0001    0.0032
    67 C6     4pz       -0.0002   -0.0000   -0.0004   -0.0002   -0.0008   -0.0005    0.0000   -0.0002    0.0004   -0.0020
    68 C6     3d2-      -0.0000   -0.0000    0.0001    0.0000    0.0000   -0.0001    0.0000   -0.0003    0.0001   -0.0006
    69 C6     3d1-       0.0000   -0.0000    0.0001   -0.0000    0.0001   -0.0001   -0.0000   -0.0002    0.0001   -0.0012
    70 C6     3d0       -0.0000    0.0000   -0.0001   -0.0000   -0.0001   -0.0000   -0.0000    0.0003   -0.0000    0.0010
    71 C6     3d1+       0.0000    0.0000    0.0000   -0.0001    0.0001    0.0000    0.0000   -0.0001   -0.0001    0.0006
    72 C6     3d2+      -0.0000    0.0000   -0.0001    0.0001   -0.0000    0.0003   -0.0000    0.0005   -0.0000    0.0013
    73 C19    1s        -0.0004   -0.0000   -0.0012   -0.0000    0.0031    0.0007   -0.9999    0.0037   -0.0000   -0.0151
    74 C19    2s        -0.0031   -0.0003   -0.0081   -0.0001   -0.0120    0.0021   -0.0017    0.0021    0.0000   -0.0186
    75 C19    3s        -0.0025   -0.0003   -0.0061   -0.0001   -0.0095    0.0010    0.0005    0.0016   -0.0000   -0.0411
    76 C19    4s        -0.0009   -0.0001   -0.0019   -0.0000   -0.0030   -0.0001   -0.0013    0.0006   -0.0000   -0.0036
    77 C19    2px        0.0006   -0.0001   -0.0009    0.0001   -0.0001    0.0043    0.0000   -0.0017   -0.0001   -0.0246
    78 C19    3px        0.0006   -0.0001   -0.0004    0.0000   -0.0003   -0.0003    0.0001    0.0005   -0.0001    0.0120
    79 C19    4px       -0.0001    0.0000    0.0002   -0.0000   -0.0001   -0.0025   -0.0003    0.0012    0.0000    0.0245
    80 C19    2py       -0.0001   -0.0000    0.0005   -0.0001    0.0004   -0.0011    0.0003    0.0011   -0.0001    0.0262
    81 C19    3py       -0.0000    0.0000    0.0007   -0.0000    0.0006   -0.0003   -0.0001    0.0010   -0.0001   -0.0035
    82 C19    4py       -0.0000    0.0000    0.0001    0.0001    0.0003    0.0004   -0.0004    0.0002   -0.0000    0.0035
    83 C19    2pz       -0.0001   -0.0003   -0.0001   -0.0001   -0.0004   -0.0003    0.0000   -0.0001    0.0001    0.0018
    84 C19    3pz       -0.0001   -0.0003   -0.0001   -0.0001   -0.0003   -0.0001   -0.0000   -0.0005    0.0001   -0.0058
    85 C19    4pz       -0.0000   -0.0000    0.0000   -0.0000   -0.0000   -0.0000   -0.0000   -0.0002    0.0000   -0.0005
    86 C19    3d2-       0.0001   -0.0000    0.0000   -0.0000   -0.0000   -0.0008    0.0002    0.0003    0.0000    0.0044
    87 C19    3d1-       0.0000   -0.0000    0.0001   -0.0000    0.0000    0.0001    0.0000   -0.0001    0.0000    0.0004
    88 C19    3d0       -0.0000    0.0000    0.0000   -0.0000    0.0001   -0.0007   -0.0001    0.0003    0.0000    0.0046
    89 C19    3d1+       0.0001    0.0000    0.0001    0.0000    0.0003    0.0004   -0.0000   -0.0002   -0.0000   -0.0009
    90 C19    3d2+       0.0001    0.0000    0.0001   -0.0000   -0.0000   -0.0003   -0.0000    0.0001    0.0000   -0.0053
    91 N2     1s        -0.0001    0.0000    0.9997   -0.0001   -0.0005   -0.0001   -0.0000    0.0001   -0.0000   -0.0151
    92 N2     2s        -0.0004    0.0002   -0.0011   -0.0001   -0.0017   -0.0003   -0.0003    0.0006   -0.0000    0.1181
    93 N2     3s        -0.0001    0.0001   -0.0020   -0.0001   -0.0012   -0.0009   -0.0003    0.0007   -0.0000   -0.0363
    94 N2     4s        -0.0000    0.0000    0.0003   -0.0000   -0.0002   -0.0006   -0.0001    0.0004   -0.0000   -0.0077
    95 N2     2px       -0.0000    0.0004    0.0001   -0.0002   -0.0004   -0.0003    0.0003    0.0015    0.0001   -0.0306
    96 N2     3px       -0.0004    0.0006   -0.0006   -0.0002   -0.0008   -0.0001    0.0003    0.0016    0.0001    0.0157
    97 N2     4px       -0.0001    0.0001   -0.0007   -0.0000   -0.0005    0.0005   -0.0001   -0.0002    0.0000   -0.0093
    98 N2     2py       -0.0013   -0.0000   -0.0004   -0.0002    0.0001   -0.0038    0.0001    0.0018    0.0001    0.0555
    99 N2     3py       -0.0014    0.0000    0.0006   -0.0003    0.0003   -0.0063    0.0000    0.0027    0.0002    0.0471
   100 N2     4py        0.0001    0.0000    0.0006   -0.0000   -0.0001   -0.0011   -0.0001    0.0004    0.0000    0.0009
   101 N2     2pz       -0.0002   -0.0001   -0.0001    0.0000    0.0001   -0.0005    0.0001   -0.0001    0.0001    0.0084
   102 N2     3pz       -0.0002   -0.0002    0.0004    0.0000    0.0003   -0.0007    0.0001    0.0000    0.0001    0.0138
   103 N2     4pz        0.0000   -0.0000   -0.0002   -0.0000    0.0000   -0.0001    0.0000    0.0000    0.0000    0.0010
   104 N2     3d2-       0.0000   -0.0000   -0.0002   -0.0000   -0.0001   -0.0001    0.0000    0.0000    0.0000   -0.0030
   105 N2     3d1-       0.0000    0.0000    0.0001    0.0000   -0.0001    0.0000   -0.0000   -0.0001    0.0000   -0.0013
   106 N2     3d0       -0.0000   -0.0000   -0.0000    0.0000    0.0001    0.0001    0.0001    0.0000    0.0000   -0.0022
   107 N2     3d1+       0.0000   -0.0000   -0.0001    0.0000   -0.0000    0.0000    0.0000   -0.0001    0.0000   -0.0011
   108 N2     3d2+      -0.0000    0.0000   -0.0000    0.0000    0.0001    0.0000   -0.0000    0.0001   -0.0000    0.0047
   109 N5     1s        -0.0001    0.0002   -0.0001    1.0000   -0.0000    0.0004   -0.0000    0.0004    0.0000   -0.0009
   110 N5     2s        -0.0003    0.0010   -0.0011    0.0010   -0.0000    0.0028   -0.0001    0.0049    0.0011    0.0120
   111 N5     3s        -0.0001    0.0007   -0.0010   -0.0006   -0.0000    0.0021   -0.0001    0.0045    0.0005    0.0040
   112 N5     4s         0.0000    0.0002   -0.0004    0.0008    0.0000    0.0007   -0.0000    0.0018    0.0002    0.0018
   113 N5     2px       -0.0006    0.0002   -0.0005   -0.0007   -0.0013   -0.0014    0.0002   -0.0014   -0.0005    0.0077
   114 N5     3px       -0.0009    0.0003   -0.0008   -0.0007   -0.0022   -0.0023    0.0003   -0.0027   -0.0003    0.0117
   115 N5     4px       -0.0001    0.0000   -0.0001   -0.0005   -0.0004   -0.0003    0.0001   -0.0005   -0.0000    0.0015
   116 N5     2py        0.0002   -0.0004   -0.0002    0.0004    0.0004    0.0001   -0.0000    0.0027    0.0005    0.0019
   117 N5     3py        0.0001   -0.0003   -0.0002    0.0008    0.0004    0.0003    0.0000    0.0035    0.0002    0.0025
   118 N5     4py       -0.0001    0.0001   -0.0000   -0.0004    0.0000    0.0001    0.0000    0.0000   -0.0001   -0.0005
   119 N5     2pz        0.0004    0.0010    0.0010    0.0003    0.0013    0.0016   -0.0001   -0.0049   -0.0003   -0.0163
   120 N5     3pz        0.0006    0.0011    0.0016   -0.0004    0.0021    0.0020   -0.0001   -0.0061   -0.0004   -0.0215
   121 N5     4pz        0.0001    0.0000    0.0002   -0.0005    0.0004    0.0001   -0.0000   -0.0001   -0.0002   -0.0004
   122 N5     3d2-       0.0000   -0.0000    0.0000    0.0001    0.0000   -0.0000    0.0000    0.0002    0.0000    0.0010
   123 N5     3d1-      -0.0000   -0.0001    0.0000    0.0000    0.0000   -0.0000   -0.0000    0.0001   -0.0000    0.0004
   124 N5     3d0        0.0000   -0.0000    0.0000    0.0001    0.0000    0.0000    0.0000   -0.0002   -0.0000   -0.0008
   125 N5     3d1+       0.0000    0.0000    0.0000   -0.0001   -0.0000   -0.0002    0.0000    0.0000   -0.0000    0.0001
   126 N5     3d2+       0.0000   -0.0000   -0.0000    0.0000   -0.0000   -0.0001    0.0000    0.0000    0.0000   -0.0001
   127 O7     1s         0.9998    0.0001    0.0002   -0.0000   -0.0001   -0.0004   -0.0001    0.0002    0.0000   -0.0224
   128 O7     2s        -0.0010    0.0004    0.0012   -0.0001    0.0017   -0.0025   -0.0006    0.0013    0.0001    0.7077
   129 O7     3s        -0.0010    0.0003    0.0008   -0.0001    0.0009   -0.0016   -0.0004    0.0011    0.0001   -0.0282
   130 O7     4s         0.0002    0.0001    0.0003   -0.0000    0.0004   -0.0003   -0.0001    0.0004    0.0000   -0.0128
   131 O7     2px        0.0002    0.0001   -0.0001   -0.0001    0.0006   -0.0005   -0.0001   -0.0001    0.0000    0.0884
   132 O7     3px       -0.0003    0.0001   -0.0004   -0.0001    0.0001    0.0000   -0.0001   -0.0001   -0.0000   -0.0255
   133 O7     4px        0.0008   -0.0000   -0.0001   -0.0000    0.0001    0.0006    0.0000   -0.0003   -0.0000   -0.0039
   134 O7     2py       -0.0005    0.0001   -0.0006   -0.0002   -0.0014   -0.0000    0.0003   -0.0006   -0.0001   -0.1171
   135 O7     3py        0.0002    0.0002   -0.0006   -0.0003   -0.0012   -0.0004    0.0003   -0.0008   -0.0002    0.0405
   136 O7     4py       -0.0011    0.0001    0.0001   -0.0001   -0.0003   -0.0004   -0.0000   -0.0002   -0.0000    0.0026
   137 O7     2pz       -0.0001   -0.0001   -0.0002    0.0001   -0.0003   -0.0001    0.0000    0.0002    0.0001   -0.0203
   138 O7     3pz        0.0000   -0.0000   -0.0000    0.0001   -0.0001   -0.0001    0.0000   -0.0000    0.0002    0.0066
   139 O7     4pz       -0.0002    0.0000   -0.0000    0.0000   -0.0002   -0.0001   -0.0000    0.0000    0.0001   -0.0002
   140 O7     3d2-       0.0001    0.0000   -0.0000    0.0000   -0.0002    0.0001    0.0000    0.0000   -0.0000   -0.0178
   141 O7     3d1-      -0.0000    0.0000    0.0001   -0.0000    0.0001   -0.0000   -0.0000   -0.0000    0.0000    0.0048
   142 O7     3d0       -0.0000   -0.0000   -0.0000    0.0000   -0.0000    0.0001    0.0000   -0.0001    0.0000   -0.0104
   143 O7     3d1+      -0.0000    0.0000   -0.0000    0.0000   -0.0001   -0.0001    0.0000   -0.0001    0.0000   -0.0033
   144 O7     3d2+       0.0000    0.0000   -0.0001    0.0000   -0.0001    0.0001    0.0000   -0.0000   -0.0000   -0.0065
   145 O8     1s         0.0001    0.9996    0.0000    0.0000    0.0001   -0.0000   -0.0000   -0.0000   -0.0001   -0.0013
   146 O8     2s         0.0008   -0.0018    0.0003    0.0003    0.0010   -0.0002   -0.0003    0.0020   -0.0004    0.0297
   147 O8     3s         0.0006   -0.0017    0.0002    0.0002    0.0007   -0.0001   -0.0002    0.0010   -0.0002   -0.0013
   148 O8     4s         0.0002   -0.0001    0.0001    0.0000    0.0002   -0.0002   -0.0001    0.0003   -0.0001   -0.0001
   149 O8     2px       -0.0000   -0.0000    0.0001    0.0002    0.0002   -0.0001   -0.0000    0.0004    0.0001    0.0012
   150 O8     3px        0.0000   -0.0000   -0.0001    0.0004    0.0002   -0.0001   -0.0001    0.0007    0.0000    0.0014
   151 O8     4px        0.0000   -0.0001   -0.0000    0.0001    0.0001    0.0000   -0.0000    0.0004   -0.0000   -0.0000
   152 O8     2py       -0.0001    0.0001   -0.0000   -0.0003   -0.0002   -0.0002    0.0000    0.0004   -0.0001    0.0008
   153 O8     3py       -0.0002   -0.0001   -0.0000   -0.0004   -0.0002   -0.0004    0.0001   -0.0001   -0.0000   -0.0000
   154 O8     4py       -0.0001    0.0003    0.0000   -0.0001   -0.0000    0.0001    0.0000   -0.0003    0.0000   -0.0013
   155 O8     2pz        0.0001    0.0002   -0.0001    0.0000    0.0001   -0.0001   -0.0000    0.0011   -0.0001    0.0100
   156 O8     3pz       -0.0000   -0.0005   -0.0002   -0.0002   -0.0001   -0.0002    0.0001    0.0004   -0.0001    0.0033
   157 O8     4pz       -0.0001    0.0014   -0.0000   -0.0002   -0.0000   -0.0001    0.0001    0.0002    0.0000    0.0021
   158 O8     3d2-      -0.0000   -0.0001   -0.0000   -0.0000   -0.0000   -0.0001   -0.0000    0.0001   -0.0000    0.0005
   159 O8     3d1-      -0.0000   -0.0001    0.0000   -0.0001    0.0000   -0.0001    0.0000    0.0001   -0.0000    0.0000
   160 O8     3d0       -0.0000   -0.0001   -0.0000    0.0000   -0.0001   -0.0001    0.0000    0.0002    0.0000    0.0012
   161 O8     3d1+       0.0000    0.0000    0.0000    0.0000    0.0000    0.0001   -0.0000   -0.0001    0.0000   -0.0003
   162 O8     3d2+       0.0000   -0.0000    0.0000   -0.0000    0.0000    0.0000   -0.0000    0.0000   -0.0000   -0.0001
   163 H9     1s         0.0011   -0.0003    0.0017   -0.0000    0.0031    0.0023   -0.0004   -0.0015   -0.0001    0.0064
   164 H9     2s         0.0008   -0.0002    0.0012   -0.0000    0.0022    0.0012    0.0002   -0.0009   -0.0001   -0.0009
   165 H9     2px       -0.0000   -0.0000    0.0001   -0.0000    0.0001    0.0003   -0.0000   -0.0002   -0.0000   -0.0008
   166 H9     2py       -0.0001    0.0000   -0.0001    0.0000    0.0000    0.0002   -0.0000   -0.0002    0.0000   -0.0001
   167 H9     2pz        0.0001   -0.0000    0.0001    0.0000    0.0003    0.0008    0.0000   -0.0004   -0.0000   -0.0028
   168 H10    1s         0.0015   -0.0001    0.0023    0.0001    0.0046    0.0045   -0.0005   -0.0022   -0.0003    0.0002
   169 H10    2s         0.0010   -0.0001    0.0015    0.0001    0.0029    0.0024    0.0001   -0.0012   -0.0002   -0.0066
   170 H10    2px        0.0001    0.0000    0.0002    0.0000    0.0004    0.0011    0.0000   -0.0005   -0.0000   -0.0038
   171 H10    2py       -0.0001   -0.0000   -0.0000   -0.0000    0.0001    0.0006   -0.0000   -0.0003   -0.0000   -0.0021
   172 H10    2pz       -0.0001    0.0000   -0.0001   -0.0000   -0.0005   -0.0011   -0.0000    0.0005    0.0000    0.0037
   173 H11    1s         0.0010   -0.0000    0.0033   -0.0004    0.0038   -0.0057   -0.0003    0.0017   -0.0000    0.0380
   174 H11    2s         0.0008   -0.0000    0.0024   -0.0002    0.0028   -0.0035    0.0002    0.0010   -0.0000    0.0209
   175 H11    2px       -0.0001    0.0000   -0.0003    0.0000   -0.0002    0.0009   -0.0001   -0.0004    0.0000   -0.0046
   176 H11    2py        0.0001   -0.0000    0.0003   -0.0001    0.0003   -0.0015    0.0001    0.0007    0.0000    0.0086
   177 H11    2pz        0.0000    0.0000   -0.0000    0.0000   -0.0000   -0.0000   -0.0000    0.0000   -0.0000    0.0001
   178 H12    1s        -0.0012    0.0001   -0.0011   -0.0002   -0.0007   -0.0010    0.0005   -0.0003    0.0001    0.0329
   179 H12    2s        -0.0007    0.0001   -0.0007   -0.0001   -0.0005   -0.0008    0.0002   -0.0000    0.0001    0.0004
   180 H12    2px        0.0000   -0.0000    0.0002    0.0000   -0.0001    0.0002   -0.0000   -0.0001    0.0000   -0.0039
   181 H12    2py       -0.0001    0.0000   -0.0005   -0.0000   -0.0001    0.0002    0.0000   -0.0001    0.0000    0.0034
   182 H12    2pz       -0.0001   -0.0000   -0.0002   -0.0000   -0.0001   -0.0002    0.0000   -0.0000    0.0000    0.0016
   183 H13    1s         0.0002   -0.0010    0.0003    0.0004    0.0005   -0.0002   -0.0001   -0.0002    0.0000    0.0146
   184 H13    2s         0.0000   -0.0006    0.0001    0.0003    0.0001   -0.0006   -0.0001   -0.0002   -0.0000    0.0037
   185 H13    2px        0.0001    0.0000    0.0001    0.0000    0.0001   -0.0000    0.0000   -0.0000    0.0000   -0.0008
   186 H13    2py       -0.0000    0.0000    0.0000   -0.0001   -0.0000   -0.0003   -0.0000    0.0000    0.0000   -0.0002
   187 H13    2pz        0.0000    0.0001   -0.0000   -0.0000    0.0001    0.0003   -0.0000    0.0001   -0.0000   -0.0013
   188 H14    1s         0.0000    0.0006   -0.0007    0.0001   -0.0007   -0.0006    0.0002    0.0008    0.0002    0.0136
   189 H14    2s         0.0000    0.0003   -0.0003    0.0000   -0.0005   -0.0011    0.0001    0.0004    0.0001    0.0064
   190 H14    2px       -0.0000   -0.0001   -0.0000   -0.0000    0.0000    0.0001    0.0000   -0.0001   -0.0000   -0.0013
   191 H14    2py        0.0001   -0.0001    0.0001    0.0000    0.0001   -0.0001   -0.0000   -0.0002    0.0000   -0.0011
   192 H14    2pz        0.0000    0.0001    0.0001    0.0000    0.0000   -0.0001    0.0000    0.0000    0.0000    0.0011
   193 H15    1s        -0.0004   -0.0006   -0.0008   -0.0003   -0.0013   -0.0026    0.0001    0.0053   -0.0004    0.0361
   194 H15    2s        -0.0002   -0.0003   -0.0005   -0.0003   -0.0008   -0.0018    0.0001    0.0033   -0.0002    0.0213
   195 H15    2px        0.0000   -0.0001   -0.0000   -0.0001   -0.0000   -0.0001   -0.0000    0.0004   -0.0000    0.0009
   196 H15    2py        0.0001   -0.0000    0.0000   -0.0000    0.0001    0.0001   -0.0000    0.0002    0.0000    0.0002
   197 H15    2pz       -0.0000    0.0000    0.0000    0.0004    0.0000    0.0002    0.0000   -0.0005    0.0000   -0.0028
   198 H16    1s         0.0000    0.0002   -0.0010    0.0007   -0.0002    0.0005    0.0000    0.0051    0.0006    0.0287
   199 H16    2s         0.0000    0.0002   -0.0006    0.0005   -0.0002    0.0002    0.0000    0.0032   -0.0001    0.0163
   200 H16    2px       -0.0000   -0.0000    0.0000   -0.0001   -0.0001   -0.0001    0.0000   -0.0003    0.0000   -0.0013
   201 H16    2py       -0.0000    0.0000   -0.0001    0.0001   -0.0001    0.0000   -0.0000    0.0004   -0.0000    0.0017
   202 H16    2pz        0.0000    0.0000    0.0000    0.0001    0.0001    0.0001    0.0000    0.0002    0.0001    0.0015
   203 H17    1s         0.0004    0.0007   -0.0004    0.0002    0.0007    0.0016   -0.0001    0.0033    0.0002    0.0137
   204 H17    2s         0.0003    0.0005   -0.0002    0.0003    0.0005    0.0011   -0.0001    0.0023   -0.0003    0.0084
   205 H17    2px        0.0000    0.0000   -0.0001   -0.0000   -0.0001   -0.0001   -0.0000    0.0000   -0.0000    0.0004
   206 H17    2py        0.0000   -0.0000   -0.0000    0.0001    0.0000    0.0001   -0.0000    0.0003   -0.0001    0.0005
   207 H17    2pz        0.0000    0.0000    0.0000   -0.0000    0.0000   -0.0000   -0.0000   -0.0001    0.0000   -0.0005
   208 H18    1s         0.0002    0.0000   -0.0014    0.0013   -0.0001    0.0028   -0.0003    0.0090   -0.0001    0.0284
   209 H18    2s         0.0001    0.0000   -0.0008    0.0009   -0.0001    0.0017   -0.0002    0.0055   -0.0005    0.0173
   210 H18    2px       -0.0000   -0.0000    0.0000   -0.0001   -0.0001   -0.0002    0.0000   -0.0002    0.0001   -0.0004
   211 H18    2py       -0.0000   -0.0000    0.0004   -0.0004    0.0001   -0.0007    0.0001   -0.0021    0.0001   -0.0062
   212 H18    2pz       -0.0000   -0.0000    0.0001   -0.0001    0.0000   -0.0001    0.0000   -0.0003    0.0001   -0.0011
 
 
      Orbital                11        12        13        14        15        16        17        18        19        20
      Energy            -1.3736   -1.2661   -1.2250   -1.0587   -0.9825   -0.9163   -0.8378   -0.7668   -0.7211   -0.7080
      Occ. No.           2.0000    2.0000    2.0000    2.0000    2.0000    2.0000    2.0000    2.0000    2.0000    2.0000
 
     1 C1     1s         0.0023    0.0111   -0.0032   -0.0147    0.0030   -0.0066    0.0126    0.0008    0.0080   -0.0051
     2 C1     2s        -0.0113   -0.1304   -0.0010    0.2757   -0.0197    0.1017   -0.4179   -0.0948   -0.1745    0.0913
     3 C1     3s         0.0062    0.0014   -0.0181   -0.0091    0.0119   -0.0133    0.0020    0.0054    0.0196   -0.0016
     4 C1     4s         0.0034   -0.0007   -0.0054   -0.0029    0.0058   -0.0040    0.0025    0.0024    0.0045   -0.0028
     5 C1     2px        0.0061   -0.1547   -0.0201   -0.0075   -0.0976    0.0644   -0.0913    0.0434    0.2970    0.0151
     6 C1     3px        0.0018    0.0839   -0.0215   -0.0361    0.0155   -0.0298    0.0148    0.0194   -0.0777   -0.0208
     7 C1     4px        0.0065   -0.0011   -0.0014   -0.0158   -0.0261    0.0034   -0.0186    0.0006    0.0316   -0.0141
     8 C1     2py        0.0427    0.1106   -0.0230   -0.1875   -0.0605    0.0069   -0.0823   -0.0559    0.0238   -0.2612
     9 C1     3py        0.0611    0.0444   -0.0313   -0.0063    0.0181    0.0080   -0.0428    0.0147    0.0759   -0.0435
    10 C1     4py       -0.0001    0.0126   -0.0105   -0.0245   -0.0055   -0.0063   -0.0055    0.0021   -0.0048   -0.0069
    11 C1     2pz        0.0023    0.0269   -0.0084   -0.0209   -0.0053    0.0020   -0.0218   -0.0194    0.0014   -0.0593
    12 C1     3pz        0.0127   -0.0157   -0.0085    0.0062    0.0170    0.0189   -0.0124   -0.0069    0.0121   -0.0133
    13 C1     4pz       -0.0006   -0.0070   -0.0038    0.0008    0.0083    0.0042    0.0024    0.0010   -0.0076   -0.0004
    14 C1     3d2-       0.0020   -0.0133   -0.0014    0.0097    0.0118   -0.0015   -0.0098   -0.0059    0.0133   -0.0080
    15 C1     3d1-      -0.0005    0.0047    0.0012    0.0019   -0.0006   -0.0001   -0.0045   -0.0033   -0.0039   -0.0007
    16 C1     3d0        0.0015    0.0138    0.0012   -0.0132   -0.0022   -0.0057    0.0100   -0.0021    0.0085   -0.0052
    17 C1     3d1+       0.0008    0.0013    0.0005    0.0003    0.0012    0.0012   -0.0035   -0.0041    0.0059   -0.0062
    18 C1     3d2+       0.0001   -0.0260    0.0002   -0.0008   -0.0167    0.0052   -0.0068    0.0006    0.0221   -0.0000
    19 C3     1s        -0.0101    0.0482    0.0061    0.0248   -0.0469    0.0137   -0.0081    0.0036    0.0185   -0.0231
    20 C3     2s         0.0406   -0.0134   -0.0082   -0.2759    0.3083   -0.2169   -0.1706   -0.1064    0.1125   -0.0518
    21 C3     3s        -0.0232    0.1498    0.0257    0.0299   -0.1126    0.0000   -0.0542   -0.0199    0.0883   -0.0976
    22 C3     4s        -0.0030    0.0362    0.0059    0.0092   -0.0294   -0.0003   -0.0122   -0.0063    0.0207   -0.0242
    23 C3     2px        0.0050    0.0169   -0.0028    0.0114    0.0341   -0.0566    0.0673    0.0017   -0.1494    0.1887
    24 C3     3px        0.0210   -0.0741   -0.0303   -0.0146    0.0728    0.0026    0.0364    0.0787   -0.0584    0.0000
    25 C3     4px       -0.0011   -0.0168   -0.0067   -0.0112    0.0270   -0.0051    0.0088    0.0116   -0.0159    0.0141
    26 C3     2py        0.0085    0.1067   -0.0204   -0.0011    0.0463    0.1062   -0.1872    0.0755    0.1347    0.1714
    27 C3     3py        0.0073    0.0137    0.0060   -0.0267   -0.0334    0.0430   -0.0385   -0.0685    0.0237   -0.0823
    28 C3     4py        0.0104    0.0140   -0.0002   -0.0030    0.0015    0.0122   -0.0166   -0.0084    0.0103   -0.0048
    29 C3     2pz       -0.0147   -0.0052   -0.0001   -0.0081   -0.0074    0.0234   -0.0121   -0.1551    0.0706   -0.2475
    30 C3     3pz        0.0178    0.0077    0.0078   -0.0228    0.0220    0.0392   -0.0319   -0.0056    0.0297   -0.0299
    31 C3     4pz       -0.0009    0.0016    0.0045   -0.0074    0.0035   -0.0070   -0.0062   -0.0174    0.0100   -0.0031
    32 C3     3d2-       0.0015   -0.0149    0.0036   -0.0012   -0.0113   -0.0056    0.0036   -0.0147    0.0061   -0.0290
    33 C3     3d1-      -0.0056    0.0044    0.0017    0.0036   -0.0085   -0.0056    0.0040   -0.0124   -0.0005   -0.0024
    34 C3     3d0        0.0017    0.0134    0.0048    0.0037    0.0005    0.0018   -0.0115    0.0013    0.0110    0.0109
    35 C3     3d1+       0.0017   -0.0008   -0.0011   -0.0003    0.0048    0.0049   -0.0024    0.0120    0.0027    0.0066
    36 C3     3d2+       0.0019    0.0142    0.0018    0.0048   -0.0020    0.0013   -0.0145   -0.0028    0.0072    0.0107
    37 C4     1s        -0.0414   -0.0039    0.0052    0.0066   -0.0105   -0.0110    0.0083   -0.0129    0.0006   -0.0020
    38 C4     2s         0.3453   -0.0070   -0.1167   -0.0645    0.2046    0.1321   -0.1052    0.4530   -0.0232    0.0041
    39 C4     3s        -0.0167   -0.0158   -0.0075    0.0221    0.0007   -0.0031    0.0211    0.0123   -0.0028   -0.0186
    40 C4     4s        -0.0009   -0.0056   -0.0011    0.0077   -0.0012   -0.0020    0.0066   -0.0019   -0.0013   -0.0050
    41 C4     2px       -0.0001    0.0076    0.0628   -0.0256    0.0307   -0.0420   -0.0363   -0.0347    0.0481    0.1301
    42 C4     3px       -0.0023    0.0275    0.0057   -0.0013   -0.0297    0.0079    0.0043   -0.0241    0.0244   -0.0371
    43 C4     4px       -0.0001    0.0070    0.0142   -0.0059   -0.0025   -0.0086   -0.0043   -0.0107    0.0084    0.0082
    44 C4     2py       -0.0188    0.0624   -0.1379    0.0290   -0.0737    0.0256    0.0308    0.1200   -0.0438   -0.1994
    45 C4     3py       -0.0092    0.0430   -0.0192   -0.0161   -0.0182   -0.1112   -0.0089    0.0611    0.0154    0.0653
    46 C4     4py       -0.0039    0.0086   -0.0320    0.0015   -0.0090   -0.0041    0.0035    0.0235   -0.0048   -0.0115
    47 C4     2pz       -0.1179   -0.0511   -0.0979   -0.0346    0.1326    0.0776   -0.0085    0.0778    0.0027    0.0829
    48 C4     3pz        0.0436   -0.0023    0.0697    0.0369   -0.0315    0.0157    0.0588   -0.0013   -0.0394    0.0375
    49 C4     4pz       -0.0299   -0.0025   -0.0099   -0.0055    0.0061    0.0139    0.0034   -0.0020    0.0007    0.0031
    50 C4     3d2-      -0.0083    0.0027    0.0159    0.0028   -0.0094   -0.0078    0.0018   -0.0141    0.0058    0.0025
    51 C4     3d1-       0.0171    0.0044   -0.0072    0.0066   -0.0064    0.0173    0.0090   -0.0007   -0.0045   -0.0055
    52 C4     3d0        0.0370    0.0029    0.0228    0.0003    0.0012   -0.0005   -0.0024   -0.0046    0.0072    0.0093
    53 C4     3d1+      -0.0051   -0.0010    0.0045   -0.0032    0.0059   -0.0080   -0.0066    0.0017    0.0009    0.0081
    54 C4     3d2+      -0.0060    0.0004    0.0099    0.0012   -0.0029   -0.0062    0.0016   -0.0114    0.0035    0.0124
    55 C6     1s        -0.0234    0.0209    0.0475   -0.0124   -0.0151   -0.0031    0.0047   -0.0474    0.0147    0.0278
    56 C6     2s        -0.0554    0.1353   -0.0745    0.0356   -0.4055   -0.7867   -0.1409   -0.2063    0.1672    0.2747
    57 C6     3s        -0.0812    0.1015    0.1301   -0.0318   -0.1519   -0.1863   -0.0091   -0.2372    0.0889    0.1595
    58 C6     4s        -0.0173    0.0242    0.0292   -0.0072   -0.0396   -0.0487   -0.0024   -0.0616    0.0216    0.0394
    59 C6     2px       -0.0049    0.0234   -0.0488    0.0107   -0.0340   -0.0157    0.0173   -0.0129   -0.0315   -0.0723
    60 C6     3px       -0.0290    0.0185   -0.0032    0.0113    0.0005   -0.0091    0.0173    0.0617    0.0082   -0.0107
    61 C6     4px       -0.0058    0.0023   -0.0040    0.0055    0.0027    0.0029    0.0094    0.0107   -0.0034   -0.0008
    62 C6     2py       -0.0307    0.0115    0.0688   -0.0081    0.0087   -0.0169   -0.0356    0.0561    0.0491    0.0467
    63 C6     3py        0.0126   -0.0045   -0.0235    0.0020    0.0093    0.0363   -0.0090    0.0246   -0.0186   -0.0564
    64 C6     4py        0.0155   -0.0143   -0.0098   -0.0020    0.0261    0.0378   -0.0062    0.0341   -0.0100   -0.0374
    65 C6     2pz        0.0207   -0.0281   -0.0541    0.0074   -0.0058    0.0200    0.0388   -0.1854   -0.0148    0.1014
    66 C6     3pz        0.0265   -0.0412    0.0359   -0.0217    0.0158    0.0161   -0.0271   -0.0664   -0.0054    0.0156
    67 C6     4pz        0.0101   -0.0052    0.0084   -0.0098    0.0003    0.0108   -0.0057   -0.0426    0.0026    0.0152
    68 C6     3d2-      -0.0051    0.0006    0.0127   -0.0019    0.0015   -0.0038   -0.0020   -0.0009    0.0066    0.0131
    69 C6     3d1-      -0.0057    0.0022    0.0185   -0.0026    0.0004   -0.0063   -0.0059    0.0111    0.0053    0.0024
    70 C6     3d0        0.0031   -0.0045   -0.0015   -0.0006    0.0041    0.0054    0.0011   -0.0041   -0.0026   -0.0013
    71 C6     3d1+       0.0016   -0.0006   -0.0124    0.0027   -0.0016    0.0019    0.0049   -0.0088   -0.0033    0.0010
    72 C6     3d2+       0.0015   -0.0021    0.0029   -0.0014    0.0064    0.0079   -0.0016    0.0071    0.0004   -0.0048
    73 C19    1s         0.0224    0.0064    0.0039   -0.0766   -0.0331    0.0354   -0.0352   -0.0182    0.0037   -0.0180
    74 C19    2s         0.1492   -0.0162    0.0458    0.2537    0.3019    0.0924   -0.0325   -0.1107    0.0846   -0.2117
    75 C19    3s         0.1159    0.0012    0.0219   -0.1965   -0.0432    0.1443   -0.1367   -0.0936    0.0244   -0.0875
    76 C19    4s         0.0331   -0.0078    0.0057   -0.0446   -0.0061    0.0374   -0.0344   -0.0254    0.0036   -0.0182
    77 C19    2px        0.0035    0.0261   -0.0008    0.0367   -0.0467    0.0309   -0.0869    0.0162    0.1380    0.0268
    78 C19    3px       -0.0084   -0.0625   -0.0183    0.0234    0.0401    0.0012    0.0537    0.0426   -0.0755    0.0735
    79 C19    4px       -0.0038   -0.0598   -0.0074    0.0048    0.0243    0.0074    0.0291    0.0177   -0.0493    0.0613
    80 C19    2py       -0.0127   -0.0172   -0.0139    0.0647    0.0015    0.0083   -0.0706    0.0210   -0.2452    0.1858
    81 C19    3py       -0.0149    0.0090   -0.0204   -0.0120   -0.0098   -0.0165    0.0373    0.0468    0.0361   -0.0321
    82 C19    4py        0.0003    0.0077   -0.0019   -0.0177   -0.0158    0.0142   -0.0192    0.0065    0.0003   -0.0152
    83 C19    2pz        0.0063    0.0015    0.0038    0.0032   -0.0015    0.0036   -0.0202   -0.0154   -0.0331    0.0209
    84 C19    3pz        0.0064    0.0100    0.0064   -0.0098   -0.0095   -0.0058   -0.0068   -0.0162    0.0073    0.0060
    85 C19    4pz       -0.0000    0.0027    0.0019   -0.0031   -0.0054   -0.0024   -0.0039   -0.0053    0.0016    0.0017
    86 C19    3d2-      -0.0023   -0.0198   -0.0013    0.0161    0.0073    0.0005   -0.0009    0.0033   -0.0256    0.0309
    87 C19    3d1-      -0.0012    0.0030    0.0003    0.0029   -0.0014   -0.0019   -0.0020   -0.0006   -0.0022    0.0030
    88 C19    3d0       -0.0007   -0.0093   -0.0013   -0.0056    0.0050   -0.0020    0.0110    0.0011   -0.0104    0.0006
    89 C19    3d1+      -0.0016    0.0036   -0.0003    0.0018   -0.0030   -0.0011   -0.0023    0.0015    0.0042   -0.0000
    90 C19    3d2+      -0.0002   -0.0073   -0.0011   -0.0066   -0.0008   -0.0006    0.0073    0.0025    0.0080   -0.0008
    91 N2     1s        -0.0009    0.0385   -0.0012   -0.0033    0.0061    0.0020   -0.0054   -0.0028    0.0009   -0.0038
    92 N2     2s         0.0460   -0.6297    0.0105   -0.0583   -0.1770    0.0563    0.1513    0.0135    0.0192   -0.1237
    93 N2     3s         0.0008    0.0615   -0.0060   -0.0078    0.0082    0.0079   -0.0115   -0.0032    0.0028   -0.0101
    94 N2     4s        -0.0004    0.0188   -0.0020    0.0011    0.0059    0.0009   -0.0033    0.0005   -0.0023    0.0015
    95 N2     2px        0.0066    0.0497   -0.0061   -0.1328    0.0636   -0.1013    0.3207    0.0083   -0.2682   -0.1095
    96 N2     3px        0.0052    0.0305   -0.0006    0.0107   -0.0704    0.0799   -0.1398   -0.0351    0.0997   -0.0442
    97 N2     4px        0.0039    0.0141    0.0021   -0.0104   -0.0195    0.0074   -0.0122   -0.0056    0.0202   -0.0142
    98 N2     2py       -0.0164   -0.0771   -0.0130   -0.0850    0.1676   -0.1184   -0.0956   -0.1789    0.0063   -0.2297
    99 N2     3py       -0.0395   -0.0931   -0.0057    0.0668   -0.0017   -0.0148    0.1107    0.0771   -0.1395    0.2369
   100 N2     4py       -0.0060   -0.0134   -0.0013    0.0058    0.0093   -0.0037    0.0074    0.0051   -0.0193    0.0377
   101 N2     2pz       -0.0108    0.0092    0.0025    0.0156    0.0037   -0.0107   -0.0619   -0.0700    0.0581   -0.0905
   102 N2     3pz       -0.0141   -0.0285    0.0032    0.0220    0.0025   -0.0189    0.0487    0.0378   -0.0421    0.0559
   103 N2     4pz       -0.0035    0.0004   -0.0001    0.0049    0.0013   -0.0033    0.0028    0.0060   -0.0048    0.0076
   104 N2     3d2-       0.0007   -0.0081    0.0001   -0.0002    0.0098   -0.0070   -0.0023   -0.0081    0.0025   -0.0048
   105 N2     3d1-      -0.0001   -0.0006    0.0010    0.0009   -0.0060    0.0022    0.0053    0.0009   -0.0011    0.0021
   106 N2     3d0       -0.0007    0.0152   -0.0002    0.0020    0.0031   -0.0002    0.0031    0.0025   -0.0046    0.0037
   107 N2     3d1+      -0.0003    0.0022    0.0001    0.0024    0.0011   -0.0001   -0.0044   -0.0024    0.0038   -0.0000
   108 N2     3d2+      -0.0004   -0.0056    0.0003    0.0092   -0.0087    0.0084   -0.0188   -0.0023    0.0104    0.0062
   109 N5     1s        -0.0174    0.0000    0.0404   -0.0027    0.0011   -0.0001   -0.0034    0.0048    0.0013   -0.0090
   110 N5     2s         0.1412    0.0248   -0.5903    0.0464   -0.0222    0.2321    0.1092   -0.1401   -0.0521   -0.1005
   111 N5     3s        -0.0359   -0.0097    0.0674   -0.0062    0.0212    0.0397    0.0009    0.0234   -0.0038   -0.0445
   112 N5     4s        -0.0075   -0.0046    0.0225   -0.0025    0.0092    0.0111   -0.0004    0.0101   -0.0010   -0.0110
   113 N5     2px        0.0142   -0.0330    0.0162   -0.0243    0.0758    0.1012   -0.0331    0.1385   -0.0313   -0.1044
   114 N5     3px        0.0157   -0.0463   -0.0009    0.0015   -0.0002   -0.0354    0.0035   -0.0959   -0.0105    0.0463
   115 N5     4px        0.0055   -0.0033    0.0059   -0.0009    0.0003   -0.0050   -0.0029   -0.0103    0.0004    0.0048
   116 N5     2py       -0.0089    0.0029    0.0173    0.0397   -0.0894   -0.1739    0.0106   -0.2288    0.0159    0.1464
   117 N5     3py        0.0262    0.0187   -0.0136    0.0016    0.0176    0.0586   -0.0154    0.0442    0.0073   -0.0034
   118 N5     4py       -0.0053    0.0031   -0.0034    0.0025   -0.0066   -0.0056   -0.0022   -0.0035    0.0032    0.0045
   119 N5     2pz       -0.0610    0.0449   -0.0017   -0.0192    0.0251    0.0883    0.0624   -0.1897    0.1181    0.1874
   120 N5     3pz       -0.0374    0.0661   -0.0410    0.0065   -0.0678   -0.1189   -0.0085    0.0870    0.0157   -0.0619
   121 N5     4pz       -0.0016    0.0025   -0.0146    0.0033   -0.0012   -0.0063    0.0077    0.0041   -0.0003    0.0016
   122 N5     3d2-      -0.0016   -0.0019    0.0140   -0.0002    0.0035    0.0043    0.0020   -0.0006    0.0005   -0.0005
   123 N5     3d1-       0.0057   -0.0002    0.0012   -0.0008    0.0052    0.0141    0.0002    0.0165   -0.0041   -0.0126
   124 N5     3d0       -0.0003    0.0029    0.0009    0.0018   -0.0059   -0.0014    0.0036   -0.0151    0.0029    0.0051
   125 N5     3d1+      -0.0023   -0.0022   -0.0003    0.0018   -0.0040   -0.0143   -0.0013   -0.0020   -0.0024    0.0030
   126 N5     3d2+      -0.0016   -0.0007    0.0091    0.0005   -0.0021   -0.0052    0.0012   -0.0102    0.0016    0.0074
   127 O7     1s        -0.0018   -0.0070   -0.0006   -0.0023    0.0013   -0.0026    0.0179    0.0085    0.0189    0.0098
   128 O7     2s        -0.0795    0.2568   -0.0051   -0.1931   -0.0154   -0.0677    0.3809    0.1552    0.3405    0.1098
[...]
AIVX     1  Mu1.0001  In1.025 Se1.040               0.16291456      0.00191715     -0.00381859     -0.00000732
AIVX     1  Mu1.0001  In1.026 Se1.040               0.17102759     -0.00088772      0.00184687     -0.00000164
AIVX     1  Mu1.0001  In1.027 Se1.040               0.13181528     -0.00114559      0.00209309     -0.00000240
AIVX     1  Mu1.0001  In1.028 Se1.040               0.10473323     -0.00022376      0.00040493     -0.00000009
AIVX     1  Mu1.0001  In1.029 Se1.040               0.14000311     -0.00319016      0.00660624     -0.00002107
AIVX     1  Mu1.0001  In1.021 Se1.041               0.27647082      0.00063526     -0.00007260     -0.00000005
AIVX     1  Mu1.0001  In1.022 Se1.041               0.26362607      0.00133297     -0.00289427     -0.00000386
AIVX     1  Mu1.0001  In1.023 Se1.041               0.22622810     -0.00098942      0.00152440     -0.00000151
AIVX     1  Mu1.0001  In1.024 Se1.041               0.24210974     -0.00061887      0.00136984     -0.00000085
AIVX     1  Mu1.0001  In1.025 Se1.041               0.17849084     -0.00028471      0.00006423     -0.00000002
AIVX     1  Mu1.0001  In1.026 Se1.041               0.18660387      0.00063955     -0.00087590     -0.00000056
AIVX     1  Mu1.0001  In1.027 Se1.041               0.14739156     -0.00081232      0.00089634     -0.00000073
AIVX     1  Mu1.0001  In1.028 Se1.041               0.12030951     -0.00044484      0.00088745     -0.00000039
AIVX     1  Mu1.0001  In1.029 Se1.041               0.15557939     -0.00061773      0.00164487     -0.00000102
AIVX     1  Mu1.0001  In1.021 Se1.042               0.28878949      0.00034106     -0.00077401     -0.00000026
AIVX     1  Mu1.0001  In1.022 Se1.042               0.27594474     -0.00297426      0.00576131     -0.00001714
AIVX     1  Mu1.0001  In1.023 Se1.042               0.23854678     -0.00204425      0.00342943     -0.00000701
AIVX     1  Mu1.0001  In1.024 Se1.042               0.25442842      0.00101816     -0.00205804     -0.00000210
AIVX     1  Mu1.0001  In1.025 Se1.042               0.19080952     -0.00049298      0.00102347     -0.00000050
AIVX     1  Mu1.0001  In1.026 Se1.042               0.19892254      0.00072171     -0.00144546     -0.00000104
AIVX     1  Mu1.0001  In1.027 Se1.042               0.15971023      0.00024685     -0.00008745     -0.00000002
AIVX     1  Mu1.0001  In1.028 Se1.042               0.13262819      0.00040037     -0.00071179     -0.00000028
AIVX     1  Mu1.0001  In1.029 Se1.042               0.16789806      0.00034397     -0.00111824     -0.00000038
AIVX     1  Mu1.0001  In1.023 Se1.043               0.26498087     -0.00228941      0.00377542     -0.00000864
AIVX     1  Mu1.0001  In1.024 Se1.043               0.28086252      0.00057666     -0.00134747     -0.00000078
AIVX     1  Mu1.0001  In1.025 Se1.043               0.21724361     -0.00195346      0.00384981     -0.00000752
AIVX     1  Mu1.0001  In1.026 Se1.043               0.22535664      0.00013699     -0.00025388     -0.00000003
AIVX     1  Mu1.0001  In1.027 Se1.043               0.18614433     -0.00007750      0.00057990     -0.00000004
AIVX     1  Mu1.0001  In1.028 Se1.043               0.15906228      0.00013503     -0.00001313     -0.00000000
AIVX     1  Mu1.0001  In1.029 Se1.043               0.19433216     -0.00141102      0.00205536     -0.00000290
AIVX     1  Mu1.0001  In1.022 Se1.044               0.29843273     -0.00139661      0.00230880     -0.00000322
AIVX     1  Mu1.0001  In1.023 Se1.044               0.26103476      0.00021511     -0.00025038     -0.00000005
AIVX     1  Mu1.0001  In1.024 Se1.044               0.27691640     -0.00042000      0.00055187     -0.00000023
AIVX     1  Mu1.0001  In1.025 Se1.044               0.21329750      0.00152810     -0.00259284     -0.00000396
AIVX     1  Mu1.0001  In1.026 Se1.044               0.22141053     -0.00127712      0.00202692     -0.00000259
AIVX     1  Mu1.0001  In1.027 Se1.044               0.18219822      0.00075089     -0.00122732     -0.00000092
AIVX     1  Mu1.0001  In1.028 Se1.044               0.15511617      0.00086421     -0.00171408     -0.00000148
AIVX     1  Mu1.0001  In1.029 Se1.044               0.19038605      0.00183490     -0.00339953     -0.00000624
AIVX     1  Mu1.0001  In1.023 Se1.045               0.29127380      0.00085416     -0.00143576     -0.00000123
AIVX     1  Mu1.0001  In1.025 Se1.045               0.24353655      0.00198334     -0.00349677     -0.00000694
AIVX     1  Mu1.0001  In1.026 Se1.045               0.25164957     -0.00025898      0.00049482     -0.00000013
AIVX     1  Mu1.0001  In1.027 Se1.045               0.21243726      0.00177164     -0.00333664     -0.00000591
AIVX     1  Mu1.0001  In1.028 Se1.045               0.18535521     -0.00072103      0.00118925     -0.00000086
AIVX     1  Mu1.0001  In1.029 Se1.045               0.22062509      0.00347932     -0.00591431     -0.00002058
AIVX     1  Mu1.0001  In1.025 Se1.046               0.25532711     -0.00067140      0.00117998     -0.00000079
AIVX     1  Mu1.0001  In1.026 Se1.046               0.26344014      0.00062416     -0.00117056     -0.00000073
AIVX     1  Mu1.0001  In1.027 Se1.046               0.22422782      0.00077319     -0.00106008     -0.00000082
AIVX     1  Mu1.0001  In1.028 Se1.046               0.19714578     -0.00010677      0.00011204     -0.00000001
AIVX     1  Mu1.0001  In1.029 Se1.046               0.23241565      0.00247025     -0.00430770     -0.00001064
AIVX     1  Mu1.0001  In1.025 Se1.047               0.26515782      0.00044972     -0.00109239     -0.00000049
AIVX     1  Mu1.0001  In1.026 Se1.047               0.27327085     -0.00153889      0.00250132     -0.00000385
AIVX     1  Mu1.0001  In1.027 Se1.047               0.23405853     -0.00190873      0.00286608     -0.00000547
AIVX     1  Mu1.0001  In1.028 Se1.047               0.20697649      0.00128514     -0.00239108     -0.00000307
AIVX     1  Mu1.0001  In1.029 Se1.047               0.24224637     -0.00147994      0.00293850     -0.00000435
AIVX     1  Mu1.0001  In1.025 Se1.048               0.27966215     -0.00106643      0.00149603     -0.00000160
AIVX     1  Mu1.0001  In1.026 Se1.048               0.28777518     -0.00094643      0.00139708     -0.00000132
AIVX     1  Mu1.0001  In1.027 Se1.048               0.24856287     -0.00044592      0.00021549     -0.00000010
AIVX     1  Mu1.0001  In1.028 Se1.048               0.22148082     -0.00097492      0.00160826     -0.00000157
AIVX     1  Mu1.0001  In1.029 Se1.048               0.25675070      0.00188307     -0.00259475     -0.00000489
AIVX     1  Mu1.0001  In1.027 Se1.049               0.26950266     -0.00127518      0.00190329     -0.00000243
AIVX     1  Mu1.0001  In1.028 Se1.049               0.24242061     -0.00031001      0.00050773     -0.00000016
AIVX     1  Mu1.0001  In1.029 Se1.049               0.27769049     -0.00052718      0.00075201     -0.00000040
AIVX     1  Mu1.0001  In1.027 Se1.050               0.28752363      0.00067988     -0.00135384     -0.00000092
AIVX     1  Mu1.0001  In1.028 Se1.050               0.26044158      0.00094323     -0.00177127     -0.00000167
AIVX     1  Mu1.0001  In1.029 Se1.050               0.29571146      0.00084806     -0.00100677     -0.00000085
AIVX     1  Mu1.0001  In1.028 Se1.051               0.27657057      0.00004980      0.00004212      0.00000000
AIVX     1  Mu1.0001  In1.028 Se1.052               0.28555452      0.00195711     -0.00310435     -0.00000608
--
 
   (Skipping property calculation,
    use PROP keyword to activate)
--
 
  Total CASPT2 energies:
::    CASPT2 Root  1     Total energy:   -455.00790303
::    CASPT2 Root  2     Total energy:   -454.79363994
::    CASPT2 Root  3     Total energy:   -454.80679686
::    CASPT2 Root  4     Total energy:   -454.76308746
::    CASPT2 Root  5     Total energy:   -454.75922643
::    CASPT2 Root  6     Total energy:   -454.71454713
::    CASPT2 Root  7     Total energy:   -454.73107120
 
++ Multi-State CASPT2 section:
********************************************************************************
  MULTI-STATE CASPT2 SECTION
--------------------------------------------------------------------------------
 
  Output diagonal energies have been shifted. Add   -455.000000000000     
 
  Effective Hamiltonian matrix (Symmetric):
 
                1               2               3               4               5
   1        -0.00790303
   2        -0.00022450      0.20636006
   3         0.00137178     -0.00022850      0.19320314
   4        -0.00433033     -0.00213474      0.00374696      0.23691254
   5         0.02155579     -0.00311653      0.00157088      0.00640945      0.24077357
   6         0.00806758     -0.00014314     -0.00274243      0.00198765     -0.00760718
   7         0.01523394     -0.00156322      0.00006754     -0.00716581     -0.02083184
 
                6               7
   6         0.28545287
   7        -0.01317816      0.26892880
 
       Total MS-CASPT2 energies:
::    MS-CASPT2 Root  1     Total energy:   -455.01118875
::    MS-CASPT2 Root  2     Total energy:   -454.80721754
::    MS-CASPT2 Root  3     Total energy:   -454.79424495
::    MS-CASPT2 Root  4     Total energy:   -454.77037285
::    MS-CASPT2 Root  5     Total energy:   -454.76375390
::    MS-CASPT2 Root  6     Total energy:   -454.72327668
::    MS-CASPT2 Root  7     Total energy:   -454.70621741
 
       Eigenvectors:
           -0.99316694      0.00602753      0.01501456      0.11197440      0.02530525
            0.00057932     -0.00326543      0.98891504     -0.10536409     -0.10376936
            0.00671083      0.99570946      0.01134728     -0.01010861      0.08255344
           -0.01826618     -0.08362886      0.05977590     -0.34957036      0.90741522
            0.09148722     -0.02543265      0.11329479      0.81538620      0.19213936
            0.03228992      0.02688915      0.02145409      0.19802927      0.08379627
            0.06186964     -0.01233031      0.06945285      0.38728320      0.33828207
 
            0.01338021      0.00007671
            0.01276223      0.00187045
           -0.03459758     -0.01657163
           -0.17658537      0.11097383
           -0.51263418      0.11654001
            0.54020731      0.81222701
            0.64238694     -0.56045731
 
--
 
  THE ORIGINAL CI ARRAYS ARE NOW MIXED AS LINEAR
  COMBINATIONS, GIVEN BY THE EIGENVECTORS.
  A NEW JOBIPH FILE NAMED 'JOBMIX' IS PREPARED.
********************************************************************************
 
++ Mixed CI coefficients:
  The CI coefficients for the MIXED state nr.   1
--------------------------------------------------------------------------------
 CI COEFFICIENTS LARGER THAN  0.50D-01
  Occupation of active orbitals, and spin coupling
  of open shells. (u,d: Spin up or down).
  SGUGA info is (Midvert:IsyUp:UpperWalk/LowerWalk)
        Conf  SGUGA info        Occupation    Coefficient         Weight
           1  ( 1:1:   1/   1)   22222200       -0.970854       0.942557
           7  ( 1:1:   7/   1)   22222u0d       -0.096343       0.009282
          15  ( 1:1:  15/   1)   22222002        0.077592       0.006021
          61  ( 2:1:   1/   3)   2u2222d0       -0.083015       0.006892
         141  ( 3:1:   1/   5)   22022220        0.096954       0.009400
         171  ( 3:1:   1/   8)   20222220        0.083851       0.007031
         195  ( 3:1:   5/  10)   02222202        0.089469       0.008005
 
  The CI coefficients for the MIXED state nr.   2
--------------------------------------------------------------------------------
 CI COEFFICIENTS LARGER THAN  0.50D-01
  Occupation of active orbitals, and spin coupling
  of open shells. (u,d: Spin up or down).
  SGUGA info is (Midvert:IsyUp:UpperWalk/LowerWalk)
        Conf  SGUGA info        Occupation    Coefficient         Weight
           8  ( 1:1:   8/   1)   2222u20d        0.864110       0.746687
          16  ( 1:1:  16/   1)   2222ud02       -0.127421       0.016236
          44  ( 2:1:   4/   2)   22u2220d       -0.364126       0.132588
          46  ( 2:1:   6/   2)   22u2d2ud       -0.056140       0.003152
          48  ( 2:1:   8/   2)   22u2u2dd        0.100438       0.010088
          68  ( 2:1:   8/   3)   2u22u2dd       -0.063589       0.004044
          84  ( 2:1:   4/   4)   u222220d        0.139933       0.019581
          94  ( 2:1:  14/   4)   u222d202       -0.164595       0.027091
         144  ( 3:1:   4/   5)   2202u22d        0.076710       0.005884
         154  ( 3:1:   4/   6)   2ud2u22d       -0.064942       0.004217
         174  ( 3:1:   4/   8)   2022u22d        0.086711       0.007519
 
  The CI coefficients for the MIXED state nr.   3
--------------------------------------------------------------------------------
 CI COEFFICIENTS LARGER THAN  0.50D-01
  Occupation of active orbitals, and spin coupling
  of open shells. (u,d: Spin up or down).
  SGUGA info is (Midvert:IsyUp:UpperWalk/LowerWalk)
        Conf  SGUGA info        Occupation    Coefficient         Weight
          21  ( 2:1:   1/   1)   222u22d0        0.928468       0.862052
          23  ( 2:1:   3/   1)   222ud220        0.079405       0.006305
          24  ( 2:1:   4/   1)   222u220d       -0.111397       0.012409
          27  ( 2:1:   7/   1)   222u2udd       -0.077865       0.006063
          35  ( 2:1:  15/   1)   222u20d2        0.078384       0.006144
          41  ( 2:1:   1/   2)   22u222d0       -0.197691       0.039082
         111  ( 3:1:   1/   2)   22ud2220        0.102262       0.010457
         121  ( 3:1:   1/   3)   2u2d2220       -0.174474       0.030441
         270  ( 5:1:   2/   9)   022u22d2       -0.081567       0.006653
 
  The CI coefficients for the MIXED state nr.   4
--------------------------------------------------------------------------------
 CI COEFFICIENTS LARGER THAN  0.50D-01
  Occupation of active orbitals, and spin coupling
  of open shells. (u,d: Spin up or down).
  SGUGA info is (Midvert:IsyUp:UpperWalk/LowerWalk)
        Conf  SGUGA info        Occupation    Coefficient         Weight
           7  ( 1:1:   7/   1)   22222u0d       -0.086270       0.007443
          21  ( 2:1:   1/   1)   222u22d0       -0.149396       0.022319
          24  ( 2:1:   4/   1)   222u220d        0.078942       0.006232
          41  ( 2:1:   1/   2)   22u222d0       -0.757133       0.573250
          44  ( 2:1:   4/   2)   22u2220d        0.064748       0.004192
          47  ( 2:1:   7/   2)   22u22udd        0.067504       0.004557
          55  ( 2:1:  15/   2)   22u220d2       -0.066218       0.004385
          84  ( 2:1:   4/   4)   u222220d        0.510751       0.260867
          93  ( 2:1:  13/   4)   u2222d02       -0.113321       0.012842
         141  ( 3:1:   1/   5)   22022220        0.154158       0.023765
         151  ( 3:1:   1/   6)   2ud22220        0.179914       0.032369
         171  ( 3:1:   1/   8)   20222220       -0.096609       0.009333
         195  ( 3:1:   5/  10)   02222202        0.052167       0.002721
         302  ( 5:1:   2/  17)   02u222d2        0.065493       0.004289
         309  ( 5:1:   1/  19)   u022222d       -0.051079       0.002609
 
  The CI coefficients for the MIXED state nr.   5
--------------------------------------------------------------------------------
 CI COEFFICIENTS LARGER THAN  0.50D-01
  Occupation of active orbitals, and spin coupling
  of open shells. (u,d: Spin up or down).
  SGUGA info is (Midvert:IsyUp:UpperWalk/LowerWalk)
        Conf  SGUGA info        Occupation    Coefficient         Weight
           8  ( 1:1:   8/   1)   2222u20d        0.195218       0.038110
          15  ( 1:1:  15/   1)   22222002        0.054735       0.002996
          21  ( 2:1:   1/   1)   222u22d0       -0.158350       0.025075
          24  ( 2:1:   4/   1)   222u220d       -0.193053       0.037270
          41  ( 2:1:   1/   2)   22u222d0       -0.463201       0.214555
          44  ( 2:1:   4/   2)   22u2220d        0.163819       0.026837
          84  ( 2:1:   4/   4)   u222220d       -0.736175       0.541954
          93  ( 2:1:  13/   4)   u2222d02        0.182070       0.033149
         141  ( 3:1:   1/   5)   22022220        0.102783       0.010564
         151  ( 3:1:   1/   6)   2ud22220        0.110200       0.012144
         171  ( 3:1:   1/   8)   20222220       -0.057720       0.003332
         225  ( 4:1:   1/   5)   u2u222dd        0.070793       0.005012
         231  ( 4:1:   1/   6)   uu2222dd       -0.050399       0.002540
         289  ( 5:1:   1/  14)   u202222d        0.063422       0.004022
         309  ( 5:1:   1/  19)   u022222d        0.069286       0.004801
 
  The CI coefficients for the MIXED state nr.   6
--------------------------------------------------------------------------------
 CI COEFFICIENTS LARGER THAN  0.50D-01
  Occupation of active orbitals, and spin coupling
  of open shells. (u,d: Spin up or down).
  SGUGA info is (Midvert:IsyUp:UpperWalk/LowerWalk)
        Conf  SGUGA info        Occupation    Coefficient         Weight
           8  ( 1:1:   8/   1)   2222u20d       -0.273546       0.074828
          24  ( 2:1:   4/   1)   222u220d        0.320109       0.102470
          41  ( 2:1:   1/   2)   22u222d0       -0.170494       0.029068
          44  ( 2:1:   4/   2)   22u2220d       -0.792643       0.628283
          61  ( 2:1:   1/   3)   2u2222d0       -0.054127       0.002930
          84  ( 2:1:   4/   4)   u222220d       -0.226705       0.051395
         112  ( 3:1:   2/   2)   22ud22ud        0.081122       0.006581
         141  ( 3:1:   1/   5)   22022220        0.056791       0.003225
         152  ( 3:1:   2/   6)   2ud222ud        0.137199       0.018824
         165  ( 3:1:   5/   7)   u2d22202       -0.058323       0.003402
         201  ( 4:1:   1/   1)   22uu22dd       -0.116806       0.013644
         219  ( 4:1:   1/   4)   2uu222dd        0.172411       0.029726
         293  ( 5:1:   1/  15)   20u2222d       -0.112459       0.012647
 
  The CI coefficients for the MIXED state nr.   7
--------------------------------------------------------------------------------
 CI COEFFICIENTS LARGER THAN  0.50D-01
  Occupation of active orbitals, and spin coupling
  of open shells. (u,d: Spin up or down).
  SGUGA info is (Midvert:IsyUp:UpperWalk/LowerWalk)
        Conf  SGUGA info        Occupation    Coefficient         Weight
           8  ( 1:1:   8/   1)   2222u20d       -0.181671       0.033004
          21  ( 2:1:   1/   1)   222u22d0       -0.078277       0.006127
          24  ( 2:1:   4/   1)   222u220d       -0.811893       0.659171
          26  ( 2:1:   6/   1)   222ud2ud        0.084126       0.007077
          28  ( 2:1:   8/   1)   222uu2dd        0.088477       0.007828
          44  ( 2:1:   4/   2)   22u2220d       -0.338028       0.114263
          84  ( 2:1:   4/   4)   u222220d        0.119465       0.014272
          93  ( 2:1:  13/   4)   u2222d02       -0.052227       0.002728
         112  ( 3:1:   2/   2)   22ud22ud       -0.197113       0.038853
         152  ( 3:1:   2/   6)   2ud222ud        0.064359       0.004142
         201  ( 4:1:   1/   1)   22uu22dd        0.263366       0.069362
         219  ( 4:1:   1/   4)   2uu222dd        0.085131       0.007247
         253  ( 5:1:   1/   5)   2udu222d       -0.071043       0.005047
         261  ( 5:1:   1/   7)   202u222d       -0.066986       0.004487
         293  ( 5:1:   1/  15)   20u2222d       -0.051262       0.002628
 
--
 
--- Stop Module: caspt2 at Tue Jun 10 21:15:17 2025 /rc=_RC_ALL_IS_WELL_ ---
*** files: xmldump
    saved to directory /home/pcaah4/diamide_project
--- Module caspt2 spent 6 minutes 53 seconds ---

.##################.
.# Happy landing! #.
.##################.

    Timing: Wall=861.21 User=750.47 System=92.08
******************************************************
*** WorkDir at /srv/COMMUNAL_SCRATCH/12467 cleaned ***
******************************************************
