   This run of MOLCAS is using the pymolcas driver

                             OPE
                             OPE          NMOL  CASOP  ENMOLC A   SO
                 OPE        NMOLC        AS  OP EN  MO LC     AS  OP
                OPENM       OL CA        SO  PE NM  OL CA     SOP EN
                OP EN      MO   LC       AS  OP ENMOL  CASO   PENMOL
                OP  EN     MO   LC       AS  OP EN     MO     LC ASO
               OP   E  NMOL  C  AS       OP  EN MO     LC     AS  OP
               OP  E   NMO   LC AS        OPEN  MO     LCASOP EN   M
               O  PEN   MO  LCA  SO
            OPE   NMO   L   CAS    OP
        OPENMOL  CASOP     ENMOL   CASOPE
     OPENMOLCA   SOPENMOLCASOPEN   MOLCASOPE
    OPENMOLCAS   OP           EN   MOL    CAS
    OPENMOLCAS       OP  ENM        O     LCA
    OPENMOLCAS    OPEN  MOLCASO     P  E  NMO
    OPENMOLCAS     OP               E  N  MOL
    OPENMOLCA   SO           PENM   O  L  CAS    OPEN    MO    LCAS
    OPENMOLCA   SOP           ENM   O  L  CAS   OP  EN  MOLC  AS   O
    OPENMOLCA   SOPE           NM      O  LCA   S      OP  EN MO
    OPENMOLC                AS         O  PEN   M      OL  CA  SOPE
    OPENMO        LCASOPE  NMOL        C  ASO   P      ENMOLC     AS
    OPE     NMO      LCA  SO     P     E   NM   OL  CA SO  PE N   MO
          OPENMOLCA            SOPE   NMO        LCAS  O    P  ENMO
     OPENMOLCASOPENMOLCASOPENMOLCASOPENMOLCA
        OPENMOLCASOPENMOLCASOPENMOLCASOPE
            OPENMOLCASOPENMOLCASOPENM
               OPENMOLCASOPENMOLCA        version: v23.06
                   OPENMOLCASO
                       OPE                tag:

 OpenMolcas is free software; you can redistribute it and/or modify it
 under the terms of the GNU Lesser General Public License version 2.1.
 OpenMolcas is distributed in the hope that it will be useful, but it
 is provided "as is" and without any express or implied warranties.
 For more details see the full text of the license in the file
 LICENSE or in <http://www.gnu.org/licenses/>.

                 Copyright (C) The OpenMolcas Authors
           For the author list and the recommended citation,
                   consult the file CONTRIBUTORS.md

           *************************************************
           * pymolcas version py2.24                       *
           *   build 4567b286dd94b1984b333a4ddf893180      *
           *   (after the EMIL interpreter by V. Veryazov) *
           *************************************************

configuration info
------------------
Host name: loginchem01.nottingham.ac.uk (Linux)
C Compiler ID: Intel
C flags: -std=gnu99 -gcc-sys -qopenmp
Fortran Compiler ID: Intel
Fortran flags: -fpp -i8 -heap-arrays -qopenmp
Definitions: _MOLCAS_;_I8_;_LINUX_
Parallel: OFF (GA=OFF)


   ----------------------------------------------------------------------------------------------------
  |
  |              Project: orca_geometry_optimisation_315_330_BP86_def2-SVP_def2J_scf_cas1_ras12i11_cas8
  |       Submitted from: /home/pcaah4/diamide_project
  |         Scratch area: /srv/COMMUNAL_SCRATCH/12476
  |      Save outputs to: /home/pcaah4/diamide_project
  |               Molcas: /software/chemistry/openmolcas/openmolcas-23.06-openmp
  |
  | Scratch area is empty
  |
  |       MOLCAS_DRIVER = /software/chemistry/openmolcas/openmolcas-23.06-openmp/sbin/pymolcas
  | MOLCAS_KEEP_WORKDIR = NO
  |       MOLCAS_NPROCS = 1
  |       MOLCAS_SOURCE = /software/chemistry/openmolcas/openmolcas-23.06-openmp
  |    MOLCAS_STRUCTURE = 0
  |
   ----------------------------------------------------------------------------------------------------

++ ---------   Input file   ---------

&SEWARD
TITLE
orca_geometry_optimisation_315_330_BP86_def2-SVP_def2J_scf_cas1_ras12i11
MULTIPOLES
2
SDIPOLE
ANGMOM
0 0 0
BASIS SET
C.ANO-S...4S3P1D.
C1           -0.088486   -0.163018    0.105145 /Angstrom
C3            2.034575    1.137004   -0.189485 /Angstrom
C4            1.513037    2.181287   -1.203537 /Angstrom
C6            0.196889    2.559189   -3.253516 /Angstrom
C19          -0.661900   -1.570497    0.259540 /Angstrom
END OF BASIS
BASIS SET
N.ANO-S...4S3P1D.
N2            1.285972   -0.102213   -0.017399 /Angstrom
N5            0.826201    1.688112   -2.279431 /Angstrom
END OF BASIS
BASIS SET
O.ANO-S...4S3P1D.
O7           -0.795363    0.841265    0.119385 /Angstrom
O8            1.810620    3.363524   -1.054705 /Angstrom
END OF BASIS
BASIS SET
H.ANO-S...2S1P.
H9           -1.524737   -1.678655   -0.425918 /Angstrom
H10          -1.055499   -1.681521    1.290329 /Angstrom
H11           0.062770   -2.386115    0.066279 /Angstrom
H12           1.808022   -0.979092   -0.026588 /Angstrom
H13           2.112918    1.700772    0.764946 /Angstrom
H14           3.068839    0.871721   -0.489937 /Angstrom
H15           0.530082    0.712591   -2.234792 /Angstrom
H16          -0.907283    2.588115   -3.127266 /Angstrom
H17           0.596339    3.577889   -3.089777 /Angstrom
H18           0.429327    2.240548   -4.291301 /Angstrom
END OF BASIS
END OF INPUT

&RASSCF
TITLE
orca_geometry_optimisation_315_330_BP86_def2-SVP_def2J_scf_cas1_ras12i11
LUMORB
SPIN
1
SYMMETRY
1
NACTEL
12  0  0
INACTIVE
29
DELETED  ! delete Rydberg orbitals from an initial CAS(12,11) if done
3
FROZEN
0
RAS2
8
ITERATIONS
64 25
CIROOT
7 7
1 2 3 4 5 6 7
1 1 1 1 1 1 1
LEVSHFT
0.3
CIMX
20
FILEorb = /home/pcaah4/diamide_project/cas/ras12i11/ras_orb/orca_geometry_optimisation_315_330_BP86_def2-SVP_def2J_scf_cas1_ras12i11.RasOrb
ALTEr
0
END OF INPUT

&RASSI
NROF JOBIPH
    1 7
    1 2 3 5 4 6 7
TOFILE
TRDI
TDMN
1.0D-6
END OF INPUT

&CASPT2
TITLE
orca_geometry_optimisation_315_330_BP86_def2-SVP_def2J_scf_cas1_ras12i11
MULTISTATE
7 1 2 3 4 5 6 7
SHIFT
0.35
MAXITER
50
END OF INPUT

-- ----------------------------------

--- Start Module: seward at Tue Jun 10 21:27:41 2025 ---
 
()()()()()()()()()()()()()()()()()()()()()()()()()()()()()()()()()()()()()()()()()()()()()()()()()()

                                              &SEWARD

                                   only a single process is used
                       available to each process: 2.0 GB of memory, 1 thread
                                            pid: 3140633
()()()()()()()()()()()()()()()()()()()()()()()()()()()()()()()()()()()()()()()()()()()()()()()()()()
 
               SEWARD will generate:
                  Multipole Moment integrals up to order  2
                  Kinetic Energy integrals
                  Nuclear Attraction integrals (point charge)
                  One-Electron Hamiltonian integrals
                  Velocity integrals
                  Orbital angular momentum around ( 0.0000  0.0000  0.0000 )
                  Velocity quadrupole around ( 1.2626  2.0949 -1.6004 )
                  Two-Electron Repulsion integrals
 
 Title:
            orca_geometry_optimisation_315_330_BP86_def2-SVP_def2J_scf_cas1_ras12i11    
 
 
                   Integrals are discarded if absolute value <: 0.10E-13
                   Integral cutoff threshold is set to       <: 0.10E-15
 
++    Symmetry information:
      ---------------------
 
                    Character Table for C1 
 
                             E  
                    a        1  x, y, xy, Rz, z, xz, Ry, yz, Rx, I
--
 
 
++    Basis set information:
      ----------------------
 
 
      Basis set label: C.ANO-S...4S3P1D......
 
      Electronic valence basis set:
      ------------------
      Associated Effective Charge   6.000000 au
      Associated Actual Charge      6.000000 au
      Nuclear Model: Point charge
 
      Shell  nPrim  nBasis  Cartesian Spherical Contaminant
         s      10       4        X                  
         p       6       3        X                  
         d       3       1                 X         
 
 
      Basis set label: N.ANO-S...4S3P1D......
 
      Electronic valence basis set:
      ------------------
      Associated Effective Charge   7.000000 au
      Associated Actual Charge      7.000000 au
      Nuclear Model: Point charge
 
      Shell  nPrim  nBasis  Cartesian Spherical Contaminant
         s      10       4        X                  
         p       6       3        X                  
         d       3       1                 X         
 
 
      Basis set label: O.ANO-S...4S3P1D......
 
      Electronic valence basis set:
      ------------------
      Associated Effective Charge   8.000000 au
      Associated Actual Charge      8.000000 au
      Nuclear Model: Point charge
 
      Shell  nPrim  nBasis  Cartesian Spherical Contaminant
         s      10       4        X                  
         p       6       3        X                  
         d       3       1                 X         
 
 
      Basis set label: H.ANO-S...2S1P......
 
      Electronic valence basis set:
      ------------------
      Associated Effective Charge   1.000000 au
      Associated Actual Charge      1.000000 au
      Nuclear Model: Point charge
 
      Shell  nPrim  nBasis  Cartesian Spherical Contaminant
         s       7       2        X                  
         p       3       1        X                  
--
 
 
++    Molecular structure info:
      -------------------------
 
                    ************************************************ 
                    **** Cartesian Coordinates / Bohr, Angstrom **** 
                    ************************************************ 
 
     Center  Label                x              y              z                     x              y              z
        1      C1              -0.167214      -0.308059       0.198695             -0.088486      -0.163018       0.105145
        2      C3               3.844790       2.148626      -0.358075              2.034575       1.137004      -0.189485
        3      C4               2.859226       4.122035      -2.274355              1.513037       2.181287      -1.203537
        4      C6               0.372066       4.836166      -6.148254              0.196889       2.559189      -3.253516
        5      C19             -1.250810      -2.967809       0.490460             -0.661900      -1.570497       0.259540
        6      N2               2.430135      -0.193155      -0.032879              1.285972      -0.102213      -0.017399
        7      N5               1.561294       3.190069      -4.307500              0.826201       1.688112      -2.279431
        8      O7              -1.503018       1.589760       0.225605             -0.795363       0.841265       0.119385
        9      O8               3.421576       6.356139      -1.993104              1.810620       3.363524      -1.054705
       10      H9              -2.881335      -3.172198      -0.804868             -1.524737      -1.678655      -0.425918
       11      H10             -1.994604      -3.177614       2.438368             -1.055499      -1.681521       1.290329
       12      H11              0.118618      -4.509104       0.125249              0.062770      -2.386115       0.066279
       13      H12              3.416666      -1.850216      -0.050244              1.808022      -0.979092      -0.026588
       14      H13              3.992836       3.213993       1.445538              2.112918       1.700772       0.764946
       15      H14              5.799265       1.647314      -0.925847              3.068839       0.871721      -0.489937
       16      H15              1.001710       1.346602      -4.223145              0.530082       0.712591      -2.234792
       17      H16             -1.714516       4.890829      -5.909676             -0.907283       2.588115      -3.127266
       18      H17              1.126917       6.761230      -5.838832              0.596339       3.577889      -3.089777
       19      H18              0.811310       4.234022      -8.109384              0.429327       2.240548      -4.291301
 
                    ************************************************* 
                    **** InterNuclear Distances / Bohr, Angstrom **** 
                    ************************************************* 
 
     Atom centers         Bohr        Angstrom
   16 H15       7 N5      1.928373        1.020451
   13 H12       6 N2      1.928574        1.020557
   18 H17       4 C6      2.090793        1.106400
   10 H9        5 C19     2.092430        1.107266
   12 H11       5 C19     2.093872        1.108029
   11 H10       5 C19     2.095614        1.108951
   15 H14       2 C3      2.096105        1.109211
   19 H18       4 C6      2.097985        1.110206
   14 H13       2 C3      2.099987        1.111265
   17 H16       4 C6      2.100889        1.111743
    9 O8        3 C4      2.320897        1.228166
    8 O7        1 C1      2.320952        1.228195
    7 N5        3 C4      2.585898        1.368398
    6 N2        1 C1      2.610183        1.381249
    7 N5        4 C6      2.740852        1.450397
    6 N2        2 C3      2.755165        1.457971
    5 C19       1 C1      2.886793        1.527625
    3 C4        2 C3      2.921953        1.546231
   11 H10      10 H9      3.362277        1.779240
   15 H14      14 H13     3.367660        1.782089
   18 H17      17 H16     3.402524        1.800538
   12 H11      11 H10     3.404276        1.801465
   19 H18      18 H17     3.412007        1.805556
   19 H18      17 H16     3.413196        1.806186
   12 H11      10 H9      3.413525        1.806360
   16 H15       3 C4      3.866675        2.046156
   13 H12       1 C1      3.909529        2.068834
   18 H17       7 N5      3.909840        2.068998
   15 H14       6 N2      3.941542        2.085774
   14 H13       3 C4      3.993397        2.113215
   19 H18       7 N5      4.013306        2.123750
   17 H16       7 N5      4.023740        2.129271
   14 H13       6 N2      4.029443        2.132289
   13 H12       2 C3      4.033458        2.134414
   16 H15       4 C6      4.034793        2.135121
   10 H9        1 C1      4.071472        2.154530
   15 H14       3 C4      4.072659        2.155158
   11 H10       1 C1      4.073062        2.155372
   12 H11       1 C1      4.211398        2.228576
   13 H12      12 H11     4.240001        2.243712
   15 H14      13 H12     4.321594        2.286889
    8 O7        6 N2      4.326118        2.289283
    9 O8        7 N5      4.340631        2.296963
   18 H17       9 O8      4.496575        2.379485
    9 O8        2 C3      4.533828        2.399198
    8 O7        5 C19     4.572220        2.419515
    6 N2        5 C19     4.639175        2.454946
    4 C6        3 C4      4.658652        2.465252
    7 N5        2 C3      4.679414        2.476239
   16 H15       6 N2      4.687171        2.480344
   14 H13       9 O8      4.692939        2.483396
    2 C3        1 C1      4.737243        2.506841
   18 H17       3 C4      4.761485        2.519669
   17 H16      16 H15     4.773240        2.525890
   13 H12       5 C19     4.829773        2.555806
   19 H18      16 H15     4.845235        2.563988
   16 H15       1 C1      4.863842        2.573834
   16 H15       2 C3      4.864680        2.574278
    6 N2        3 C4      4.881516        2.583187
   12 H11       6 N2      4.898524        2.592187
   10 H9        8 O7      5.063387        2.679429
   16 H15       8 O7      5.111180        2.704720
   11 H10       8 O7      5.278810        2.793426
   14 H13      13 H12     5.311831        2.810900
    9 O8        4 C6      5.373556        2.843563
   15 H14       9 O8      5.381959        2.848010
    8 O7        2 C3      5.408517        2.862064
    7 N5        6 N2      5.520278        2.921206
   14 H13       1 C1      5.591556        2.958924
    8 O7        3 C4      5.629510        2.979009
   15 H14       7 N5      5.637027        2.982986
   18 H17      16 H15     5.651931        2.990873
--
 
 
            Nuclear Potential Energy            464.98074525 au
 
 
      Basis set specifications :
      Symmetry species         a  
      Basis functions          212
 
 
      Input file to MOLDEN was generated!
 
--- Stop Module: seward at Tue Jun 10 21:29:31 2025 /rc=_RC_ALL_IS_WELL_ ---
*** files: orca_geometry_optimisation_315_330_BP86_def2-SVP_def2J_scf_cas1_ras12i11_cas8.GssOrb
           orca_geometry_optimisation_315_330_BP86_def2-SVP_def2J_scf_cas1_ras12i11_cas8.guessorb.molden xmldump
    saved to directory /home/pcaah4/diamide_project
--- Module seward spent 1 minute 50 seconds ---

*** symbolic link created: INPORB -> orca_geometry_optimisation_315_330_BP86_def2-SVP_def2J_scf_cas1_ras12i11_cas8.GssOrb
--- Start Module: rasscf at Tue Jun 10 21:29:32 2025 ---
 
()()()()()()()()()()()()()()()()()()()()()()()()()()()()()()()()()()()()()()()()()()()()()()()()()()

                                              &RASSCF

                                   only a single process is used
                       available to each process: 2.0 GB of memory, 1 thread
                                            pid: 3140666
()()()()()()()()()()()()()()()()()()()()()()()()()()()()()()()()()()()()()()()()()()()()()()()()()()
 
 
      Header of the ONEINT file:
      --------------------------
      orca_geometry_optimisation_315_330_BP86_def2-SVP_def2J_scf_cas1_ras12i11
      Integrals generated by Gateway/Seward, Tue Jun 10 21:27:41 2025
 
 
      OrdInt status: non-squared
 
 
      Cartesian coordinates in Angstrom:
      -----------------------------------------------------
      No.  Label        X            Y            Z        
      -----------------------------------------------------
       1   C1        -0.08848600  -0.16301800   0.10514500
       2   C3         2.03457500   1.13700400  -0.18948500
       3   C4         1.51303700   2.18128700  -1.20353700
       4   C6         0.19688900   2.55918900  -3.25351600
       5   C19       -0.66190000  -1.57049700   0.25954000
       6   N2         1.28597200  -0.10221300  -0.01739900
       7   N5         0.82620100   1.68811200  -2.27943100
       8   O7        -0.79536300   0.84126500   0.11938500
       9   O8         1.81062000   3.36352400  -1.05470500
      10   H9        -1.52473700  -1.67865500  -0.42591800
      11   H10       -1.05549900  -1.68152100   1.29032900
      12   H11        0.06277000  -2.38611500   0.06627900
      13   H12        1.80802200  -0.97909200  -0.02658800
      14   H13        2.11291800   1.70077200   0.76494600
      15   H14        3.06883900   0.87172100  -0.48993700
      16   H15        0.53008200   0.71259100  -2.23479200
      17   H16       -0.90728300   2.58811500  -3.12726600
      18   H17        0.59633900   3.57788900  -3.08977700
      19   H18        0.42932700   2.24054800  -4.29130100
      -----------------------------------------------------
      Nuclear repulsion energy =  464.98074525
 
++    Wave function specifications:
      -----------------------------
 
      Number of closed shell electrons          58
      Number of electrons in active shells      12
      Max number of holes in RAS1 space          0
      Max nr of electrons in RAS3 space          0
      Number of inactive orbitals               29
      Number of active orbitals                  8
      Number of secondary orbitals             172
      Spin quantum number                      0.0
      State symmetry                             1
--
 
++    Orbital specifications:
      -----------------------
 
      Symmetry species                           1
                                                 a
      Frozen orbitals                            0
      Inactive orbitals                         29
      Active orbitals                            8
      RAS1 orbitals                              0
      RAS2 orbitals                              8
      RAS3 orbitals                              0
      Secondary orbitals                       172
      Deleted orbitals                           3
      Number of basis functions                212
--
 
++    CI expansion specifications:
      ----------------------------
 
      Number of CSFs                           336
      Number of determinants                   406
      Number of root(s) required                 7
      Root chosen for geometry opt.              7
      CI roots used                              1     2     3     4     5     6     7
      weights                                0.143 0.143 0.143 0.143 0.143 0.143 0.143
      highest root included in the CI            7
      max. size of the explicit Hamiltonian    200
--
 
++    Optimization specifications:
      ----------------------------
 
      RASSCF algorithm: Conventional
      Maximum number of macro iterations        64
      Maximum number of SX iterations           25
      Threshold for RASSCF energy            0.100E-07
      Threshold for max MO rotation          0.100E+00
      Threshold for max BLB element          0.100E-03
      Level shift parameter                  0.300E+00
      Make Quasi-Newton update
--
 
      The MO-coefficients are taken from the file:
      /home/pcaah4/diamide_project/cas/ras12i11/ras_orb/orca_geometry_optimisation_315_330_BP86_def2-SVP_def2J_scf_cas1_ras12i11.RasOrb                                                                                                                               
      Title: RASSCF average (pseudo-natural) orbitals                                      
 
      Total molecular charge    0.00
 
      ************************************************************************************************************************
      *                                                                                                                      *
      *                                            Wave function control section                                             *
      *                                                                                                                      *
      ************************************************************************************************************************
 
 
                                         RASSCF iterations: Energy and convergence statistics
                                         ----------------------------------------------------
 
      Iter CI   SX   CI       RASSCF       Energy    max ROT     max BLB   max BLB  Level Ln srch  Step   QN   Walltime
          iter iter root      energy       change     param      element    value   shift minimum  type update hh:mm:ss
 Nr of preliminary CI iterations:   4
        1   1   25    0  -453.68682879    0.00E+00   0.53E-01   24  72 1 -0.20E-01*  0.14   0.00    SX    NO    0:00:13
        2   5   21    0  -453.70098430   -0.14E-01* -0.33E-01   35  38 1  0.67E-02*  0.14   0.00    SX    NO    0:00:06
        3   3   11    0  -453.70294470   -0.20E-02*  0.19E-01   24  72 1 -0.44E-02*  0.14   0.00    SX    NO    0:00:06
        4   6   11    0  -453.70392705   -0.98E-03*  0.12E-01   36  39 1 -0.18E-02*  0.15   0.00    SX    NO    0:00:06
        5   5   11    0  -453.70415911   -0.23E-03*  0.21E-01   19  73 1 -0.13E-02*  0.15   1.38    QN   YES    0:00:06
        6   6   10    0  -453.70432564   -0.17E-03* -0.16E-02   20  99 1  0.10E-02*  0.15   0.87    QN   YES    0:00:07
        7   5    9    0  -453.70433077   -0.51E-05* -0.87E-03   20  99 1 -0.11E-02*  0.15   0.52    SX   YES    0:00:06
        8   6    9    0  -453.70434411   -0.13E-04* -0.13E-02   35  40 1 -0.48E-03*  0.15   0.83    QN   YES    0:00:06
        9   4    9    0  -453.70434606   -0.19E-05* -0.11E-02   20  99 1 -0.21E-03*  0.15   1.09    QN   YES    0:00:06
       10   3    8    0  -453.70434681   -0.76E-06*  0.37E-03   35  40 1  0.14E-03*  0.15   1.14    QN   YES    0:00:06
       11   4    8    0  -453.70434706   -0.24E-06*  0.17E-03   35  40 1  0.60E-04   0.15   1.47    LS   YES    0:00:06
       12   1    7    0  -453.70434709   -0.36E-07* -0.22E-03   36  39 1 -0.16E-04   0.15   1.16    QN   YES    0:00:06
       13   3    7    0  -453.70434713   -0.38E-07*  0.14E-03   20  99 1  0.14E-04   0.15   1.20    QN   YES    0:00:06
       14   1    6    0  -453.70434714   -0.96E-08  -0.49E-04   35  40 1 -0.54E-05   0.15   1.16    QN   YES    0:00:06
      Convergence after 14 iterations
       15   1    6    0  -453.70434714   -0.14E-08  -0.49E-04   36  38 1  0.13E-05   0.15   1.16    QN   YES    0:00:06
 
      ************************************************************************************************************************
                                                      Wave function printout:
                       occupation of active orbitals, and spin coupling of open shells (u,d: Spin up or down)
      ************************************************************************************************************************
 
      Note: transformation to natural orbitals
      has been made, which may change the order of the CSFs.
 
      printout of CI-coefficients larger than  0.05 for root  1
      energy=    -453.954231
      conf/sym  11111111     Coeff  Weight
             1  22222200  -0.95608 0.91409
             3  2222u2d0   0.11318 0.01281
             6  22220220   0.09091 0.00826
            41  22u222d0   0.09438 0.00891
            61  2u2222d0   0.08288 0.00687
            63  2u22d220   0.06893 0.00475
            84  u222220d  -0.11106 0.01233
           105  22202202   0.06881 0.00473
           135  u22d2202   0.05002 0.00250
           171  20222220   0.09208 0.00848
           195  02222202   0.07824 0.00612
 
      printout of CI-coefficients larger than  0.05 for root  2
      energy=    -453.741679
      conf/sym  11111111     Coeff  Weight
             2  22222ud0   0.95119 0.90476
             3  2222u2d0  -0.06287 0.00395
             5  2222ud20   0.12724 0.01619
             7  22222u0d   0.05978 0.00357
            42  22u22d20  -0.05384 0.00290
            62  2u222d20   0.16689 0.02785
            85  u2222dud   0.05923 0.00351
            87  u2222udd   0.09797 0.00960
           106  22202ud2  -0.07013 0.00492
           136  u22d2ud2  -0.05125 0.00263
           196  02222ud2  -0.07845 0.00615
 
      printout of CI-coefficients larger than  0.05 for root  3
      energy=    -453.740766
      conf/sym  11111111     Coeff  Weight
             2  22222ud0  -0.05080 0.00258
            24  222u220d   0.44778 0.20051
            44  22u2220d  -0.83361 0.69490
            46  22u2d2ud   0.05082 0.00258
            48  22u2u2dd   0.07908 0.00625
            52  22u2022d   0.08064 0.00650
           105  22202202  -0.10300 0.01061
           115  22ud2202   0.08857 0.00785
           135  u22d2202  -0.05977 0.00357
           142  220222ud   0.06806 0.00463
           145  22022202   0.10271 0.01055
           165  u2d22202   0.11188 0.01252
           219  2uu222dd  -0.07232 0.00523
           221  2uu2d22d  -0.05070 0.00257
           293  20u2222d  -0.07938 0.00630
 
      printout of CI-coefficients larger than  0.05 for root  4
      energy=    -453.641855
      conf/sym  11111111     Coeff  Weight
             3  2222u2d0   0.07056 0.00498
             7  22222u0d   0.38396 0.14742
             8  2222u20d  -0.45237 0.20464
            10  2222udud   0.05409 0.00293
            12  2222uudd  -0.07066 0.00499
            24  222u220d  -0.64748 0.41923
            26  222ud2ud   0.05529 0.00306
            28  222uu2dd   0.06884 0.00474
            32  222u022d   0.06701 0.00449
            41  22u222d0   0.05560 0.00309
            44  22u2220d  -0.32858 0.10796
            66  2u22d2ud  -0.05932 0.00352
            68  2u22u2dd  -0.07065 0.00499
            84  u222220d   0.07098 0.00504
           135  u22d2202   0.15602 0.02434
           165  u2d22202   0.07974 0.00636
           174  2022u22d  -0.05499 0.00302
           195  02222202   0.05230 0.00274
           207  2u2u22dd  -0.05452 0.00297
           261  202u222d  -0.06149 0.00378
 
      printout of CI-coefficients larger than  0.05 for root  5
      energy=    -453.625080
      conf/sym  11111111     Coeff  Weight
             1  22222200  -0.06609 0.00437
             3  2222u2d0  -0.66810 0.44635
             6  22220220   0.12709 0.01615
             7  22222u0d  -0.22898 0.05243
             8  2222u20d  -0.58203 0.33876
            12  2222uudd   0.05907 0.00349
            24  222u220d   0.14133 0.01997
            41  22u222d0   0.06938 0.00481
            44  22u2220d   0.07805 0.00609
            46  22u2d2ud  -0.08195 0.00672
            61  2u2222d0   0.06135 0.00376
            63  2u22d220  -0.17331 0.03004
            66  2u22d2ud  -0.09068 0.00822
            68  2u22u2dd  -0.08281 0.00686
            88  u222u2dd  -0.08494 0.00722
           107  2220u2d2   0.05278 0.00279
           171  20222220  -0.07235 0.00523
           174  2022u22d  -0.06741 0.00454
           197  0222u2d2   0.05703 0.00325
 
      printout of CI-coefficients larger than  0.05 for root  6
      energy=    -453.619573
      conf/sym  11111111     Coeff  Weight
             1  22222200   0.06425 0.00413
             3  2222u2d0   0.61136 0.37376
             6  22220220  -0.10101 0.01020
             7  22222u0d  -0.14871 0.02212
             8  2222u20d  -0.59477 0.35375
            24  222u220d   0.30396 0.09239
            41  22u222d0  -0.08366 0.00700
            44  22u2220d   0.16591 0.02753
            46  22u2d2ud  -0.10644 0.01133
            63  2u22d220   0.16001 0.02560
            66  2u22d2ud  -0.10062 0.01012
            68  2u22u2dd  -0.12280 0.01508
            88  u222u2dd   0.05212 0.00272
           135  u22d2202  -0.06515 0.00424
           171  20222220   0.06106 0.00373
           174  2022u22d  -0.08375 0.00701
 
      printout of CI-coefficients larger than  0.05 for root  7
      energy=    -453.607247
      conf/sym  11111111     Coeff  Weight
             2  22222ud0   0.05558 0.00309
             3  2222u2d0   0.10240 0.01049
             7  22222u0d  -0.78107 0.61006
             8  2222u20d   0.05836 0.00341
            10  2222udud  -0.15942 0.02541
            12  2222uudd   0.23121 0.05346
            24  222u220d  -0.38503 0.14824
            27  222u2udd  -0.05127 0.00263
            44  22u2220d  -0.23430 0.05490
            45  22u22dud  -0.13337 0.01779
            47  22u22udd   0.15340 0.02353
            70  2u22du2d   0.05911 0.00349
           135  u22d2202   0.08544 0.00730
           173  20222u2d  -0.06378 0.00407
 
      Natural orbitals and occupation numbers for root  1
      sym 1:   1.952894   1.963406   1.999573   1.995561   1.995850   1.999804   0.051790   0.041121
 
      Natural orbitals and occupation numbers for root  2
      sym 1:   1.962292   1.999189   1.997010   1.995514   1.999844   1.007400   0.993926   0.044823
 
      Natural orbitals and occupation numbers for root  3
      sym 1:   1.999874   1.995193   1.007477   1.999362   1.951854   1.997055   0.055545   0.993638
 
      Natural orbitals and occupation numbers for root  4
      sym 1:   1.992089   1.979484   1.988095   1.063928   1.932633   1.972137   0.086212   0.985423
 
      Natural orbitals and occupation numbers for root  5
      sym 1:   1.995915   1.940792   1.987496   1.977840   1.064229   1.956455   0.958848   0.118426
 
      Natural orbitals and occupation numbers for root  6
      sym 1:   1.982009   1.935880   1.984902   1.918328   1.075011   1.998152   0.160339   0.945378
 
      Natural orbitals and occupation numbers for root  7
      sym 1:   1.993915   1.978285   1.985340   1.942064   1.926536   1.107585   0.110355   0.955921
 
      ************************************************************************************************************************
      *                                                                                                                      *
      *                                                    Final results                                                     *
      *                                                                                                                      *
      ************************************************************************************************************************
 
 
++    Wave function specifications:
      -----------------------------
 
      Number of closed shell electrons          58
      Number of electrons in active shells      12
      Max number of holes in RAS1 space          0
      Max nr of electrons in RAS3 space          0
      Number of inactive orbitals               29
      Number of active orbitals                  8
      Number of secondary orbitals             172
      Spin quantum number                      0.0
      State symmetry                             1
--
 
++    Orbital specifications:
      -----------------------
 
      Symmetry species                           1
                                                 a
      Frozen orbitals                            0
      Inactive orbitals                         29
      Active orbitals                            8
      RAS1 orbitals                              0
      RAS2 orbitals                              8
      RAS3 orbitals                              0
      Secondary orbitals                       172
      Deleted orbitals                           3
      Number of basis functions                212
--
 
++    CI expansion specifications:
      ----------------------------
 
      Number of CSFs                           336
      Number of determinants                   406
      Number of root(s) required                 7
      CI roots used                              1     2     3     4     5     6     7
      weights                                0.143 0.143 0.143 0.143 0.143 0.143 0.143
      highest root included in the CI            7
      Root passed to geometry opt.               7
--
 
++    Final optimization conditions:
      ------------------------------
 
      Average CI energy                            -453.70434714
      RASSCF energy for state  7                   -453.60724696
      Super-CI energy                                -0.00000000
      RASSCF energy change                            0.00000000
      Max change in MO coefficients              -0.464E-04
      Max non-diagonal density matrix element    -0.487E-04
      Maximum BLB matrix element                  0.126E-05
      (orbital pair  36,  38 in symmetry   1)
      Norm of electronic gradient            0.283E+00
--
 
 
      Final state energy(ies):
      ------------------------
 
::    RASSCF root number  1 Total energy:   -453.95423082
::    RASSCF root number  2 Total energy:   -453.74167852
::    RASSCF root number  3 Total energy:   -453.74076584
::    RASSCF root number  4 Total energy:   -453.64185466
::    RASSCF root number  5 Total energy:   -453.62508046
::    RASSCF root number  6 Total energy:   -453.61957271
::    RASSCF root number  7 Total energy:   -453.60724696
 
++    Molecular orbitals:
      -------------------
 
      Pseudonatural active orbitals and approximate occupation numbers
 
 
 
 
      Molecular orbitals for symmetry species 1: a  
 
 
      Orbital                 1         2         3         4         5         6         7         8         9        10
      Energy           -20.5971  -20.5170  -15.6318  -15.5945  -11.3389  -11.2956  -11.2868  -11.2790  -11.2273   -1.4228
      Occ. No.           2.0000    2.0000    2.0000    2.0000    2.0000    2.0000    2.0000    2.0000    2.0000    2.0000
 
     1 C1     1s        -0.0001    0.0003   -0.0000    0.0002   -0.0001   -0.0008   -0.0000    1.0000   -0.0058   -0.0003
     2 C1     2s        -0.0007    0.0007   -0.0003    0.0009   -0.0005   -0.0010   -0.0002    0.0024   -0.0001    0.0300
     3 C1     3s        -0.0005   -0.0006   -0.0003    0.0004   -0.0004   -0.0008   -0.0002    0.0001   -0.0004    0.0108
     4 C1     4s        -0.0001   -0.0004   -0.0001    0.0001   -0.0001   -0.0003   -0.0001    0.0014   -0.0001    0.0037
     5 C1     2px       -0.0002   -0.0011    0.0003    0.0016    0.0001   -0.0003    0.0001    0.0017   -0.0002    0.0048
     6 C1     3px       -0.0002   -0.0006    0.0003    0.0013   -0.0001   -0.0005    0.0001    0.0015    0.0002    0.0057
     7 C1     4px       -0.0000    0.0002   -0.0000   -0.0000   -0.0001   -0.0002    0.0000    0.0005    0.0002    0.0015
     8 C1     2py        0.0002    0.0032    0.0003    0.0002   -0.0003    0.0002   -0.0003    0.0008   -0.0006    0.0177
     9 C1     3py        0.0002    0.0023    0.0002    0.0001   -0.0004   -0.0002   -0.0004    0.0009    0.0002    0.0168
    10 C1     4py       -0.0000   -0.0003   -0.0000   -0.0001   -0.0000   -0.0003   -0.0001    0.0007    0.0003    0.0053
    11 C1     2pz        0.0000   -0.0002    0.0001   -0.0003    0.0001   -0.0001   -0.0000   -0.0003   -0.0001   -0.0003
    12 C1     3pz        0.0001   -0.0002    0.0002   -0.0003    0.0001   -0.0002   -0.0000   -0.0007   -0.0003   -0.0011
    13 C1     4pz        0.0000   -0.0000    0.0000    0.0000    0.0000   -0.0000    0.0000   -0.0002   -0.0001   -0.0010
    14 C1     3d2-      -0.0000    0.0001   -0.0000    0.0001   -0.0000    0.0000    0.0000   -0.0003    0.0001   -0.0008
    15 C1     3d1-      -0.0000   -0.0000    0.0000   -0.0000   -0.0000   -0.0000   -0.0000    0.0000   -0.0000    0.0002
    16 C1     3d0       -0.0000   -0.0000    0.0000    0.0001   -0.0000   -0.0001    0.0000   -0.0003    0.0001   -0.0014
    17 C1     3d1+      -0.0000   -0.0000    0.0000    0.0000   -0.0000   -0.0000    0.0000   -0.0000    0.0000   -0.0003
    18 C1     3d2+       0.0000    0.0001    0.0000   -0.0002    0.0000    0.0000   -0.0000    0.0000   -0.0001    0.0003
    19 C3     1s         0.0002    0.0001   -0.0001    0.0005    0.0064    0.9995   -0.0001    0.0006    0.0000   -0.0123
    20 C3     2s         0.0011    0.0007   -0.0003    0.0024   -0.0002   -0.0011    0.0004   -0.0003    0.0002    0.0118
    21 C3     3s         0.0007    0.0004   -0.0002    0.0011   -0.0003   -0.0024    0.0002   -0.0003    0.0001   -0.0337
    22 C3     4s         0.0001    0.0000   -0.0001    0.0001   -0.0000    0.0007   -0.0000   -0.0002   -0.0000   -0.0042
    23 C3     2px        0.0000    0.0002   -0.0000   -0.0004   -0.0000    0.0002   -0.0002    0.0007    0.0002    0.0004
    24 C3     3px        0.0001    0.0003    0.0000    0.0001    0.0001    0.0001   -0.0002    0.0010    0.0003    0.0085
    25 C3     4px        0.0001    0.0001    0.0001    0.0002   -0.0000   -0.0006   -0.0000    0.0002    0.0001   -0.0028
    26 C3     2py       -0.0014   -0.0002    0.0010   -0.0007    0.0006   -0.0006   -0.0001    0.0004   -0.0003    0.0236
    27 C3     3py       -0.0015   -0.0002    0.0010   -0.0001    0.0002   -0.0004   -0.0004    0.0005   -0.0002    0.0015
    28 C3     4py       -0.0002    0.0000    0.0000    0.0002   -0.0001   -0.0005   -0.0002    0.0001    0.0000    0.0030
    29 C3     2pz       -0.0005    0.0000    0.0003   -0.0003    0.0001    0.0000   -0.0001   -0.0002   -0.0002   -0.0028
    30 C3     3pz       -0.0003   -0.0000    0.0002   -0.0004    0.0005    0.0001   -0.0001   -0.0004   -0.0003    0.0092
    31 C3     4pz        0.0001   -0.0000   -0.0000   -0.0000    0.0001   -0.0002    0.0000   -0.0001   -0.0000   -0.0060
    32 C3     3d2-       0.0000    0.0000    0.0000   -0.0000   -0.0001   -0.0001   -0.0000    0.0000    0.0000   -0.0021
    33 C3     3d1-       0.0000    0.0000    0.0000    0.0000   -0.0000    0.0001   -0.0000    0.0000   -0.0000   -0.0042
    34 C3     3d0        0.0000    0.0000    0.0000    0.0001    0.0000   -0.0000    0.0000   -0.0000   -0.0000   -0.0016
    35 C3     3d1+       0.0001   -0.0000    0.0001    0.0000   -0.0001   -0.0001    0.0000   -0.0000   -0.0000   -0.0027
    36 C3     3d2+       0.0001   -0.0000   -0.0001    0.0000    0.0000    0.0000   -0.0000    0.0001   -0.0000   -0.0031
    37 C4     1s         0.0004    0.0000    0.0002   -0.0002    1.0000   -0.0064    0.0002   -0.0001    0.0000   -0.0401
    38 C4     2s         0.0013    0.0001    0.0008   -0.0011    0.0026    0.0007    0.0001   -0.0007    0.0001    0.3495
    39 C4     3s        -0.0003    0.0001    0.0002   -0.0007    0.0001    0.0002    0.0000   -0.0005    0.0001   -0.0110
    40 C4     4s        -0.0004    0.0000    0.0001   -0.0002    0.0013    0.0000   -0.0001   -0.0002   -0.0000    0.0018
    41 C4     2px        0.0009   -0.0004   -0.0012   -0.0001   -0.0005    0.0004    0.0001   -0.0005   -0.0002    0.0254
    42 C4     3px        0.0008   -0.0005   -0.0010   -0.0002   -0.0008    0.0004    0.0004   -0.0007   -0.0002   -0.0105
    43 C4     4px        0.0000   -0.0001   -0.0000   -0.0001   -0.0003    0.0001    0.0002   -0.0002   -0.0001    0.0061
    44 C4     2py        0.0033   -0.0002   -0.0005    0.0005    0.0003   -0.0008    0.0001   -0.0001    0.0001    0.1099
    45 C4     3py        0.0024   -0.0001   -0.0005    0.0004    0.0000   -0.0001   -0.0002    0.0001    0.0001   -0.0645
    46 C4     4py       -0.0003    0.0001   -0.0000    0.0000    0.0004    0.0003   -0.0003    0.0001    0.0000    0.0268
    47 C4     2pz        0.0005   -0.0001   -0.0016   -0.0002   -0.0012    0.0009    0.0001   -0.0002    0.0001   -0.0085
    48 C4     3pz        0.0005   -0.0000   -0.0013   -0.0001   -0.0009    0.0006    0.0006   -0.0003    0.0001   -0.0043
    49 C4     4pz        0.0000    0.0000    0.0001    0.0000   -0.0005    0.0000    0.0004   -0.0000   -0.0000   -0.0004
    50 C4     3d2-      -0.0000   -0.0000   -0.0001    0.0001    0.0003   -0.0000    0.0000   -0.0000   -0.0000    0.0198
    51 C4     3d1-      -0.0001    0.0000   -0.0002    0.0000    0.0002   -0.0001    0.0000   -0.0000   -0.0000    0.0107
    52 C4     3d0        0.0001    0.0000   -0.0001   -0.0000   -0.0002    0.0000    0.0000    0.0000    0.0000   -0.0179
    53 C4     3d1+       0.0001    0.0001   -0.0001    0.0001    0.0003   -0.0001    0.0001    0.0000    0.0000    0.0092
    54 C4     3d2+       0.0001    0.0000    0.0000    0.0000   -0.0004    0.0000   -0.0000    0.0000    0.0000   -0.0335
    55 C6     1s         0.0001    0.0001    0.0004   -0.0001   -0.0002    0.0003    0.9996   -0.0001   -0.0001   -0.0076
    56 C6     2s         0.0005    0.0004    0.0017   -0.0006    0.0000    0.0006   -0.0004   -0.0004   -0.0004    0.0242
    57 C6     3s         0.0003    0.0002    0.0006   -0.0004   -0.0002    0.0005   -0.0019   -0.0004   -0.0003   -0.0097
    58 C6     4s         0.0001    0.0000   -0.0000   -0.0001   -0.0002    0.0001    0.0009   -0.0002   -0.0001    0.0001
    59 C6     2px        0.0003   -0.0001    0.0004   -0.0000   -0.0002    0.0002    0.0001   -0.0001   -0.0001    0.0030
    60 C6     3px        0.0003   -0.0001    0.0001   -0.0000   -0.0003    0.0001   -0.0000   -0.0001   -0.0001   -0.0079
    61 C6     4px       -0.0001    0.0000   -0.0001    0.0000   -0.0001   -0.0000    0.0003    0.0000    0.0000    0.0023
    62 C6     2py        0.0001   -0.0002   -0.0004   -0.0000   -0.0000   -0.0001   -0.0002   -0.0001   -0.0000   -0.0054
    63 C6     3py        0.0000   -0.0002   -0.0001   -0.0001   -0.0001   -0.0001    0.0002   -0.0001   -0.0000    0.0040
    64 C6     4py       -0.0001    0.0000    0.0001   -0.0000   -0.0001    0.0000   -0.0004   -0.0000   -0.0000   -0.0010
    65 C6     2pz        0.0002    0.0001    0.0002   -0.0001   -0.0004    0.0002   -0.0001   -0.0003   -0.0000    0.0232
    66 C6     3pz        0.0001    0.0000   -0.0003   -0.0001   -0.0005    0.0001   -0.0002   -0.0003   -0.0001    0.0041
    67 C6     4pz       -0.0000   -0.0000   -0.0002    0.0000   -0.0001   -0.0001    0.0006   -0.0000   -0.0000    0.0019
    68 C6     3d2-      -0.0000   -0.0000    0.0000   -0.0000    0.0000   -0.0000    0.0000   -0.0000    0.0000   -0.0014
    69 C6     3d1-      -0.0000   -0.0000    0.0001   -0.0000    0.0000   -0.0000    0.0001    0.0000   -0.0000   -0.0032
    70 C6     3d0       -0.0000    0.0000    0.0001    0.0000    0.0000    0.0000    0.0000    0.0000   -0.0000    0.0008
    71 C6     3d1+       0.0000   -0.0000   -0.0001    0.0000    0.0001    0.0000   -0.0000   -0.0000    0.0000    0.0026
    72 C6     3d2+      -0.0000    0.0000    0.0001   -0.0000    0.0000   -0.0000    0.0001   -0.0000    0.0000   -0.0001
    73 C19    1s         0.0000    0.0002    0.0001   -0.0000    0.0000    0.0001   -0.0000    0.0057    0.9999   -0.0002
    74 C19    2s         0.0001    0.0011    0.0005   -0.0000    0.0000    0.0006   -0.0002    0.0004    0.0019    0.0040
    75 C19    3s         0.0000    0.0007    0.0004    0.0001   -0.0000    0.0003   -0.0002    0.0001   -0.0005    0.0042
    76 C19    4s        -0.0000    0.0001    0.0001   -0.0000   -0.0000   -0.0000   -0.0001    0.0001    0.0012    0.0025
    77 C19    2px        0.0001    0.0007    0.0003   -0.0003    0.0001    0.0002   -0.0000   -0.0001   -0.0001   -0.0015
    78 C19    3px        0.0001    0.0005    0.0002   -0.0002    0.0001    0.0002   -0.0001   -0.0004   -0.0000   -0.0015
    79 C19    4px       -0.0000   -0.0002   -0.0000   -0.0000   -0.0000    0.0000   -0.0000   -0.0001    0.0002    0.0005
    80 C19    2py        0.0000    0.0000    0.0002    0.0004   -0.0000    0.0002   -0.0000    0.0004   -0.0004    0.0045
    81 C19    3py       -0.0001   -0.0002    0.0001    0.0003   -0.0000    0.0001   -0.0000   -0.0001   -0.0000    0.0034
    82 C19    4py       -0.0000   -0.0001   -0.0000   -0.0001    0.0000   -0.0001    0.0000   -0.0001    0.0003    0.0003
    83 C19    2pz        0.0000   -0.0001   -0.0002    0.0002   -0.0000    0.0001    0.0000    0.0002    0.0001   -0.0010
    84 C19    3pz       -0.0000   -0.0001   -0.0002    0.0002   -0.0000    0.0001    0.0000    0.0003    0.0001   -0.0006
    85 C19    4pz       -0.0000    0.0000   -0.0000    0.0000   -0.0000    0.0000   -0.0000    0.0000   -0.0000    0.0001
    86 C19    3d2-       0.0000    0.0001    0.0000   -0.0000   -0.0000    0.0001   -0.0000   -0.0000   -0.0001    0.0002
    87 C19    3d1-      -0.0000   -0.0000   -0.0000   -0.0000   -0.0000   -0.0000    0.0000    0.0000    0.0000    0.0000
    88 C19    3d0       -0.0000   -0.0001   -0.0000   -0.0001   -0.0000   -0.0000   -0.0000    0.0001    0.0001    0.0002
    89 C19    3d1+      -0.0000   -0.0000   -0.0000   -0.0000   -0.0000   -0.0000    0.0000    0.0000    0.0000    0.0002
    90 C19    3d2+      -0.0000    0.0001   -0.0000   -0.0000   -0.0000   -0.0000   -0.0000   -0.0001    0.0001   -0.0000
    91 N2     1s        -0.0000    0.0000   -0.0000    0.9998    0.0000    0.0001    0.0000   -0.0003    0.0000   -0.0008
    92 N2     2s        -0.0003    0.0001    0.0001   -0.0001    0.0002    0.0017    0.0000   -0.0006    0.0003    0.0297
    93 N2     3s        -0.0001    0.0001    0.0001   -0.0015    0.0001    0.0009    0.0000   -0.0006    0.0002   -0.0017
    94 N2     4s         0.0000    0.0000    0.0000    0.0005    0.0000    0.0003    0.0000   -0.0000    0.0000   -0.0014
    95 N2     2px       -0.0007    0.0001    0.0004    0.0002    0.0002    0.0002   -0.0001   -0.0001   -0.0004    0.0058
    96 N2     3px       -0.0010   -0.0001    0.0005   -0.0001    0.0002   -0.0001   -0.0002   -0.0001   -0.0004    0.0081
    97 N2     4px       -0.0001   -0.0001    0.0001   -0.0001   -0.0000   -0.0001   -0.0001   -0.0003    0.0001    0.0002
    98 N2     2py        0.0001   -0.0015    0.0001   -0.0006    0.0004    0.0008    0.0001    0.0006   -0.0001   -0.0002
    99 N2     3py        0.0001   -0.0018    0.0001    0.0003    0.0004    0.0008    0.0001    0.0006   -0.0001   -0.0121
   100 N2     4py        0.0000   -0.0000   -0.0000    0.0006   -0.0000    0.0002    0.0000   -0.0000    0.0001   -0.0018
   101 N2     2pz        0.0000    0.0001    0.0000   -0.0000   -0.0000   -0.0001   -0.0001    0.0002    0.0001   -0.0031
   102 N2     3pz       -0.0000    0.0002    0.0000   -0.0000   -0.0001   -0.0000   -0.0002    0.0000    0.0000   -0.0009
   103 N2     4pz       -0.0000    0.0000    0.0000   -0.0002   -0.0000    0.0000   -0.0000    0.0000   -0.0000    0.0006
   104 N2     3d2-       0.0000    0.0001    0.0000   -0.0002    0.0000   -0.0000    0.0000   -0.0001   -0.0000    0.0000
   105 N2     3d1-       0.0000   -0.0000    0.0000    0.0000   -0.0000   -0.0000   -0.0000    0.0000   -0.0000   -0.0006
   106 N2     3d0       -0.0000   -0.0000    0.0000    0.0001   -0.0000    0.0001   -0.0000    0.0002   -0.0001   -0.0004
   107 N2     3d1+       0.0000   -0.0000    0.0000    0.0000   -0.0000    0.0000   -0.0000    0.0000   -0.0000   -0.0008
   108 N2     3d2+       0.0000   -0.0001    0.0000    0.0000   -0.0000   -0.0000   -0.0000    0.0000    0.0000   -0.0002
   109 N5     1s         0.0002   -0.0001    0.9999    0.0001   -0.0003    0.0000    0.0001   -0.0000    0.0001   -0.0179
   110 N5     2s         0.0011   -0.0006    0.0002    0.0001   -0.0003    0.0000    0.0017   -0.0000    0.0003    0.1116
   111 N5     3s         0.0008   -0.0005   -0.0013    0.0001   -0.0004    0.0001    0.0011   -0.0000    0.0002   -0.0477
   112 N5     4s         0.0002   -0.0001    0.0005    0.0001    0.0000    0.0000    0.0004    0.0000    0.0000   -0.0112
   113 N5     2px       -0.0001    0.0003   -0.0003   -0.0001    0.0002    0.0001   -0.0007    0.0001   -0.0000    0.0189
   114 N5     3px       -0.0001    0.0005   -0.0001   -0.0002   -0.0001    0.0001   -0.0006    0.0002    0.0000   -0.0010
   115 N5     4px       -0.0000    0.0001   -0.0001   -0.0000    0.0001   -0.0000   -0.0000    0.0001    0.0000    0.0038
   116 N5     2py       -0.0014   -0.0001   -0.0012    0.0003    0.0001   -0.0002    0.0004    0.0002    0.0000    0.0454
   117 N5     3py       -0.0016   -0.0001   -0.0009    0.0004   -0.0002   -0.0002    0.0006    0.0004    0.0002    0.0091
   118 N5     4py        0.0000   -0.0000    0.0004    0.0001   -0.0001    0.0001    0.0003    0.0001    0.0001   -0.0032
   119 N5     2pz        0.0004    0.0001    0.0004   -0.0002    0.0001    0.0002   -0.0007   -0.0002   -0.0002    0.0029
   120 N5     3pz        0.0003    0.0001    0.0005   -0.0003    0.0003    0.0003   -0.0005   -0.0002   -0.0004   -0.0298
   121 N5     4pz       -0.0001    0.0001    0.0003   -0.0000    0.0004   -0.0000   -0.0000    0.0000   -0.0001    0.0046
   122 N5     3d2-      -0.0000    0.0000    0.0001    0.0000    0.0000    0.0000    0.0000    0.0000    0.0000    0.0025
   123 N5     3d1-      -0.0001   -0.0000    0.0000    0.0000    0.0001   -0.0000   -0.0000    0.0000   -0.0000    0.0048
   124 N5     3d0        0.0000   -0.0000   -0.0001   -0.0000   -0.0000   -0.0000   -0.0000   -0.0000   -0.0000    0.0001
   125 N5     3d1+       0.0000   -0.0000   -0.0001    0.0000   -0.0001    0.0000   -0.0001    0.0000    0.0000    0.0031
   126 N5     3d2+      -0.0000    0.0000   -0.0001    0.0000    0.0001   -0.0000    0.0000   -0.0000   -0.0000   -0.0002
   127 O7     1s        -0.0000    0.9997   -0.0000    0.0000    0.0000   -0.0000    0.0000   -0.0002    0.0000   -0.0015
   128 O7     2s        -0.0001   -0.0015   -0.0000    0.0000    0.0002   -0.0002    0.0001    0.0006    0.0003    0.0228
   129 O7     3s        -0.0000   -0.0014   -0.0000    0.0000    0.0002   -0.0001    0.0000    0.0000    0.0002   -0.0030
   130 O7     4s         0.0000    0.0001    0.0000   -0.0000    0.0001   -0.0000   -0.0000    0.0000    0.0001   -0.0007
   131 O7     2px       -0.0000    0.0001   -0.0001   -0.0004    0.0000   -0.0000   -0.0001    0.0005    0.0001    0.0071
   132 O7     3px       -0.0001   -0.0003   -0.0001   -0.0005    0.0000    0.0000   -0.0001   -0.0001    0.0001    0.0034
   133 O7     4px       -0.0000    0.0009   -0.0000   -0.0001   -0.0000    0.0000   -0.0000    0.0000   -0.0000    0.0016
   134 O7     2py        0.0001   -0.0003   -0.0002   -0.0002   -0.0002    0.0000   -0.0000   -0.0008   -0.0002   -0.0013
   135 O7     3py        0.0001    0.0003   -0.0002   -0.0002   -0.0002    0.0000   -0.0001   -0.0006   -0.0002    0.0058
   136 O7     4py       -0.0000   -0.0011   -0.0001    0.0000   -0.0001   -0.0000   -0.0000   -0.0003    0.0000    0.0018
   137 O7     2pz       -0.0000   -0.0000    0.0001    0.0001    0.0001    0.0000    0.0001    0.0003    0.0000   -0.0035
   138 O7     3pz       -0.0001   -0.0000    0.0001    0.0001    0.0001    0.0000    0.0002    0.0001    0.0000   -0.0046
   139 O7     4pz       -0.0000   -0.0001    0.0000    0.0000    0.0000    0.0000    0.0001    0.0000    0.0000   -0.0014
   140 O7     3d2-       0.0000    0.0001   -0.0000    0.0000   -0.0000    0.0000    0.0000   -0.0003   -0.0000   -0.0009
   141 O7     3d1-      -0.0000   -0.0000    0.0000   -0.0000    0.0000   -0.0000    0.0000    0.0000   -0.0000    0.0000
   142 O7     3d0        0.0000   -0.0000    0.0000   -0.0000   -0.0000   -0.0000   -0.0000   -0.0001   -0.0000   -0.0005
   143 O7     3d1+      -0.0000   -0.0000    0.0000   -0.0000   -0.0000    0.0000    0.0000    0.0000   -0.0000   -0.0002
   144 O7     3d2+      -0.0000    0.0000   -0.0000   -0.0001    0.0000    0.0000    0.0000   -0.0001   -0.0000   -0.0000
   145 O8     1s         0.9997    0.0000    0.0000   -0.0000   -0.0003    0.0001   -0.0000    0.0000    0.0000   -0.0243
   146 O8     2s        -0.0015    0.0002    0.0002   -0.0000    0.0003    0.0004   -0.0003    0.0003    0.0000    0.6884
   147 O8     3s        -0.0014    0.0001    0.0002   -0.0000   -0.0001    0.0003   -0.0002    0.0002    0.0000   -0.0350
   148 O8     4s         0.0001    0.0000    0.0000   -0.0000    0.0000    0.0001   -0.0001    0.0000    0.0000   -0.0139
   149 O8     2px       -0.0001    0.0000    0.0002   -0.0000    0.0001   -0.0000    0.0001    0.0001    0.0000   -0.0344
   150 O8     3px        0.0000    0.0001    0.0003    0.0000    0.0001   -0.0000    0.0001    0.0001    0.0001    0.0095
   151 O8     4px       -0.0004    0.0001    0.0001    0.0000    0.0000    0.0000    0.0000    0.0001    0.0000   -0.0003
   152 O8     2py       -0.0003   -0.0001   -0.0000   -0.0001   -0.0007   -0.0002    0.0001   -0.0001   -0.0000   -0.1423
   153 O8     3py        0.0005   -0.0001    0.0001   -0.0001   -0.0002   -0.0002    0.0000   -0.0001   -0.0000    0.0431
   154 O8     4py       -0.0013    0.0000    0.0001   -0.0000   -0.0003    0.0001   -0.0000    0.0000   -0.0000    0.0002
   155 O8     2pz       -0.0001    0.0000    0.0003    0.0001   -0.0003   -0.0001    0.0001    0.0001   -0.0000   -0.0272
   156 O8     3pz        0.0001   -0.0000    0.0003    0.0001    0.0001   -0.0001    0.0001    0.0001    0.0000    0.0075
   157 O8     4pz       -0.0002   -0.0000    0.0000    0.0000    0.0000   -0.0000   -0.0000    0.0000    0.0000    0.0017
   158 O8     3d2-      -0.0000    0.0000   -0.0000    0.0000    0.0001    0.0000   -0.0000    0.0000    0.0000    0.0089
   159 O8     3d1-      -0.0000    0.0000   -0.0001   -0.0000    0.0001   -0.0000   -0.0000   -0.0000    0.0000    0.0058
   160 O8     3d0        0.0001   -0.0000    0.0000   -0.0000   -0.0001   -0.0000    0.0000   -0.0000    0.0000   -0.0104
   161 O8     3d1+       0.0001   -0.0000    0.0000   -0.0000   -0.0000    0.0000    0.0000   -0.0000    0.0000    0.0013
   162 O8     3d2+       0.0000   -0.0000   -0.0000    0.0000   -0.0001   -0.0000   -0.0000   -0.0000   -0.0000   -0.0163
   163 H9     1s         0.0001    0.0002    0.0002    0.0003    0.0000   -0.0000    0.0001    0.0003    0.0004    0.0014
   164 H9     2s         0.0001    0.0001    0.0001    0.0002    0.0000   -0.0000    0.0000    0.0002   -0.0002    0.0010
   165 H9     2px        0.0000   -0.0000    0.0000    0.0001    0.0000   -0.0000    0.0000    0.0001   -0.0000    0.0003
   166 H9     2py       -0.0000   -0.0001    0.0000   -0.0000    0.0000   -0.0000    0.0000    0.0000    0.0000   -0.0000
   167 H9     2pz        0.0000    0.0000    0.0000   -0.0000    0.0000   -0.0000   -0.0000    0.0000   -0.0001    0.0001
   168 H10    1s        -0.0000    0.0003    0.0002   -0.0001   -0.0000   -0.0002   -0.0001   -0.0001    0.0003    0.0043
   169 H10    2s        -0.0000    0.0002    0.0001   -0.0001   -0.0000   -0.0001   -0.0000    0.0000   -0.0002    0.0030
   170 H10    2px       -0.0000   -0.0000   -0.0000    0.0000   -0.0000   -0.0000   -0.0000    0.0000   -0.0000    0.0004
   171 H10    2py       -0.0000   -0.0000   -0.0000   -0.0000   -0.0000   -0.0000   -0.0000    0.0001    0.0000    0.0001
   172 H10    2pz        0.0000   -0.0000   -0.0000   -0.0000    0.0000    0.0000    0.0000   -0.0000    0.0001   -0.0005
   173 H11    1s        -0.0001   -0.0003   -0.0001    0.0004   -0.0001   -0.0000   -0.0000    0.0003    0.0002    0.0061
   174 H11    2s        -0.0000   -0.0001   -0.0001    0.0003   -0.0001   -0.0000   -0.0000    0.0002   -0.0003    0.0038
   175 H11    2px        0.0000   -0.0000    0.0000   -0.0001    0.0000    0.0000    0.0000   -0.0000    0.0001   -0.0006
   176 H11    2py       -0.0000   -0.0000   -0.0000    0.0000   -0.0000    0.0000   -0.0000    0.0001   -0.0001    0.0006
   177 H11    2pz       -0.0000   -0.0000    0.0000   -0.0000   -0.0000   -0.0000    0.0000   -0.0000   -0.0000    0.0003
   178 H12    1s         0.0002   -0.0010    0.0002   -0.0004    0.0003   -0.0001   -0.0001    0.0006   -0.0002   -0.0032
   179 H12    2s         0.0001   -0.0005    0.0002   -0.0003    0.0002    0.0000   -0.0001    0.0003   -0.0001   -0.0052
   180 H12    2px        0.0000    0.0000   -0.0000    0.0003   -0.0000    0.0000    0.0000   -0.0001    0.0000   -0.0002
   181 H12    2py       -0.0000   -0.0000    0.0000   -0.0004    0.0000    0.0000   -0.0000    0.0000   -0.0000    0.0007
   182 H12    2pz        0.0000   -0.0000   -0.0000   -0.0000   -0.0000    0.0000    0.0000    0.0000    0.0000   -0.0001
   183 H13    1s         0.0005    0.0001   -0.0003   -0.0005   -0.0002    0.0010   -0.0002   -0.0005    0.0002    0.0154
   184 H13    2s         0.0003    0.0001   -0.0001   -0.0002   -0.0001    0.0002   -0.0001   -0.0003    0.0001    0.0003
   185 H13    2px        0.0000    0.0000   -0.0000    0.0000    0.0000   -0.0000    0.0000    0.0000   -0.0000   -0.0004
   186 H13    2py       -0.0000    0.0000    0.0000    0.0000    0.0000   -0.0001   -0.0000    0.0001    0.0000    0.0001
   187 H13    2pz       -0.0000    0.0000    0.0000   -0.0000   -0.0001   -0.0001    0.0000    0.0000   -0.0000   -0.0013
   188 H14    1s        -0.0006   -0.0000    0.0005   -0.0006    0.0002    0.0006   -0.0001   -0.0004   -0.0003    0.0156
   189 H14    2s        -0.0004   -0.0000    0.0003   -0.0003    0.0002   -0.0001   -0.0001   -0.0003   -0.0002    0.0035
   190 H14    2px        0.0001   -0.0000   -0.0001    0.0000   -0.0001    0.0000    0.0000    0.0000    0.0000   -0.0015
   191 H14    2py       -0.0000    0.0000   -0.0000    0.0000    0.0000   -0.0000   -0.0000   -0.0000    0.0000    0.0009
   192 H14    2pz        0.0000   -0.0000    0.0000    0.0000   -0.0000   -0.0000   -0.0000   -0.0000   -0.0000   -0.0010
   193 H15    1s        -0.0013   -0.0000   -0.0011    0.0000   -0.0001   -0.0005   -0.0005   -0.0003   -0.0004    0.0453
   194 H15    2s        -0.0008   -0.0001   -0.0008    0.0000   -0.0002   -0.0003   -0.0002   -0.0001   -0.0003    0.0026
   195 H15    2px       -0.0001    0.0001   -0.0002    0.0001    0.0001   -0.0000   -0.0000   -0.0000   -0.0000    0.0024
   196 H15    2py       -0.0001    0.0000   -0.0005    0.0000    0.0001   -0.0000   -0.0000   -0.0000   -0.0001    0.0061
   197 H15    2pz        0.0000   -0.0001    0.0001    0.0000    0.0001   -0.0000   -0.0000    0.0001   -0.0000    0.0004
   198 H16    1s         0.0005   -0.0001   -0.0004    0.0001   -0.0003    0.0001    0.0008   -0.0000   -0.0001    0.0019
   199 H16    2s         0.0003   -0.0000   -0.0001    0.0000   -0.0003    0.0000    0.0000   -0.0000   -0.0000   -0.0036
   200 H16    2px        0.0000   -0.0000   -0.0000    0.0000   -0.0001    0.0000    0.0001   -0.0000   -0.0000    0.0004
   201 H16    2py       -0.0000    0.0000    0.0000    0.0000    0.0000    0.0000   -0.0000    0.0000   -0.0000   -0.0006
   202 H16    2pz        0.0000    0.0000   -0.0000    0.0000   -0.0000   -0.0000    0.0000    0.0000    0.0000    0.0001
   203 H17    1s        -0.0002    0.0002   -0.0002    0.0001   -0.0001   -0.0000    0.0011    0.0001    0.0001    0.0115
   204 H17    2s        -0.0001    0.0001   -0.0000    0.0000    0.0000    0.0000    0.0002    0.0001    0.0001   -0.0029
   205 H17    2px       -0.0000   -0.0000   -0.0000   -0.0000    0.0000   -0.0000   -0.0000   -0.0000    0.0000    0.0007
   206 H17    2py        0.0000   -0.0000   -0.0000   -0.0000    0.0000   -0.0000   -0.0001   -0.0000   -0.0000   -0.0010
   207 H17    2pz       -0.0000   -0.0000    0.0000   -0.0000    0.0000    0.0000    0.0000    0.0000   -0.0000    0.0003
   208 H18    1s         0.0002   -0.0000   -0.0006   -0.0001   -0.0004    0.0001    0.0006   -0.0002    0.0000    0.0130
   209 H18    2s         0.0001   -0.0000   -0.0003   -0.0000   -0.0003    0.0000   -0.0001   -0.0001   -0.0000    0.0039
   210 H18    2px       -0.0000    0.0000   -0.0000    0.0000    0.0000   -0.0000    0.0000    0.0000    0.0000   -0.0000
   211 H18    2py        0.0000    0.0000   -0.0000    0.0000   -0.0000    0.0000   -0.0000   -0.0000    0.0000    0.0005
   212 H18    2pz        0.0000   -0.0000   -0.0001   -0.0000   -0.0001    0.0000    0.0000   -0.0000    0.0000    0.0015
 
 
      Orbital                11        12        13        14        15        16        17        18        19        20
      Energy            -1.3590   -1.2565   -1.2183   -1.0139   -0.9678   -0.9275   -0.8144   -0.7823   -0.7098   -0.6892
      Occ. No.           2.0000    2.0000    2.0000    2.0000    2.0000    2.0000    2.0000    2.0000    2.0000    2.0000
 
     1 C1     1s        -0.0397    0.0036    0.0062   -0.0128   -0.0081    0.0024    0.0064   -0.0127   -0.0025   -0.0049
     2 C1     2s         0.3611    0.0081   -0.0845    0.2118    0.1543   -0.0037   -0.1284    0.3574    0.0559    0.1295
     3 C1     3s        -0.0065    0.0156    0.0046   -0.0115   -0.0087    0.0041    0.0035    0.0035   -0.0074   -0.0062
     4 C1     4s         0.0016    0.0048    0.0015   -0.0048   -0.0025    0.0023    0.0022   -0.0019   -0.0020   -0.0032
     5 C1     2px       -0.0463    0.0351   -0.1307    0.0368   -0.0442   -0.1100   -0.0754    0.1496   -0.0016   -0.0295
     6 C1     3px        0.0159   -0.0092    0.0522   -0.0485   -0.0143    0.0179    0.0172   -0.0296   -0.0078    0.0174
     7 C1     4px       -0.0155    0.0078   -0.0244   -0.0040   -0.0089   -0.0140   -0.0055    0.0107   -0.0031   -0.0007
     8 C1     2py        0.0916   -0.0005    0.0388   -0.1167   -0.1209   -0.0290   -0.0055    0.0182    0.0755   -0.0361
     9 C1     3py       -0.0682    0.0321   -0.0428   -0.0093    0.0168    0.0673   -0.0023   -0.0155   -0.0258    0.0116
    10 C1     4py        0.0209    0.0015    0.0061   -0.0210   -0.0201    0.0010   -0.0016    0.0017    0.0023    0.0009
    11 C1     2pz        0.0109   -0.0071    0.0015    0.0138    0.0178    0.0237    0.0012   -0.0099    0.0096    0.0175
    12 C1     3pz        0.0089   -0.0061   -0.0116    0.0078    0.0075    0.0103   -0.0056    0.0039    0.0046   -0.0031
    13 C1     4pz        0.0026   -0.0034   -0.0005    0.0031    0.0046    0.0044   -0.0015   -0.0003    0.0037    0.0030
    14 C1     3d2-      -0.0317    0.0064   -0.0163    0.0049    0.0086    0.0075   -0.0010    0.0122    0.0138   -0.0053
    15 C1     3d1-       0.0002   -0.0004    0.0004   -0.0010   -0.0022   -0.0012    0.0002   -0.0020   -0.0015    0.0000
    16 C1     3d0       -0.0271    0.0011    0.0034   -0.0089   -0.0045    0.0023    0.0057   -0.0118   -0.0022   -0.0041
    17 C1     3d1+      -0.0021   -0.0013    0.0032   -0.0019   -0.0009    0.0012    0.0016   -0.0041    0.0009    0.0030
    18 C1     3d2+      -0.0066    0.0060   -0.0250    0.0073   -0.0077   -0.0160   -0.0069    0.0114    0.0009   -0.0034
    19 C3     1s        -0.0100   -0.0096    0.0319    0.0386    0.0041   -0.0263   -0.0069   -0.0019   -0.0041   -0.0065
    20 C3     2s         0.0302    0.0670   -0.1789   -0.3242   -0.0334    0.3656    0.0864    0.0680    0.0901    0.0541
    21 C3     3s        -0.0178   -0.0145    0.0585    0.0701    0.0082   -0.0263   -0.0103   -0.0041   -0.0023   -0.0213
    22 C3     4s        -0.0024   -0.0015    0.0134    0.0179    0.0029   -0.0076   -0.0030   -0.0025   -0.0012   -0.0059
    23 C3     2px       -0.0316   -0.0226    0.0514   -0.0105   -0.0132    0.0426    0.0512   -0.0622   -0.0444    0.1688
    24 C3     3px       -0.0112    0.0103   -0.0153   -0.0334   -0.0210    0.0071   -0.0014    0.0050    0.0111   -0.0187
    25 C3     4px       -0.0026    0.0047   -0.0048   -0.0152   -0.0071    0.0164    0.0049   -0.0009   -0.0014    0.0050
    26 C3     2py       -0.0177   -0.0270    0.1032   -0.0178    0.0283    0.0470   -0.0978    0.1971   -0.1867    0.0623
    27 C3     3py        0.0047    0.0001    0.0135    0.0262   -0.0519   -0.0191   -0.0069    0.0035    0.0418   -0.0184
    28 C3     4py       -0.0044    0.0045    0.0119   -0.0048   -0.0023    0.0055   -0.0089    0.0116    0.0026    0.0010
    29 C3     2pz        0.0085   -0.0262   -0.0161    0.0482   -0.0380    0.0019    0.0610   -0.0149    0.1530    0.1725
    30 C3     3pz        0.0114   -0.0027   -0.0126   -0.0062    0.0153    0.0146   -0.0094    0.0036   -0.0231   -0.0134
    31 C3     4pz        0.0033    0.0012   -0.0076   -0.0051   -0.0018    0.0113    0.0054    0.0035    0.0049    0.0059
    32 C3     3d2-       0.0049    0.0034   -0.0172    0.0052   -0.0088   -0.0070    0.0048   -0.0033    0.0237   -0.0079
    33 C3     3d1-      -0.0016   -0.0030    0.0054    0.0084   -0.0041   -0.0020    0.0076   -0.0032    0.0110    0.0136
    34 C3     3d0       -0.0019    0.0005    0.0098   -0.0007    0.0068    0.0014   -0.0069    0.0096   -0.0074    0.0040
    35 C3     3d1+       0.0001    0.0029    0.0009   -0.0045    0.0046    0.0005   -0.0053    0.0055   -0.0070   -0.0099
    36 C3     3d2+      -0.0013    0.0012    0.0113    0.0026    0.0046   -0.0014   -0.0044    0.0096    0.0065    0.0024
    37 C4     1s         0.0024   -0.0073   -0.0040    0.0129   -0.0103    0.0015    0.0177    0.0001    0.0058    0.0005
    38 C4     2s         0.0081    0.1439   -0.0191   -0.2344    0.1840    0.0527   -0.3616   -0.0173   -0.2253   -0.0459
    39 C4     3s         0.0088    0.0038   -0.0126    0.0169   -0.0062    0.0060    0.0237   -0.0097    0.0081   -0.0086
    40 C4     4s         0.0026    0.0010   -0.0034    0.0066   -0.0022    0.0008    0.0074   -0.0038    0.0034    0.0000
    41 C4     2px        0.0049   -0.0783   -0.0371   -0.0257    0.0018    0.0623    0.0385    0.0700   -0.1233    0.0598
    42 C4     3px        0.0148    0.0090   -0.0084   -0.0096    0.0533   -0.0321   -0.0132   -0.0304    0.0403   -0.0002
    43 C4     4px        0.0027   -0.0155   -0.0073   -0.0043    0.0049    0.0038    0.0047    0.0016   -0.0068    0.0082
    44 C4     2py       -0.0201   -0.0811    0.0127    0.1214   -0.0862   -0.0090    0.0078   -0.0425   -0.0404    0.2144
    45 C4     3py        0.0038    0.0747    0.0015   -0.0352   -0.0137    0.0511   -0.0040    0.0230    0.0107   -0.0727
    46 C4     4py       -0.0059   -0.0134    0.0026    0.0111   -0.0137    0.0050   -0.0015   -0.0016   -0.0088    0.0109
    47 C4     2pz        0.0003   -0.1097   -0.0627   -0.0567   -0.0103    0.0900    0.1107    0.1246   -0.1711    0.0437
    48 C4     3pz       -0.0019   -0.0035   -0.0084   -0.0169    0.0688   -0.0736   -0.0061   -0.0715    0.0533    0.0134
    49 C4     4pz       -0.0009   -0.0251   -0.0100   -0.0088    0.0057    0.0004    0.0097    0.0023   -0.0086    0.0087
    50 C4     3d2-      -0.0009    0.0005    0.0032    0.0038    0.0053   -0.0117    0.0003   -0.0025   -0.0025   -0.0016
    51 C4     3d1-      -0.0009    0.0075    0.0060    0.0056    0.0087   -0.0175    0.0034   -0.0075    0.0010   -0.0047
    52 C4     3d0        0.0018    0.0187    0.0034   -0.0061    0.0047   -0.0003   -0.0128   -0.0044    0.0182   -0.0001
    53 C4     3d1+      -0.0004    0.0182    0.0048   -0.0107    0.0105   -0.0004   -0.0152   -0.0039    0.0042    0.0004
    54 C4     3d2+       0.0021    0.0141    0.0054    0.0020   -0.0004   -0.0007    0.0009   -0.0032    0.0141    0.0009
    55 C6     1s         0.0018   -0.0298   -0.0152   -0.0295    0.0396   -0.0268    0.0084   -0.0024    0.0057    0.0070
    56 C6     2s         0.0201    0.1657    0.0295    0.2064   -0.3145    0.2845   -0.1090    0.0273   -0.0391   -0.0860
    57 C6     3s         0.0127   -0.0421   -0.0405   -0.0503    0.0701   -0.0354    0.0189   -0.0060    0.0155    0.0213
    58 C6     4s         0.0038   -0.0061   -0.0091   -0.0102    0.0156   -0.0073    0.0059   -0.0019    0.0035    0.0071
    59 C6     2px        0.0077    0.0420    0.0116    0.0205    0.0032   -0.0117   -0.0144   -0.0452    0.1179    0.1580
    60 C6     3px        0.0069   -0.0117   -0.0079   -0.0005    0.0098    0.0002   -0.0022    0.0038   -0.0114   -0.0228
    61 C6     4px       -0.0000   -0.0004   -0.0012   -0.0054    0.0078   -0.0065    0.0013   -0.0036    0.0043    0.0080
    62 C6     2py       -0.0014   -0.0609   -0.0130   -0.0204    0.0089    0.0130   -0.1456   -0.0405    0.0414   -0.1826
    63 C6     3py        0.0007    0.0090    0.0092    0.0056   -0.0002   -0.0070    0.0044    0.0030    0.0004    0.0295
    64 C6     4py       -0.0000   -0.0018   -0.0006    0.0057   -0.0091    0.0078   -0.0122   -0.0033    0.0019   -0.0071
    65 C6     2pz        0.0035    0.0771    0.0168    0.0088    0.0157   -0.0296    0.0217   -0.0472    0.1286    0.2034
    66 C6     3pz        0.0021   -0.0099   -0.0133   -0.0180    0.0227   -0.0043    0.0058    0.0044   -0.0215   -0.0302
    67 C6     4pz        0.0006   -0.0016   -0.0017   -0.0074    0.0143   -0.0108    0.0034   -0.0039    0.0060    0.0112
    68 C6     3d2-      -0.0004   -0.0102   -0.0030   -0.0031    0.0010    0.0019   -0.0094   -0.0010   -0.0017   -0.0171
    69 C6     3d1-      -0.0003   -0.0175   -0.0052   -0.0045    0.0015    0.0033   -0.0127    0.0005   -0.0074   -0.0254
    70 C6     3d0       -0.0001    0.0040    0.0015    0.0006    0.0007   -0.0014   -0.0017   -0.0027    0.0026    0.0057
    71 C6     3d1+       0.0002    0.0111    0.0041    0.0038   -0.0015   -0.0020   -0.0030   -0.0069    0.0149    0.0194
    72 C6     3d2+      -0.0001   -0.0033   -0.0012   -0.0033    0.0021   -0.0003   -0.0077   -0.0018   -0.0019   -0.0079
    73 C19    1s        -0.0147   -0.0013    0.0070   -0.0356   -0.0513   -0.0358   -0.0104    0.0109   -0.0019    0.0052
    74 C19    2s        -0.0057   -0.0070   -0.0062    0.1769    0.3041    0.2756    0.0428   -0.0865    0.0421   -0.0394
    75 C19    3s        -0.0391   -0.0011    0.0205   -0.0734   -0.0984   -0.0567   -0.0270    0.0248   -0.0024    0.0099
    76 C19    4s        -0.0042    0.0017    0.0031   -0.0159   -0.0217   -0.0129   -0.0062    0.0073   -0.0018    0.0023
    77 C19    2px       -0.0087    0.0060   -0.0206    0.0435    0.0228   -0.0089   -0.0262    0.0498   -0.0501    0.0369
    78 C19    3px       -0.0064    0.0019    0.0026    0.0068   -0.0043   -0.0023    0.0032   -0.0039    0.0037   -0.0078
    79 C19    4px        0.0076   -0.0000   -0.0000   -0.0025   -0.0102   -0.0114   -0.0031    0.0023   -0.0050    0.0026
    80 C19    2py        0.0200    0.0036   -0.0042    0.0313    0.0244   -0.0012   -0.0298    0.0701   -0.0259    0.0960
    81 C19    3py       -0.0095    0.0060    0.0058   -0.0201   -0.0255   -0.0153    0.0033   -0.0092   -0.0052   -0.0129
    82 C19    4py        0.0046    0.0006    0.0005   -0.0074   -0.0145   -0.0151   -0.0042    0.0123   -0.0003    0.0038
    83 C19    2pz       -0.0058   -0.0042    0.0101   -0.0105   -0.0119   -0.0111   -0.0004   -0.0109    0.0146   -0.0015
    84 C19    3pz       -0.0052   -0.0050    0.0071   -0.0033   -0.0055   -0.0101   -0.0053   -0.0037   -0.0011    0.0050
    85 C19    4pz       -0.0017   -0.0012   -0.0000    0.0014    0.0023    0.0024   -0.0008   -0.0025    0.0012    0.0002
    86 C19    3d2-       0.0006    0.0012   -0.0056    0.0080    0.0062    0.0003   -0.0035    0.0080   -0.0010    0.0066
    87 C19    3d1-      -0.0005   -0.0002    0.0005   -0.0014   -0.0013   -0.0005    0.0003   -0.0011    0.0008   -0.0013
    88 C19    3d0        0.0010   -0.0002    0.0005   -0.0057   -0.0063   -0.0025    0.0013   -0.0037    0.0041   -0.0039
    89 C19    3d1+       0.0016   -0.0002    0.0005   -0.0012   -0.0005    0.0004    0.0008   -0.0014    0.0012   -0.0007
    90 C19    3d2+      -0.0066    0.0012   -0.0026   -0.0047   -0.0059   -0.0031    0.0009   -0.0036    0.0014   -0.0060
    91 N2     1s        -0.0187   -0.0090    0.0371   -0.0063    0.0017    0.0043   -0.0016    0.0048    0.0023   -0.0018
    92 N2     2s         0.1592    0.1159   -0.5763    0.1109   -0.1370   -0.1970   -0.0114   -0.1014    0.0122   -0.0667
    93 N2     3s        -0.0446   -0.0166    0.0612   -0.0071   -0.0045   -0.0015   -0.0063    0.0092    0.0054   -0.0113
    94 N2     4s        -0.0114   -0.0055    0.0220   -0.0018    0.0014    0.0019   -0.0017    0.0030    0.0001   -0.0017
    95 N2     2px       -0.0250    0.0009    0.0148   -0.1001   -0.0758    0.0722    0.1416   -0.3733   -0.0378   -0.0076
    96 N2     3px        0.0279   -0.0031    0.0087    0.0464   -0.0129   -0.0430   -0.0548    0.1015    0.0045    0.0015
    97 N2     4px       -0.0035    0.0017   -0.0033    0.0001   -0.0078   -0.0049   -0.0030    0.0001   -0.0038   -0.0005
    98 N2     2py        0.0289    0.0017    0.0151   -0.1166   -0.0417    0.0685    0.0324    0.1433    0.3441   -0.1065
    99 N2     3py        0.0029   -0.0180    0.0547    0.0428   -0.0054   -0.0680   -0.0126   -0.0170   -0.0691    0.0137
   100 N2     4py       -0.0079   -0.0032    0.0146   -0.0024   -0.0006   -0.0050   -0.0046    0.0087   -0.0004    0.0002
   101 N2     2pz        0.0070   -0.0019   -0.0008    0.0367    0.0002   -0.0092   -0.0126    0.0219    0.0396    0.0776
   102 N2     3pz        0.0007    0.0083   -0.0061    0.0019   -0.0036    0.0100    0.0038   -0.0108   -0.0015   -0.0174
   103 N2     4pz        0.0019    0.0011   -0.0019    0.0032   -0.0011    0.0015   -0.0003   -0.0010   -0.0008   -0.0034
   104 N2     3d2-      -0.0022    0.0023   -0.0077   -0.0036    0.0017    0.0089    0.0036    0.0044    0.0155   -0.0017
   105 N2     3d1-      -0.0003   -0.0011    0.0026    0.0019   -0.0002   -0.0007   -0.0002   -0.0002   -0.0004    0.0050
   106 N2     3d0       -0.0033   -0.0027    0.0149   -0.0012    0.0031    0.0030    0.0006    0.0004   -0.0015   -0.0013
   107 N2     3d1+      -0.0012   -0.0005    0.0032   -0.0003   -0.0003    0.0004    0.0012   -0.0009   -0.0000    0.0010
   108 N2     3d2+       0.0049    0.0005   -0.0034    0.0093    0.0020   -0.0076   -0.0080    0.0184    0.0023    0.0041
   109 N5     1s        -0.0024   -0.0410   -0.0096   -0.0023   -0.0031    0.0009   -0.0031   -0.0009    0.0033    0.0022
   110 N5     2s         0.0158    0.5668    0.1724   -0.0008    0.1097   -0.1871    0.1739   -0.0240    0.1111    0.1406
   111 N5     3s        -0.0037   -0.0802   -0.0170   -0.0137    0.0041   -0.0132   -0.0016   -0.0044    0.0153    0.0114
   112 N5     4s        -0.0004   -0.0260   -0.0067   -0.0042    0.0011   -0.0012   -0.0021   -0.0003    0.0012    0.0007
   113 N5     2px       -0.0015    0.0130   -0.0182   -0.0819    0.0909   -0.0339   -0.1855   -0.0897    0.0712   -0.1381
   114 N5     3px       -0.0028    0.0184   -0.0134    0.0114   -0.0360    0.0309    0.0543    0.0109   -0.0141    0.0247
   115 N5     4px       -0.0013   -0.0009   -0.0031   -0.0050   -0.0022    0.0034    0.0001   -0.0011   -0.0016    0.0032
   116 N5     2py       -0.0119   -0.0010    0.0169    0.0490   -0.0527    0.0491   -0.3141   -0.1962    0.2451    0.2212
   117 N5     3py       -0.0148   -0.0461    0.0004   -0.0269    0.0446   -0.0526    0.0650    0.0185   -0.0516   -0.0202
   118 N5     4py       -0.0043   -0.0119    0.0015   -0.0060    0.0006   -0.0059   -0.0078   -0.0024   -0.0008   -0.0013
   119 N5     2pz        0.0162    0.0274   -0.0222   -0.1121    0.1543   -0.0785   -0.1776   -0.0738    0.0358   -0.2736
   120 N5     3pz        0.0200   -0.0028   -0.0251    0.0501   -0.0502    0.0525    0.0407    0.0144    0.0120    0.0517
   121 N5     4pz        0.0032   -0.0016   -0.0048    0.0000    0.0020    0.0037    0.0006    0.0001    0.0014    0.0064
   122 N5     3d2-      -0.0002    0.0016    0.0010   -0.0046    0.0075   -0.0078    0.0011    0.0002   -0.0038   -0.0087
   123 N5     3d1-      -0.0004   -0.0021   -0.0004   -0.0055    0.0099   -0.0073   -0.0120   -0.0066    0.0014   -0.0095
   124 N5     3d0        0.0009    0.0068    0.0005   -0.0029    0.0027    0.0014   -0.0116   -0.0040    0.0050   -0.0038
   125 N5     3d1+       0.0004    0.0171    0.0044   -0.0008    0.0021   -0.0009   -0.0074   -0.0037    0.0045   -0.0000
   126 N5     3d2+       0.0004   -0.0037   -0.0021   -0.0025    0.0016    0.0037   -0.0096   -0.0026    0.0010   -0.0026
   127 O7     1s        -0.0237    0.0020   -0.0047   -0.0019   -0.0025   -0.0014    0.0026   -0.0099   -0.0057   -0.0050
   128 O7     2s         0.6694   -0.1192    0.3150   -0.1578   -0.1397   -0.0250    0.0812   -0.2922   -0.1363   -0.0883
   129 O7     3s        -0.0287   -0.0015    0.0054   -0.0132   -0.0135   -0.0062    0.0094   -0.0355   -0.0186   -0.0150
   130 O7     4s        -0.0124    0.0006   -0.0012   -0.0022   -0.0024   -0.0016    0.0016   -0.0069   -0.0038   -0.0029
   131 O7     2px        0.0898   -0.0042    0.0043   -0.0003   -0.0129   -0.0265   -0.0485    0.1392    0.0833    0.0316
   132 O7     3px       -0.0244    0.0064   -0.0051   -0.0070   -0.0056    0.0058    0.0025   -0.0194   -0.0096   -0.0004
   133 O7     4px       -0.0011    0.0013   -0.0008   -0.0015   -0.0003    0.0023    0.0000   -0.0023   -0.0003    0.0006
   134 O7     2py       -0.1113    0.0242   -0.0487   -0.0123   -0.0197   -0.0204    0.0119   -0.0871   -0.0829   -0.0844
   135 O7     3py        0.0381    0.0035    0.0011    0.0070    0.0090    0.0041   -0.0059    0.0174    0.0068    0.0096
   136 O7     4py        0.0008    0.0020    0.0008   -0.0010    0.0001    0.0021   -0.0005    0.0014    0.0010    0.0009
   137 O7     2pz        0.0040   -0.0049   -0.0002    0.0099    0.0060   -0.0006    0.0027    0.0023    0.0028    0.0048
   138 O7     3pz        0.0009   -0.0038    0.0001    0.0017    0.0022   -0.0073    0.0035    0.0036    0.0004   -0.0018
   139 O7     4pz        0.0007   -0.0010   -0.0000    0.0003    0.0008   -0.0023    0.0013    0.0005   -0.0003   -0.0005
   140 O7     3d2-      -0.0176    0.0023   -0.0047    0.0006    0.0018    0.0016    0.0025   -0.0084   -0.0057   -0.0034
   141 O7     3d1-       0.0001   -0.0001   -0.0002   -0.0003   -0.0004   -0.0003   -0.0001    0.0004   -0.0002   -0.0004
   142 O7     3d0       -0.0102    0.0017   -0.0044    0.0016    0.0010   -0.0006    0.0009   -0.0029   -0.0032   -0.0020
   143 O7     3d1+      -0.0001   -0.0004   -0.0004    0.0007    0.0005    0.0003    0.0000   -0.0001    0.0002    0.0007
   144 O7     3d2+      -0.0048    0.0016   -0.0048   -0.0004   -0.0028   -0.0043   -0.0019    0.0029   -0.0002   -0.0033
   145 O8     1s         0.0009    0.0025    0.0008    0.0031   -0.0029   -0.0023    0.0136    0.0005    0.0162   -0.0131
   146 O8     2s        -0.0635   -0.3066   -0.0116    0.1780   -0.1054   -0.0844    0.3501    0.0199    0.2694   -0.2225
   147 O8     3s        -0.0011   -0.0089    0.0010    0.0140   -0.0105   -0.0096    0.0433    0.0011    0.0464   -0.0373
   148 O8     4s         0.0003    0.0002   -0.0001    0.0020   -0.0014   -0.0020    0.0083    0.0001    0.0095   -0.0080
   149 O8     2px        0.0027    0.0006   -0.0063   -0.0068   -0.0095    0.0152    0.0675    0.0410    0.0341   -0.0787
[...]
AIVX     1  Mu1.0001  In1.023 Se1.046               0.27711021     -0.00060997      0.00104739     -0.00000064
AIVX     1  Mu1.0001  In1.024 Se1.046               0.24826339     -0.00142828      0.00230424     -0.00000329
AIVX     1  Mu1.0001  In1.025 Se1.046               0.26360234      0.00025049     -0.00041416     -0.00000010
AIVX     1  Mu1.0001  In1.026 Se1.046               0.24189594     -0.00045016      0.00077858     -0.00000035
AIVX     1  Mu1.0001  In1.027 Se1.046               0.10351152     -0.00256465      0.00548946     -0.00001408
AIVX     1  Mu1.0001  In1.028 Se1.046               0.13071623      0.00022116     -0.00057529     -0.00000013
AIVX     1  Mu1.0001  In1.029 Se1.046               0.11769269      0.00101708     -0.00207811     -0.00000211
AIVX     1  Mu1.0001  In1.022 Se1.047               0.19071968     -0.00036616      0.00080095     -0.00000029
AIVX     1  Mu1.0001  In1.023 Se1.047               0.28761946     -0.00025512      0.00044122     -0.00000011
AIVX     1  Mu1.0001  In1.024 Se1.047               0.25877264      0.00112166     -0.00199633     -0.00000224
AIVX     1  Mu1.0001  In1.025 Se1.047               0.27411159      0.00002154      0.00001309      0.00000000
AIVX     1  Mu1.0001  In1.026 Se1.047               0.25240518     -0.00056384      0.00092099     -0.00000052
AIVX     1  Mu1.0001  In1.027 Se1.047               0.11402077      0.00155235     -0.00313798     -0.00000487
AIVX     1  Mu1.0001  In1.028 Se1.047               0.14122548      0.00047330     -0.00122342     -0.00000058
AIVX     1  Mu1.0001  In1.029 Se1.047               0.12820194     -0.00003570      0.00002888     -0.00000000
AIVX     1  Mu1.0001  In1.022 Se1.048               0.20876581      0.00061887     -0.00097857     -0.00000061
AIVX     1  Mu1.0001  In1.024 Se1.048               0.27681877     -0.00041452      0.00146294     -0.00000061
AIVX     1  Mu1.0001  In1.025 Se1.048               0.29215772     -0.00090770      0.00063981     -0.00000058
AIVX     1  Mu1.0001  In1.026 Se1.048               0.27045132      0.00065805     -0.00110139     -0.00000072
AIVX     1  Mu1.0001  In1.027 Se1.048               0.13206690     -0.00026342     -0.00011159      0.00000003
AIVX     1  Mu1.0001  In1.028 Se1.048               0.15927161     -0.00032653      0.00122158     -0.00000040
AIVX     1  Mu1.0001  In1.029 Se1.048               0.14624807     -0.00058534      0.00107316     -0.00000063
AIVX     1  Mu1.0001  In1.022 Se1.049               0.21460313     -0.00183538      0.00329343     -0.00000604
AIVX     1  Mu1.0001  In1.024 Se1.049               0.28265609     -0.00103993      0.00215316     -0.00000224
AIVX     1  Mu1.0001  In1.025 Se1.049               0.29799504     -0.00150633      0.00201063     -0.00000303
AIVX     1  Mu1.0001  In1.026 Se1.049               0.27628864      0.00120377     -0.00206011     -0.00000248
AIVX     1  Mu1.0001  In1.027 Se1.049               0.13790422      0.00056515     -0.00144466     -0.00000082
AIVX     1  Mu1.0001  In1.028 Se1.049               0.16510893     -0.00031468      0.00122314     -0.00000038
AIVX     1  Mu1.0001  In1.029 Se1.049               0.15208539      0.00024283     -0.00064605     -0.00000016
AIVX     1  Mu1.0001  In1.022 Se1.050               0.22977346     -0.00227449      0.00402125     -0.00000915
AIVX     1  Mu1.0001  In1.024 Se1.050               0.29782642      0.00056390     -0.00029984     -0.00000017
AIVX     1  Mu1.0001  In1.026 Se1.050               0.29145897      0.00079179     -0.00108552     -0.00000086
AIVX     1  Mu1.0001  In1.027 Se1.050               0.15307455      0.00081274     -0.00198181     -0.00000161
AIVX     1  Mu1.0001  In1.028 Se1.050               0.18027926      0.00077945     -0.00181944     -0.00000142
AIVX     1  Mu1.0001  In1.029 Se1.050               0.16725572     -0.00104469      0.00196753     -0.00000206
AIVX     1  Mu1.0001  In1.022 Se1.051               0.22195346     -0.00007192      0.00023481     -0.00000002
AIVX     1  Mu1.0001  In1.024 Se1.051               0.29000642     -0.00039217      0.00101501     -0.00000040
AIVX     1  Mu1.0001  In1.026 Se1.051               0.28363897      0.00142985     -0.00230438     -0.00000329
AIVX     1  Mu1.0001  In1.027 Se1.051               0.14525456     -0.00032045      0.00031217     -0.00000010
AIVX     1  Mu1.0001  In1.028 Se1.051               0.17245926      0.00015250     -0.00026403     -0.00000004
AIVX     1  Mu1.0001  In1.029 Se1.051               0.15943573     -0.00061810      0.00114688     -0.00000071
AIVX     1  Mu1.0001  In1.022 Se1.052               0.26048802      0.00052491     -0.00100195     -0.00000053
AIVX     1  Mu1.0001  In1.027 Se1.052               0.18378912     -0.00189535      0.00298052     -0.00000565
AIVX     1  Mu1.0001  In1.028 Se1.052               0.21099382      0.00025406     -0.00038251     -0.00000010
AIVX     1  Mu1.0001  In1.029 Se1.052               0.19797029     -0.00053589      0.00092370     -0.00000049
AIVX     1  Mu1.0001  In1.022 Se1.053               0.28151798      0.00118216     -0.00159549     -0.00000189
AIVX     1  Mu1.0001  In1.027 Se1.053               0.20481907     -0.00074558      0.00107817     -0.00000080
AIVX     1  Mu1.0001  In1.028 Se1.053               0.23202378      0.00035028     -0.00083497     -0.00000029
AIVX     1  Mu1.0001  In1.029 Se1.053               0.21900024      0.00164643     -0.00289913     -0.00000477
AIVX     1  Mu1.0001  In1.022 Se1.054               0.29571635      0.00059364     -0.00089487     -0.00000053
AIVX     1  Mu1.0001  In1.027 Se1.054               0.21901744      0.00035231     -0.00059865     -0.00000021
AIVX     1  Mu1.0001  In1.028 Se1.054               0.24622215      0.00041723     -0.00095913     -0.00000040
AIVX     1  Mu1.0001  In1.029 Se1.054               0.23319862      0.00006071     -0.00016909     -0.00000001
AIVX     1  Mu1.0001  In1.027 Se1.055               0.23892227     -0.00049806      0.00063053     -0.00000031
AIVX     1  Mu1.0001  In1.028 Se1.055               0.26612698      0.00119971     -0.00224344     -0.00000269
AIVX     1  Mu1.0001  In1.029 Se1.055               0.25310344     -0.00118340      0.00173665     -0.00000206
AIVX     1  Mu1.0001  In1.027 Se1.056               0.23179591     -0.00062670      0.00154078     -0.00000097
AIVX     1  Mu1.0001  In1.028 Se1.056               0.25900062     -0.00178079      0.00329407     -0.00000587
AIVX     1  Mu1.0001  In1.029 Se1.056               0.24597708     -0.00055054      0.00105263     -0.00000058
AIVX     1  Mu1.0001  In1.027 Se1.057               0.26318789      0.00143991     -0.00191620     -0.00000276
AIVX     1  Mu1.0001  In1.028 Se1.057               0.29039260      0.00092018     -0.00154609     -0.00000142
AIVX     1  Mu1.0001  In1.029 Se1.057               0.27736906     -0.00031333      0.00083286     -0.00000026
AIVX     1  Mu1.0001  In1.027 Se1.058               0.25890197     -0.00042099      0.00080940     -0.00000034
AIVX     1  Mu1.0001  In1.028 Se1.058               0.28610668     -0.00045361      0.00068350     -0.00000031
AIVX     1  Mu1.0001  In1.029 Se1.058               0.27308314      0.00139023     -0.00226404     -0.00000315
AIVX     1  Mu1.0001  In1.027 Se1.059               0.28047173     -0.00089602      0.00118487     -0.00000106
AIVX     1  Mu1.0001  In1.029 Se1.059               0.29465290     -0.00006950      0.00016319     -0.00000001
AIVX     1  Mu1.0001  In1.027 Se1.060               0.28657801     -0.00076159      0.00085855     -0.00000065
--
 
   (Skipping property calculation,
    use PROP keyword to activate)
--
 
  Total CASPT2 energies:
::    CASPT2 Root  1     Total energy:   -455.37679388
::    CASPT2 Root  2     Total energy:   -455.16329092
::    CASPT2 Root  3     Total energy:   -455.17196834
::    CASPT2 Root  4     Total energy:   -455.12640146
::    CASPT2 Root  5     Total energy:   -455.12055857
::    CASPT2 Root  6     Total energy:   -455.10800251
::    CASPT2 Root  7     Total energy:   -455.07679251
 
++ Multi-State CASPT2 section:
********************************************************************************
  MULTI-STATE CASPT2 SECTION
--------------------------------------------------------------------------------
 
  Output diagonal energies have been shifted. Add   -455.000000000000     
 
  Effective Hamiltonian matrix (Symmetric):
 
                1               2               3               4               5
   1        -0.37679388
   2        -0.00041089     -0.16329092
   3         0.00007354     -0.00065664     -0.17196834
   4         0.01140584     -0.00037061      0.00092732     -0.12640146
   5        -0.01788244      0.00020462      0.00169926      0.00272741     -0.12055857
   6         0.01083394      0.00071422      0.00229016      0.00317706      0.02055216
   7         0.00957789      0.00085008     -0.00004462     -0.00971775      0.00681727
 
                6               7
   6        -0.10800251
   7        -0.00062318     -0.07679251
 
       Total MS-CASPT2 energies:
::    MS-CASPT2 Root  1     Total energy:   -455.37947337
::    MS-CASPT2 Root  2     Total energy:   -455.17213563
::    MS-CASPT2 Root  3     Total energy:   -455.16325849
::    MS-CASPT2 Root  4     Total energy:   -455.13441832
::    MS-CASPT2 Root  5     Total energy:   -455.12815218
::    MS-CASPT2 Root  6     Total energy:   -455.09244766
::    MS-CASPT2 Root  7     Total energy:   -455.07392254
 
       Eigenvectors:
            0.99458850     -0.00043770     -0.00256966      0.08977435      0.04898752
            0.00202493      0.07612754      0.99691760      0.00988755     -0.00963247
           -0.00025485      0.99632793     -0.07625094     -0.00009728      0.01210708
           -0.04638616     -0.01634064      0.01118596      0.02182579      0.97274097
            0.07365276     -0.02084055      0.00321539     -0.80051854     -0.04360169
           -0.04480834     -0.02886934     -0.01115807      0.58523515     -0.13073128
           -0.03471840     -0.00053254     -0.00863256      0.08964549      0.17928772
 
           -0.00350767      0.01775995
            0.00710681      0.01071161
            0.03694609      0.00218787
            0.15443317     -0.16402809
            0.57215064      0.15505871
            0.79562903      0.06646714
           -0.11975254      0.97169890
 
--
 
  THE ORIGINAL CI ARRAYS ARE NOW MIXED AS LINEAR
  COMBINATIONS, GIVEN BY THE EIGENVECTORS.
  A NEW JOBIPH FILE NAMED 'JOBMIX' IS PREPARED.
********************************************************************************
 
++ Mixed CI coefficients:
  The CI coefficients for the MIXED state nr.   1
--------------------------------------------------------------------------------
 CI COEFFICIENTS LARGER THAN  0.50D-01
  Occupation of active orbitals, and spin coupling
  of open shells. (u,d: Spin up or down).
  SGUGA info is (Midvert:IsyUp:UpperWalk/LowerWalk)
        Conf  SGUGA info        Occupation    Coefficient         Weight
           1  ( 1:1:   1/   1)   22222200       -0.961627       0.924727
           6  ( 1:1:   6/   1)   22220220        0.106257       0.011291
          41  ( 2:1:   1/   2)   22u222d0        0.100580       0.010116
          61  ( 2:1:   1/   3)   2u2222d0        0.090879       0.008259
          84  ( 2:1:   4/   4)   u222220d       -0.117094       0.013711
         105  ( 3:1:   5/   1)   22202202        0.071250       0.005077
         171  ( 3:1:   1/   8)   20222220        0.082910       0.006874
         195  ( 3:1:   5/  10)   02222202        0.075320       0.005673
 
  The CI coefficients for the MIXED state nr.   2
--------------------------------------------------------------------------------
 CI COEFFICIENTS LARGER THAN  0.50D-01
  Occupation of active orbitals, and spin coupling
  of open shells. (u,d: Spin up or down).
  SGUGA info is (Midvert:IsyUp:UpperWalk/LowerWalk)
        Conf  SGUGA info        Occupation    Coefficient         Weight
          24  ( 2:1:   4/   1)   222u220d        0.447169       0.199960
          44  ( 2:1:   4/   2)   22u2220d       -0.834615       0.696583
          46  ( 2:1:   6/   2)   22u2d2ud        0.056141       0.003152
          48  ( 2:1:   8/   2)   22u2u2dd        0.077673       0.006033
          52  ( 2:1:  12/   2)   22u2022d        0.080730       0.006517
         105  ( 3:1:   5/   1)   22202202       -0.103427       0.010697
         115  ( 3:1:   5/   2)   22ud2202        0.087995       0.007743
         135  ( 3:1:   5/   4)   u22d2202       -0.060117       0.003614
         142  ( 3:1:   2/   5)   220222ud        0.067816       0.004599
         145  ( 3:1:   5/   5)   22022202        0.102309       0.010467
         165  ( 3:1:   5/   7)   u2d22202        0.111673       0.012471
         219  ( 4:1:   1/   4)   2uu222dd       -0.071574       0.005123
         221  ( 4:1:   3/   4)   2uu2d22d       -0.050766       0.002577
         293  ( 5:1:   1/  15)   20u2222d       -0.079510       0.006322
 
  The CI coefficients for the MIXED state nr.   3
--------------------------------------------------------------------------------
 CI COEFFICIENTS LARGER THAN  0.50D-01
  Occupation of active orbitals, and spin coupling
  of open shells. (u,d: Spin up or down).
  SGUGA info is (Midvert:IsyUp:UpperWalk/LowerWalk)
        Conf  SGUGA info        Occupation    Coefficient         Weight
           2  ( 1:1:   2/   1)   22222ud0        0.950797       0.904016
           3  ( 1:1:   3/   1)   2222u2d0       -0.072560       0.005265
           5  ( 1:1:   5/   1)   2222ud20        0.127272       0.016198
           7  ( 1:1:   7/   1)   22222u0d        0.069700       0.004858
          42  ( 2:1:   2/   2)   22u22d20       -0.053856       0.002900
          62  ( 2:1:   2/   3)   2u222d20        0.166779       0.027815
          85  ( 2:1:   5/   4)   u2222dud        0.059282       0.003514
          87  ( 2:1:   7/   4)   u2222udd        0.098026       0.009609
         106  ( 3:1:   6/   1)   22202ud2       -0.070297       0.004942
         136  ( 3:1:   6/   4)   u22d2ud2       -0.051297       0.002631
         196  ( 3:1:   6/  10)   02222ud2       -0.078416       0.006149
 
  The CI coefficients for the MIXED state nr.   4
--------------------------------------------------------------------------------
 CI COEFFICIENTS LARGER THAN  0.50D-01
  Occupation of active orbitals, and spin coupling
  of open shells. (u,d: Spin up or down).
  SGUGA info is (Midvert:IsyUp:UpperWalk/LowerWalk)
        Conf  SGUGA info        Occupation    Coefficient         Weight
           2  ( 1:1:   2/   1)   22222ud0        0.069831       0.004876
           3  ( 1:1:   3/   1)   2222u2d0        0.912873       0.833337
           6  ( 1:1:   6/   1)   22220220       -0.156160       0.024386
           8  ( 1:1:   8/   1)   2222u20d        0.112394       0.012632
          41  ( 2:1:   1/   2)   22u222d0       -0.095559       0.009131
          61  ( 2:1:   1/   3)   2u2222d0       -0.065097       0.004238
          63  ( 2:1:   3/   3)   2u22d220        0.240975       0.058069
          86  ( 2:1:   6/   4)   u222d2ud        0.059654       0.003559
          88  ( 2:1:   8/   4)   u222u2dd        0.101082       0.010217
         107  ( 3:1:   7/   1)   2220u2d2       -0.068122       0.004641
         171  ( 3:1:   1/   8)   20222220        0.103034       0.010616
         197  ( 3:1:   7/  10)   0222u2d2       -0.073729       0.005436
 
  The CI coefficients for the MIXED state nr.   5
--------------------------------------------------------------------------------
 CI COEFFICIENTS LARGER THAN  0.50D-01
  Occupation of active orbitals, and spin coupling
  of open shells. (u,d: Spin up or down).
  SGUGA info is (Midvert:IsyUp:UpperWalk/LowerWalk)
        Conf  SGUGA info        Occupation    Coefficient         Weight
           7  ( 1:1:   7/   1)   22222u0d        0.262045       0.068667
           8  ( 1:1:   8/   1)   2222u20d       -0.326963       0.106905
          24  ( 2:1:   4/   1)   222u220d       -0.740946       0.549001
          26  ( 2:1:   6/   1)   222ud2ud        0.054718       0.002994
          28  ( 2:1:   8/   1)   222uu2dd        0.077319       0.005978
          32  ( 2:1:  12/   1)   222u022d        0.075049       0.005632
          41  ( 2:1:   1/   2)   22u222d0        0.064647       0.004179
          44  ( 2:1:   4/   2)   22u2220d       -0.396591       0.157284
          84  ( 2:1:   4/   4)   u222220d        0.071909       0.005171
         135  ( 3:1:   5/   4)   u22d2202        0.178188       0.031751
         165  ( 3:1:   5/   7)   u2d22202        0.093002       0.008649
         195  ( 3:1:   5/  10)   02222202        0.062569       0.003915
         201  ( 4:1:   1/   1)   22uu22dd       -0.052951       0.002804
         207  ( 4:1:   1/   2)   2u2u22dd       -0.061760       0.003814
         261  ( 5:1:   1/   7)   202u222d       -0.070533       0.004975
 
  The CI coefficients for the MIXED state nr.   6
--------------------------------------------------------------------------------
 CI COEFFICIENTS LARGER THAN  0.50D-01
  Occupation of active orbitals, and spin coupling
  of open shells. (u,d: Spin up or down).
  SGUGA info is (Midvert:IsyUp:UpperWalk/LowerWalk)
        Conf  SGUGA info        Occupation    Coefficient         Weight
           3  ( 1:1:   3/   1)   2222u2d0        0.102209       0.010447
           7  ( 1:1:   7/   1)   22222u0d       -0.095121       0.009048
           8  ( 1:1:   8/   1)   2222u20d       -0.883492       0.780559
          24  ( 2:1:   4/   1)   222u220d        0.285643       0.081592
          44  ( 2:1:   4/   2)   22u2220d        0.122890       0.015102
          46  ( 2:1:   6/   2)   22u2d2ud       -0.137085       0.018792
          66  ( 2:1:   6/   3)   2u22d2ud       -0.141996       0.020163
          68  ( 2:1:   8/   3)   2u22u2dd       -0.156373       0.024453
         135  ( 3:1:   5/   4)   u22d2202       -0.051237       0.002625
         174  ( 3:1:   4/   8)   2022u22d       -0.114341       0.013074
 
  The CI coefficients for the MIXED state nr.   7
--------------------------------------------------------------------------------
 CI COEFFICIENTS LARGER THAN  0.50D-01
  Occupation of active orbitals, and spin coupling
  of open shells. (u,d: Spin up or down).
  SGUGA info is (Midvert:IsyUp:UpperWalk/LowerWalk)
        Conf  SGUGA info        Occupation    Coefficient         Weight
           2  ( 1:1:   2/   1)   22222ud0        0.064922       0.004215
           7  ( 1:1:   7/   1)   22222u0d       -0.866839       0.751409
          10  ( 1:1:  10/   1)   2222udud       -0.168696       0.028458
          12  ( 1:1:  12/   1)   2222uudd        0.246609       0.060816
          24  ( 2:1:   4/   1)   222u220d       -0.225045       0.050645
          27  ( 2:1:   7/   1)   222u2udd       -0.053966       0.002912
          44  ( 2:1:   4/   2)   22u2220d       -0.152971       0.023400
          45  ( 2:1:   5/   2)   22u22dud       -0.139614       0.019492
          47  ( 2:1:   7/   2)   22u22udd        0.159683       0.025499
          70  ( 2:1:  10/   3)   2u22du2d        0.061624       0.003798
          93  ( 2:1:  13/   4)   u2222d02        0.052100       0.002714
         135  ( 3:1:   5/   4)   u22d2202        0.050878       0.002589
         173  ( 3:1:   3/   8)   20222u2d       -0.071211       0.005071
 
--
 
--- Stop Module: caspt2 at Tue Jun 10 21:39:02 2025 /rc=_RC_ALL_IS_WELL_ ---
*** files: xmldump
    saved to directory /home/pcaah4/diamide_project
--- Module caspt2 spent 6 minutes 48 seconds ---

.##################.
.# Happy landing! #.
.##################.

    Timing: Wall=675.97 User=588.50 System=77.34
******************************************************
*** WorkDir at /srv/COMMUNAL_SCRATCH/12476 cleaned ***
******************************************************
