   This run of MOLCAS is using the pymolcas driver

                             OPE
                             OPE          NMOL  CASOP  ENMOLC A   SO
                 OPE        NMOLC        AS  OP EN  MO LC     AS  OP
                OPENM       OL CA        SO  PE NM  OL CA     SOP EN
                OP EN      MO   LC       AS  OP ENMOL  CASO   PENMOL
                OP  EN     MO   LC       AS  OP EN     MO     LC ASO
               OP   E  NMOL  C  AS       OP  EN MO     LC     AS  OP
               OP  E   NMO   LC AS        OPEN  MO     LCASOP EN   M
               O  PEN   MO  LCA  SO
            OPE   NMO   L   CAS    OP
        OPENMOL  CASOP     ENMOL   CASOPE
     OPENMOLCA   SOPENMOLCASOPEN   MOLCASOPE
    OPENMOLCAS   OP           EN   MOL    CAS
    OPENMOLCAS       OP  ENM        O     LCA
    OPENMOLCAS    OPEN  MOLCASO     P  E  NMO
    OPENMOLCAS     OP               E  N  MOL
    OPENMOLCA   SO           PENM   O  L  CAS    OPEN    MO    LCAS
    OPENMOLCA   SOP           ENM   O  L  CAS   OP  EN  MOLC  AS   O
    OPENMOLCA   SOPE           NM      O  LCA   S      OP  EN MO
    OPENMOLC                AS         O  PEN   M      OL  CA  SOPE
    OPENMO        LCASOPE  NMOL        C  ASO   P      ENMOLC     AS
    OPE     NMO      LCA  SO     P     E   NM   OL  CA SO  PE N   MO
          OPENMOLCA            SOPE   NMO        LCAS  O    P  ENMO
     OPENMOLCASOPENMOLCASOPENMOLCASOPENMOLCA
        OPENMOLCASOPENMOLCASOPENMOLCASOPE
            OPENMOLCASOPENMOLCASOPENM
               OPENMOLCASOPENMOLCA        version: v23.06
                   OPENMOLCASO
                       OPE                tag:

 OpenMolcas is free software; you can redistribute it and/or modify it
 under the terms of the GNU Lesser General Public License version 2.1.
 OpenMolcas is distributed in the hope that it will be useful, but it
 is provided "as is" and without any express or implied warranties.
 For more details see the full text of the license in the file
 LICENSE or in <http://www.gnu.org/licenses/>.

                 Copyright (C) The OpenMolcas Authors
           For the author list and the recommended citation,
                   consult the file CONTRIBUTORS.md

           *************************************************
           * pymolcas version py2.24                       *
           *   build 4567b286dd94b1984b333a4ddf893180      *
           *   (after the EMIL interpreter by V. Veryazov) *
           *************************************************

configuration info
------------------
Host name: loginchem01.nottingham.ac.uk (Linux)
C Compiler ID: Intel
C flags: -std=gnu99 -gcc-sys -qopenmp
Fortran Compiler ID: Intel
Fortran flags: -fpp -i8 -heap-arrays -qopenmp
Definitions: _MOLCAS_;_I8_;_LINUX_
Parallel: OFF (GA=OFF)


   ----------------------------------------------------------------------------------------------------
  |
  |              Project: orca_geometry_optimisation_225_105_BP86_def2-SVP_def2J_scf_cas1_ras12i11_cas8
  |       Submitted from: /home/pcaah4/diamide_project
  |         Scratch area: /srv/COMMUNAL_SCRATCH/12390
  |      Save outputs to: /home/pcaah4/diamide_project
  |               Molcas: /software/chemistry/openmolcas/openmolcas-23.06-openmp
  |
  | Scratch area is empty
  |
  |       MOLCAS_DRIVER = /software/chemistry/openmolcas/openmolcas-23.06-openmp/sbin/pymolcas
  | MOLCAS_KEEP_WORKDIR = NO
  |       MOLCAS_NPROCS = 1
  |       MOLCAS_SOURCE = /software/chemistry/openmolcas/openmolcas-23.06-openmp
  |    MOLCAS_STRUCTURE = 0
  |
   ----------------------------------------------------------------------------------------------------

++ ---------   Input file   ---------

&SEWARD
TITLE
orca_geometry_optimisation_225_105_BP86_def2-SVP_def2J_scf_cas1_ras12i11
MULTIPOLES
2
SDIPOLE
ANGMOM
0 0 0
BASIS SET
C.ANO-S...4S3P1D.
C1           -0.009746   -0.043750   -0.026202 /Angstrom
C3            2.127601    1.211727   -0.035188 /Angstrom
C4            3.282852    1.082172   -1.039482 /Angstrom
C6            4.064084    1.689199   -3.308980 /Angstrom
C19          -0.640223   -1.427471    0.086911 /Angstrom
END OF BASIS
BASIS SET
N.ANO-S...4S3P1D.
N2            1.367216   -0.026251   -0.007508 /Angstrom
N5            3.103421    1.749752   -2.223342 /Angstrom
END OF BASIS
BASIS SET
O.ANO-S...4S3P1D.
O7           -0.684214    0.980601   -0.130444 /Angstrom
O8            4.257431    0.369689   -0.793816 /Angstrom
END OF BASIS
BASIS SET
H.ANO-S...2S1P.
H9           -1.234242   -1.472269    1.021964 /Angstrom
H10          -1.350424   -1.563311   -0.752221 /Angstrom
H11           0.090215   -2.260323    0.084640 /Angstrom
H12           1.894693   -0.892570    0.117637 /Angstrom
H13           1.404276    2.016183   -0.276762 /Angstrom
H14           2.578177    1.432361    0.958167 /Angstrom
H15           2.251420    2.299392   -2.343556 /Angstrom
H16           3.619358    1.245143   -4.225263 /Angstrom
H17           4.462402    2.694768   -3.562298 /Angstrom
H18           4.899262    1.047538   -2.969237 /Angstrom
END OF BASIS
END OF INPUT

&RASSCF
TITLE
orca_geometry_optimisation_225_105_BP86_def2-SVP_def2J_scf_cas1_ras12i11
LUMORB
SPIN
1
SYMMETRY
1
NACTEL
12  0  0
INACTIVE
29
DELETED  ! delete Rydberg orbitals from an initial CAS(12,11) if done
3
FROZEN
0
RAS2
8
ITERATIONS
64 25
CIROOT
7 7
1 2 3 4 5 6 7
1 1 1 1 1 1 1
LEVSHFT
0.3
CIMX
20
FILEorb = /home/pcaah4/diamide_project/cas/ras12i11/ras_orb/orca_geometry_optimisation_225_105_BP86_def2-SVP_def2J_scf_cas1_ras12i11.RasOrb
ALTEr
2
 1 36 38
 1 37 40
END OF INPUT

&RASSI
NROF JOBIPH
    1 7
    1 2 3 5 4 6 7
TOFILE
TRDI
TDMN
1.0D-6
END OF INPUT

&CASPT2
TITLE
orca_geometry_optimisation_225_105_BP86_def2-SVP_def2J_scf_cas1_ras12i11
MULTISTATE
7 1 2 3 4 5 6 7
SHIFT
0.35
MAXITER
50
END OF INPUT

-- ----------------------------------

--- Start Module: seward at Tue Jun 10 17:40:09 2025 ---
 
()()()()()()()()()()()()()()()()()()()()()()()()()()()()()()()()()()()()()()()()()()()()()()()()()()

                                              &SEWARD

                                   only a single process is used
                       available to each process: 2.0 GB of memory, 1 thread
                                            pid: 3121371
()()()()()()()()()()()()()()()()()()()()()()()()()()()()()()()()()()()()()()()()()()()()()()()()()()
 
               SEWARD will generate:
                  Multipole Moment integrals up to order  2
                  Kinetic Energy integrals
                  Nuclear Attraction integrals (point charge)
                  One-Electron Hamiltonian integrals
                  Velocity integrals
                  Orbital angular momentum around ( 0.0000  0.0000  0.0000 )
                  Velocity quadrupole around ( 3.5508  1.1689 -1.5972 )
                  Two-Electron Repulsion integrals
 
 Title:
            orca_geometry_optimisation_225_105_BP86_def2-SVP_def2J_scf_cas1_ras12i11    
 
 
                   Integrals are discarded if absolute value <: 0.10E-13
                   Integral cutoff threshold is set to       <: 0.10E-15
 
++    Symmetry information:
      ---------------------
 
                    Character Table for C1 
 
                             E  
                    a        1  x, y, xy, Rz, z, xz, Ry, yz, Rx, I
--
 
 
++    Basis set information:
      ----------------------
 
 
      Basis set label: C.ANO-S...4S3P1D......
 
      Electronic valence basis set:
      ------------------
      Associated Effective Charge   6.000000 au
      Associated Actual Charge      6.000000 au
      Nuclear Model: Point charge
 
      Shell  nPrim  nBasis  Cartesian Spherical Contaminant
         s      10       4        X                  
         p       6       3        X                  
         d       3       1                 X         
 
 
      Basis set label: N.ANO-S...4S3P1D......
 
      Electronic valence basis set:
      ------------------
      Associated Effective Charge   7.000000 au
      Associated Actual Charge      7.000000 au
      Nuclear Model: Point charge
 
      Shell  nPrim  nBasis  Cartesian Spherical Contaminant
         s      10       4        X                  
         p       6       3        X                  
         d       3       1                 X         
 
 
      Basis set label: O.ANO-S...4S3P1D......
 
      Electronic valence basis set:
      ------------------
      Associated Effective Charge   8.000000 au
      Associated Actual Charge      8.000000 au
      Nuclear Model: Point charge
 
      Shell  nPrim  nBasis  Cartesian Spherical Contaminant
         s      10       4        X                  
         p       6       3        X                  
         d       3       1                 X         
 
 
      Basis set label: H.ANO-S...2S1P......
 
      Electronic valence basis set:
      ------------------
      Associated Effective Charge   1.000000 au
      Associated Actual Charge      1.000000 au
      Nuclear Model: Point charge
 
      Shell  nPrim  nBasis  Cartesian Spherical Contaminant
         s       7       2        X                  
         p       3       1        X                  
--
 
 
++    Molecular structure info:
      -------------------------
 
                    ************************************************ 
                    **** Cartesian Coordinates / Bohr, Angstrom **** 
                    ************************************************ 
 
     Center  Label                x              y              z                     x              y              z
        1      C1              -0.018417      -0.082676      -0.049515             -0.009746      -0.043750      -0.026202
        2      C3               4.020583       2.289832      -0.066496              2.127601       1.211727      -0.035188
        3      C4               6.203691       2.045009      -1.964336              3.282852       1.082172      -1.039482
        4      C6               7.680006       3.192123      -6.253066              4.064084       1.689199      -3.308980
        5      C19             -1.209846      -2.697529       0.164238             -0.640223      -1.427471       0.086911
        6      N2               2.583664      -0.049607      -0.014188              1.367216      -0.026251      -0.007508
        7      N5               5.864616       3.306552      -4.201507              3.103421       1.749752      -2.223342
        8      O7              -1.292977       1.853067      -0.246503             -0.684214       0.980601      -0.130444
        9      O8               8.045379       0.698611      -1.500095              4.257431       0.369689      -0.793816
       10      H9              -2.332379      -2.782185       1.931232             -1.234242      -1.472269       1.021964
       11      H10             -2.551932      -2.954230      -1.421492             -1.350424      -1.563311      -0.752221
       12      H11              0.170482      -4.271391       0.159946              0.090215      -2.260323       0.084640
       13      H12              3.580451      -1.686713       0.222302              1.894693      -0.892570       0.117637
       14      H13              2.653697       3.810034      -0.523004              1.404276       2.016183      -0.276762
       15      H14              4.872048       2.706770       1.810673              2.578177       1.432361       0.958167
       16      H15              4.254567       4.345221      -4.428679              2.251420       2.299392      -2.343556
       17      H16              6.839595       2.352979      -7.984590              3.619358       1.245143      -4.225263
       18      H17              8.432718       5.092373      -6.731768              4.462402       2.694768      -3.562298
       19      H18              9.258263       1.979560      -5.611045              4.899262       1.047538      -2.969237
 
                    ************************************************* 
                    **** InterNuclear Distances / Bohr, Angstrom **** 
                    ************************************************* 
 
     Atom centers         Bohr        Angstrom
   16 H15       7 N5      1.929429        1.021010
   13 H12       6 N2      1.931224        1.021960
   19 H18       4 C6      2.091267        1.106651
   11 H10       5 C19     2.093234        1.107692
   12 H11       5 C19     2.093410        1.107785
   14 H13       2 C3      2.094705        1.108470
   10 H9        5 C19     2.095117        1.108688
   18 H17       4 C6      2.099210        1.110854
   17 H16       4 C6      2.099673        1.111099
   15 H14       2 C3      2.102996        1.112858
    8 O7        1 C1      2.326028        1.230881
    9 O8        3 C4      2.328115        1.231985
    7 N5        3 C4      2.590637        1.370906
    6 N2        1 C1      2.602531        1.377200
    7 N5        4 C6      2.741829        1.450913
    6 N2        2 C3      2.745988        1.453114
    5 C19       1 C1      2.881432        1.524788
    3 C4        2 C3      2.903050        1.536228
   11 H10      10 H9      3.364307        1.780314
   15 H14      14 H13     3.403575        1.801094
   18 H17      17 H16     3.407621        1.803236
   12 H11      10 H9      3.408739        1.803827
   19 H18      17 H16     3.409269        1.804107
   19 H18      18 H17     3.409861        1.804421
   12 H11      11 H10     3.412828        1.805991
   14 H13       6 N2      3.893665        2.060439
   16 H15       3 C4      3.893976        2.060603
   19 H18       7 N5      3.906987        2.067489
   13 H12       1 C1      3.949515        2.089994
   13 H12       2 C3      4.011238        2.122656
   15 H14       6 N2      4.020502        2.127558
   17 H16       7 N5      4.021393        2.128029
   18 H17       7 N5      4.023248        2.129011
   16 H15       4 C6      4.048660        2.142459
   15 H14       3 C4      4.057326        2.147045
   11 H10       1 C1      4.067781        2.152577
   10 H9        1 C1      4.070028        2.153766
   12 H11       1 C1      4.198202        2.221593
   14 H13       3 C4      4.218437        2.232301
   16 H15      14 H13     4.254821        2.251555
   13 H12      12 H11     4.279292        2.264504
    8 O7        6 N2      4.324637        2.288499
    9 O8        7 N5      4.342201        2.297794
   14 H13       8 O7      4.413888        2.335729
   19 H18       9 O8      4.473458        2.367252
    9 O8        2 C3      4.559185        2.412617
    8 O7        5 C19     4.569852        2.418262
    6 N2        3 C4      4.614661        2.441973
    6 N2        5 C19     4.629692        2.449927
    7 N5        2 C3      4.640312        2.455547
    4 C6        3 C4      4.678523        2.475768
    2 C3        1 C1      4.684294        2.478821
   14 H13       1 C1      4.745268        2.511088
   19 H18       3 C4      4.757434        2.517526
   17 H16      16 H15     4.826583        2.554118
   16 H15       2 C3      4.827838        2.554782
   18 H17      16 H15     4.829016        2.555405
   15 H14      13 H12     4.847044        2.564945
   12 H11       6 N2      4.865926        2.574937
   13 H12       5 C19     4.896128        2.590919
   14 H13       7 N5      4.908653        2.597547
   15 H14       9 O8      5.006387        2.649266
   13 H12       3 C4      5.058510        2.676848
   11 H10       8 O7      5.106434        2.702208
   10 H9        8 O7      5.225749        2.765347
    8 O7        2 C3      5.334519        2.822906
   13 H12       9 O8      5.347149        2.829589
    9 O8        4 C6      5.379762        2.846847
   14 H13      13 H12     5.623929        2.976055
   19 H18      16 H15     5.659622        2.994943
--
 
 
            Nuclear Potential Energy            448.86766590 au
 
 
      Basis set specifications :
      Symmetry species         a  
      Basis functions          212
 
 
      Input file to MOLDEN was generated!
 
--- Stop Module: seward at Tue Jun 10 17:41:58 2025 /rc=_RC_ALL_IS_WELL_ ---
*** files: orca_geometry_optimisation_225_105_BP86_def2-SVP_def2J_scf_cas1_ras12i11_cas8.GssOrb
           orca_geometry_optimisation_225_105_BP86_def2-SVP_def2J_scf_cas1_ras12i11_cas8.guessorb.molden xmldump
    saved to directory /home/pcaah4/diamide_project
--- Module seward spent 1 minute 48 seconds ---

*** symbolic link created: INPORB -> orca_geometry_optimisation_225_105_BP86_def2-SVP_def2J_scf_cas1_ras12i11_cas8.GssOrb
--- Start Module: rasscf at Tue Jun 10 17:41:59 2025 ---
 
()()()()()()()()()()()()()()()()()()()()()()()()()()()()()()()()()()()()()()()()()()()()()()()()()()

                                              &RASSCF

                                   only a single process is used
                       available to each process: 2.0 GB of memory, 1 thread
                                            pid: 3121411
()()()()()()()()()()()()()()()()()()()()()()()()()()()()()()()()()()()()()()()()()()()()()()()()()()
 
 
      Header of the ONEINT file:
      --------------------------
      orca_geometry_optimisation_225_105_BP86_def2-SVP_def2J_scf_cas1_ras12i11
      Integrals generated by Gateway/Seward, Tue Jun 10 17:40:10 2025
 
 
      OrdInt status: non-squared
 
 
      Cartesian coordinates in Angstrom:
      -----------------------------------------------------
      No.  Label        X            Y            Z        
      -----------------------------------------------------
       1   C1        -0.00974600  -0.04375000  -0.02620200
       2   C3         2.12760100   1.21172700  -0.03518800
       3   C4         3.28285200   1.08217200  -1.03948200
       4   C6         4.06408400   1.68919900  -3.30898000
       5   C19       -0.64022300  -1.42747100   0.08691100
       6   N2         1.36721600  -0.02625100  -0.00750800
       7   N5         3.10342100   1.74975200  -2.22334200
       8   O7        -0.68421400   0.98060100  -0.13044400
       9   O8         4.25743100   0.36968900  -0.79381600
      10   H9        -1.23424200  -1.47226900   1.02196400
      11   H10       -1.35042400  -1.56331100  -0.75222100
      12   H11        0.09021500  -2.26032300   0.08464000
      13   H12        1.89469300  -0.89257000   0.11763700
      14   H13        1.40427600   2.01618300  -0.27676200
      15   H14        2.57817700   1.43236100   0.95816700
      16   H15        2.25142000   2.29939200  -2.34355600
      17   H16        3.61935800   1.24514300  -4.22526300
      18   H17        4.46240200   2.69476800  -3.56229800
      19   H18        4.89926200   1.04753800  -2.96923700
      -----------------------------------------------------
      Nuclear repulsion energy =  448.86766590
 
++    Wave function specifications:
      -----------------------------
 
      Number of closed shell electrons          58
      Number of electrons in active shells      12
      Max number of holes in RAS1 space          0
      Max nr of electrons in RAS3 space          0
      Number of inactive orbitals               29
      Number of active orbitals                  8
      Number of secondary orbitals             172
      Spin quantum number                      0.0
      State symmetry                             1
--
 
++    Orbital specifications:
      -----------------------
 
      Symmetry species                           1
                                                 a
      Frozen orbitals                            0
      Inactive orbitals                         29
      Active orbitals                            8
      RAS1 orbitals                              0
      RAS2 orbitals                              8
      RAS3 orbitals                              0
      Secondary orbitals                       172
      Deleted orbitals                           3
      Number of basis functions                212
--
 
++    CI expansion specifications:
      ----------------------------
 
      Number of CSFs                           336
      Number of determinants                   406
      Number of root(s) required                 7
      Root chosen for geometry opt.              7
      CI roots used                              1     2     3     4     5     6     7
      weights                                0.143 0.143 0.143 0.143 0.143 0.143 0.143
      highest root included in the CI            7
      max. size of the explicit Hamiltonian    200
--
 
++    Optimization specifications:
      ----------------------------
 
      RASSCF algorithm: Conventional
      Maximum number of macro iterations        64
      Maximum number of SX iterations           25
      Threshold for RASSCF energy            0.100E-07
      Threshold for max MO rotation          0.100E+00
      Threshold for max BLB element          0.100E-03
      Level shift parameter                  0.300E+00
      Make Quasi-Newton update
--
 
      The MO-coefficients are taken from the file:
      /home/pcaah4/diamide_project/cas/ras12i11/ras_orb/orca_geometry_optimisation_225_105_BP86_def2-SVP_def2J_scf_cas1_ras12i11.RasOrb                                                                                                                               
      Title: RASSCF average (pseudo-natural) orbitals                                      
 
      Total molecular charge    0.00
 
      Molecular orbitals exchanged:
        In symmetry  1 :  36  38
        In symmetry  1 :  37  40
 
 
      ************************************************************************************************************************
      *                                                                                                                      *
      *                                            Wave function control section                                             *
      *                                                                                                                      *
      ************************************************************************************************************************
 
 
                                         RASSCF iterations: Energy and convergence statistics
                                         ----------------------------------------------------
 
      Iter CI   SX   CI       RASSCF       Energy    max ROT     max BLB   max BLB  Level Ln srch  Step   QN   Walltime
          iter iter root      energy       change     param      element    value   shift minimum  type update hh:mm:ss
 Nr of preliminary CI iterations:   5
        1   1   13    0  -453.70282792    0.00E+00   0.27E-01   34  40 1  0.22E-01*  0.18   0.00    SX    NO    0:00:13
        2   3   13    0  -453.70655093   -0.37E-02*  0.14E-01   32  38 1 -0.70E-02*  0.18   0.00    SX    NO    0:00:07
        3   3   12    0  -453.70700176   -0.45E-03*  0.58E-02   34  40 1  0.31E-02*  0.18   0.00    SX    NO    0:00:06
        4   4   11    0  -453.70713139   -0.13E-03*  0.37E-02   32  38 1 -0.97E-03*  0.18   0.00    SX    NO    0:00:06
        5   3   11    0  -453.70715806   -0.27E-04* -0.51E-02   22  98 1 -0.62E-03*  0.18   1.51    QN   YES    0:00:06
        6   4   10    0  -453.70717234   -0.14E-04*  0.97E-03   22  98 1  0.28E-03*  0.18   0.83    QN   YES    0:00:06
        7   3    9    0  -453.70717365   -0.13E-05*  0.42E-03   22  98 1 -0.18E-03*  0.18   0.85    QN   YES    0:00:06
        8   3    8    0  -453.70717406   -0.41E-06*  0.62E-03   34  40 1 -0.54E-04   0.18   2.50    LS   YES    0:00:06
        9   4    9    0  -453.70717398    0.77E-07*  0.24E-03   32  38 1 -0.14E-03*  0.18   0.44    LS   YES    0:00:06
       10   3    9    0  -453.70717411   -0.13E-06*  0.18E-03   34  40 1 -0.91E-04   0.18   1.70    QN   YES    0:00:06
       11   3    7    0  -453.70717418   -0.72E-07*  0.80E-04   19  39 1 -0.14E-04   0.18   1.13    QN   YES    0:00:06
       12   1    7    0  -453.70717420   -0.13E-07* -0.95E-04   22  98 1  0.11E-04   0.18   1.50    QN   YES    0:00:06
       13   3    6    0  -453.70717420   -0.61E-08   0.17E-04   34  40 1  0.10E-04   0.18   0.98    QN   YES    0:00:06
      Convergence after 13 iterations
       14   1    6    0  -453.70717420   -0.90E-09   0.17E-04   19  39 1  0.19E-05   0.18   0.98    QN   YES    0:00:06
 
      ************************************************************************************************************************
                                                      Wave function printout:
                       occupation of active orbitals, and spin coupling of open shells (u,d: Spin up or down)
      ************************************************************************************************************************
 
      Note: transformation to natural orbitals
      has been made, which may change the order of the CSFs.
 
      printout of CI-coefficients larger than  0.05 for root  1
      energy=    -453.958696
      conf/sym  11111111     Coeff  Weight
             1  22222200   0.96116 0.92383
             2  22222ud0   0.14671 0.02152
             4  22222020  -0.07673 0.00589
            17  22220202  -0.08699 0.00757
            61  2u2222d0  -0.07692 0.00592
            62  2u222d20   0.06310 0.00398
            84  u222220d  -0.09368 0.00878
           171  20222220  -0.09717 0.00944
           195  02222202  -0.07808 0.00610
 
      printout of CI-coefficients larger than  0.05 for root  2
      energy=    -453.747150
      conf/sym  11111111     Coeff  Weight
            21  222u22d0   0.95249 0.90723
            22  222u2d20  -0.09028 0.00815
            24  222u220d   0.13677 0.01870
            38  222u02d2   0.08437 0.00712
           111  22ud2220   0.06243 0.00390
           121  2u2d2220   0.18219 0.03319
           213  u22u22dd  -0.07721 0.00596
           270  022u22d2  -0.07842 0.00615
 
      printout of CI-coefficients larger than  0.05 for root  3
      energy=    -453.737075
      conf/sym  11111111     Coeff  Weight
             7  22222u0d   0.26681 0.07119
            44  22u2220d   0.90973 0.82760
            45  22u22dud   0.06699 0.00449
            47  22u22udd   0.11223 0.01260
            49  22u2202d  -0.07952 0.00632
            54  22u2d202  -0.17212 0.02963
           165  u2d22202   0.12517 0.01567
           219  2uu222dd   0.06351 0.00403
           220  2uu22d2d  -0.05108 0.00261
           293  20u2222d   0.09124 0.00833
 
      printout of CI-coefficients larger than  0.05 for root  4
      energy=    -453.646708
      conf/sym  11111111     Coeff  Weight
             1  22222200   0.06590 0.00434
             2  22222ud0  -0.31715 0.10059
             4  22222020  -0.07154 0.00512
             7  22222u0d  -0.40031 0.16025
             8  2222u20d  -0.77646 0.60290
            12  2222uudd  -0.08360 0.00699
            13  2222u02d   0.06594 0.00435
            17  22220202  -0.06375 0.00406
            44  22u2220d   0.10850 0.01177
            62  2u222d20  -0.08239 0.00679
            65  2u222dud  -0.06217 0.00387
            67  2u222udd  -0.07858 0.00618
            68  2u22u2dd  -0.05752 0.00331
            84  u222220d  -0.09247 0.00855
            94  u222d202  -0.18508 0.03426
           173  20222u2d  -0.05169 0.00267
           174  2022u22d  -0.07675 0.00589
 
      printout of CI-coefficients larger than  0.05 for root  5
      energy=    -453.636614
      conf/sym  11111111     Coeff  Weight
             1  22222200  -0.05001 0.00250
             2  22222ud0   0.33406 0.11160
             4  22222020   0.07651 0.00585
             7  22222u0d   0.67773 0.45931
             8  2222u20d  -0.52218 0.27267
            12  2222uudd  -0.05360 0.00287
            44  22u2220d  -0.21036 0.04425
            62  2u222d20   0.08905 0.00793
            64  2u22220d   0.05062 0.00256
            65  2u222dud   0.11198 0.01254
            67  2u222udd   0.14364 0.02063
            94  u222d202  -0.14703 0.02162
           173  20222u2d   0.09106 0.00829
 
      printout of CI-coefficients larger than  0.05 for root  6
      energy=    -453.619992
      conf/sym  11111111     Coeff  Weight
             1  22222200  -0.09789 0.00958
             2  22222ud0   0.69379 0.48135
             4  22222020   0.12987 0.01687
             7  22222u0d  -0.42152 0.17768
             8  2222u20d  -0.10324 0.01066
            19  22220ud2  -0.06552 0.00429
            21  222u22d0  -0.05367 0.00288
            24  222u220d   0.40814 0.16658
            25  222u2dud  -0.10290 0.01059
            27  222u2udd  -0.14551 0.02117
            44  22u2220d   0.08185 0.00670
            62  2u222d20   0.18200 0.03312
            65  2u222dud  -0.07088 0.00502
            67  2u222udd  -0.11568 0.01338
            87  u2222udd  -0.06536 0.00427
           171  20222220  -0.06963 0.00485
           173  20222u2d  -0.06906 0.00477
           196  02222ud2  -0.05230 0.00274
 
      printout of CI-coefficients larger than  0.05 for root  7
      energy=    -453.603984
      conf/sym  11111111     Coeff  Weight
             1  22222200   0.05071 0.00257
             2  22222ud0  -0.36818 0.13556
             4  22222020  -0.07955 0.00633
             7  22222u0d   0.19118 0.03655
            21  222u22d0  -0.11714 0.01372
            24  222u220d   0.78278 0.61275
            25  222u2dud  -0.20488 0.04198
            27  222u2udd  -0.28479 0.08110
            44  22u2220d  -0.08211 0.00674
            62  2u222d20  -0.09494 0.00901
            67  2u222udd   0.05018 0.00252
            84  u222220d  -0.05409 0.00293
           112  22ud22ud  -0.07596 0.00577
           201  22uu22dd   0.07600 0.00578
           208  2u2u2d2d   0.07063 0.00499
           261  202u222d   0.07169 0.00514
 
      Natural orbitals and occupation numbers for root  1
      sym 1:   1.970305   1.995780   1.999852   1.999760   1.994103   1.954695   0.049728   0.035777
 
      Natural orbitals and occupation numbers for root  2
      sym 1:   1.970450   1.999809   1.999161   1.003915   1.994640   1.999488   0.996677   0.035860
 
      Natural orbitals and occupation numbers for root  3
      sym 1:   1.999802   1.993644   1.003993   1.998955   1.998491   1.953995   0.051609   0.999511
 
      Natural orbitals and occupation numbers for root  4
      sym 1:   1.968128   1.954056   1.998939   1.999431   1.144656   1.867885   0.162951   0.903954
 
      Natural orbitals and occupation numbers for root  5
      sym 1:   1.982735   1.935028   1.997775   1.999423   1.906648   1.088309   0.136746   0.953336
 
      Natural orbitals and occupation numbers for root  6
      sym 1:   1.996857   1.948453   1.990507   1.878818   1.980287   1.159482   0.850311   0.195284
 
      Natural orbitals and occupation numbers for root  7
      sym 1:   1.998234   1.972499   1.993223   1.281581   1.986911   1.814812   0.221157   0.731582
 
      ************************************************************************************************************************
      *                                                                                                                      *
      *                                                    Final results                                                     *
      *                                                                                                                      *
      ************************************************************************************************************************
 
 
++    Wave function specifications:
      -----------------------------
 
      Number of closed shell electrons          58
      Number of electrons in active shells      12
      Max number of holes in RAS1 space          0
      Max nr of electrons in RAS3 space          0
      Number of inactive orbitals               29
      Number of active orbitals                  8
      Number of secondary orbitals             172
      Spin quantum number                      0.0
      State symmetry                             1
--
 
++    Orbital specifications:
      -----------------------
 
      Symmetry species                           1
                                                 a
      Frozen orbitals                            0
      Inactive orbitals                         29
      Active orbitals                            8
      RAS1 orbitals                              0
      RAS2 orbitals                              8
      RAS3 orbitals                              0
      Secondary orbitals                       172
      Deleted orbitals                           3
      Number of basis functions                212
--
 
++    CI expansion specifications:
      ----------------------------
 
      Number of CSFs                           336
      Number of determinants                   406
      Number of root(s) required                 7
      CI roots used                              1     2     3     4     5     6     7
      weights                                0.143 0.143 0.143 0.143 0.143 0.143 0.143
      highest root included in the CI            7
      Root passed to geometry opt.               7
--
 
++    Final optimization conditions:
      ------------------------------
 
      Average CI energy                            -453.70717420
      RASSCF energy for state  7                   -453.60398382
      Super-CI energy                                -0.00000000
      RASSCF energy change                            0.00000000
      Max change in MO coefficients              -0.236E-04
      Max non-diagonal density matrix element     0.171E-04
      Maximum BLB matrix element                  0.187E-05
      (orbital pair  19,  39 in symmetry   1)
      Norm of electronic gradient            0.302E+00
--
 
 
      Final state energy(ies):
      ------------------------
 
::    RASSCF root number  1 Total energy:   -453.95869604
::    RASSCF root number  2 Total energy:   -453.74715028
::    RASSCF root number  3 Total energy:   -453.73707526
::    RASSCF root number  4 Total energy:   -453.64670818
::    RASSCF root number  5 Total energy:   -453.63661363
::    RASSCF root number  6 Total energy:   -453.61999221
::    RASSCF root number  7 Total energy:   -453.60398382
 
++    Molecular orbitals:
      -------------------
 
      Pseudonatural active orbitals and approximate occupation numbers
 
 
 
 
      Molecular orbitals for symmetry species 1: a  
 
 
      Orbital                 1         2         3         4         5         6         7         8         9        10
      Energy           -20.6005  -20.5176  -15.6370  -15.5801  -11.3427  -11.2873  -11.2858  -11.2601  -11.2601   -1.4255
      Occ. No.           2.0000    2.0000    2.0000    2.0000    2.0000    2.0000    2.0000    2.0000    2.0000    2.0000
 
     1 C1     1s         0.0003   -0.0000    0.0002   -0.0001    0.9999    0.0001    0.0001    0.0038   -0.0001   -0.0388
     2 C1     2s         0.0007   -0.0003    0.0009   -0.0004    0.0020   -0.0007    0.0002    0.0005   -0.0004    0.3560
     3 C1     3s        -0.0006   -0.0003    0.0003   -0.0003   -0.0003   -0.0007    0.0001    0.0008   -0.0003   -0.0035
     4 C1     4s        -0.0004   -0.0001    0.0000   -0.0001    0.0012   -0.0003    0.0000    0.0003   -0.0001    0.0040
     5 C1     2px       -0.0012   -0.0002    0.0017   -0.0005    0.0013    0.0001    0.0004    0.0004   -0.0002   -0.0433
     6 C1     3px       -0.0008   -0.0001    0.0012   -0.0006    0.0014   -0.0003    0.0005   -0.0001   -0.0003    0.0287
     7 C1     4px        0.0001    0.0000   -0.0001   -0.0001    0.0005   -0.0003    0.0001   -0.0002   -0.0001   -0.0131
     8 C1     2py        0.0030   -0.0002    0.0001   -0.0001    0.0011    0.0000    0.0004    0.0006   -0.0002    0.0962
     9 C1     3py        0.0020   -0.0002    0.0001   -0.0001    0.0010   -0.0005    0.0004   -0.0001   -0.0002   -0.0680
    10 C1     4py       -0.0004   -0.0000    0.0000   -0.0000    0.0007   -0.0004   -0.0000   -0.0003   -0.0000    0.0231
    11 C1     2pz       -0.0003   -0.0002    0.0001   -0.0001   -0.0001   -0.0000   -0.0001   -0.0000    0.0000   -0.0078
    12 C1     3pz       -0.0002   -0.0004    0.0001   -0.0001   -0.0001    0.0000   -0.0001    0.0001    0.0000    0.0060
    13 C1     4pz        0.0000   -0.0001    0.0000   -0.0000   -0.0001    0.0000   -0.0000    0.0000    0.0000   -0.0028
    14 C1     3d2-       0.0002    0.0000    0.0001    0.0000   -0.0004    0.0000    0.0000   -0.0001   -0.0000   -0.0330
    15 C1     3d1-       0.0000   -0.0000    0.0000   -0.0000   -0.0001    0.0000   -0.0000   -0.0000    0.0000   -0.0058
    16 C1     3d0       -0.0000   -0.0000    0.0001    0.0000   -0.0004   -0.0001   -0.0000   -0.0001    0.0000   -0.0275
    17 C1     3d1+      -0.0000   -0.0000   -0.0000   -0.0000    0.0001    0.0000   -0.0000    0.0000   -0.0000    0.0037
    18 C1     3d2+       0.0001   -0.0000   -0.0002    0.0000   -0.0000    0.0000   -0.0000    0.0000    0.0000   -0.0101
    19 C3     1s         0.0001    0.0002    0.0003    0.0001   -0.0001    0.9798    0.1972   -0.0001    0.0000   -0.0091
    20 C3     2s         0.0006    0.0010    0.0014    0.0009    0.0002   -0.0019    0.0005   -0.0007    0.0005    0.0175
    21 C3     3s         0.0004    0.0007    0.0007    0.0007    0.0001   -0.0030    0.0003   -0.0004    0.0003   -0.0181
    22 C3     4s         0.0001    0.0001    0.0001    0.0001   -0.0000    0.0006    0.0003   -0.0000    0.0000   -0.0020
    23 C3     2px        0.0001   -0.0003   -0.0004    0.0003    0.0008   -0.0009   -0.0002   -0.0002   -0.0001   -0.0209
    24 C3     3px        0.0003   -0.0004    0.0001    0.0003    0.0012   -0.0009    0.0004   -0.0003   -0.0004   -0.0099
    25 C3     4px        0.0002   -0.0001    0.0002   -0.0000    0.0004   -0.0005    0.0001   -0.0001   -0.0002   -0.0059
    26 C3     2py       -0.0002    0.0003   -0.0006   -0.0006    0.0003    0.0000   -0.0003    0.0000    0.0000   -0.0182
    27 C3     3py       -0.0001    0.0004   -0.0000   -0.0004    0.0004    0.0002   -0.0001   -0.0001    0.0001   -0.0043
    28 C3     4py        0.0000    0.0000    0.0002    0.0001    0.0001   -0.0008   -0.0000   -0.0001    0.0000   -0.0046
    29 C3     2pz        0.0000   -0.0005   -0.0004    0.0004   -0.0005   -0.0001    0.0000    0.0001   -0.0005    0.0069
    30 C3     3pz        0.0000   -0.0003   -0.0006    0.0004   -0.0007   -0.0003   -0.0004    0.0001   -0.0005    0.0116
    31 C3     4pz        0.0000    0.0002   -0.0001    0.0001   -0.0001   -0.0002   -0.0001   -0.0000   -0.0000    0.0021
    32 C3     3d2-       0.0000    0.0000    0.0000   -0.0000    0.0000   -0.0001   -0.0000   -0.0000    0.0000    0.0035
    33 C3     3d1-      -0.0000   -0.0001   -0.0000   -0.0000   -0.0000    0.0000   -0.0001    0.0000    0.0000    0.0001
    34 C3     3d0       -0.0000    0.0001    0.0001   -0.0000   -0.0000    0.0000    0.0000    0.0000    0.0000   -0.0023
    35 C3     3d1+       0.0000   -0.0000   -0.0000   -0.0000    0.0000    0.0001    0.0000   -0.0000   -0.0001   -0.0006
    36 C3     3d2+      -0.0000   -0.0000    0.0001    0.0000    0.0000    0.0001   -0.0000    0.0000    0.0000   -0.0004
    37 C4     1s         0.0000    0.0003    0.0000    0.0002   -0.0002    0.1972   -0.9804    0.0001    0.0003    0.0002
    38 C4     2s         0.0001    0.0008    0.0001    0.0010   -0.0013    0.0013   -0.0025    0.0005   -0.0004    0.0287
    39 C4     3s         0.0000   -0.0005    0.0001    0.0005   -0.0010    0.0003   -0.0001    0.0004   -0.0003    0.0092
    40 C4     4s        -0.0000   -0.0003    0.0000    0.0001   -0.0003    0.0003   -0.0014    0.0001   -0.0002    0.0032
    41 C4     2px       -0.0001    0.0024   -0.0003   -0.0001    0.0001   -0.0008   -0.0000   -0.0002    0.0002   -0.0011
    42 C4     3px       -0.0001    0.0015   -0.0003   -0.0002    0.0001   -0.0002    0.0000   -0.0003   -0.0003   -0.0016
    43 C4     4px        0.0000   -0.0003    0.0000   -0.0000    0.0000    0.0002   -0.0002   -0.0001   -0.0003   -0.0013
    44 C4     2py        0.0000   -0.0019    0.0002    0.0006   -0.0001    0.0003   -0.0001    0.0001   -0.0002   -0.0011
    45 C4     3py       -0.0000   -0.0014    0.0001    0.0004   -0.0003    0.0004   -0.0001    0.0002   -0.0003    0.0052
    46 C4     4py       -0.0000    0.0002   -0.0000   -0.0001   -0.0001    0.0001    0.0001    0.0000   -0.0001    0.0015
    47 C4     2pz       -0.0003    0.0005    0.0002   -0.0015   -0.0001    0.0011    0.0009    0.0001    0.0004    0.0042
    48 C4     3pz       -0.0005    0.0005    0.0004   -0.0011   -0.0002    0.0009    0.0005    0.0002    0.0010    0.0037
    49 C4     4pz       -0.0001    0.0000    0.0001    0.0001   -0.0000   -0.0000    0.0003    0.0000    0.0005    0.0017
    50 C4     3d2-       0.0000    0.0001    0.0000    0.0001    0.0000   -0.0000    0.0004   -0.0000   -0.0000   -0.0013
    51 C4     3d1-       0.0000   -0.0000    0.0000    0.0002    0.0000   -0.0000    0.0003   -0.0000   -0.0001   -0.0010
    52 C4     3d0        0.0000    0.0001   -0.0000   -0.0001   -0.0000   -0.0000    0.0000    0.0000    0.0001   -0.0002
    53 C4     3d1+      -0.0000   -0.0001   -0.0000   -0.0001   -0.0000   -0.0000   -0.0002    0.0000   -0.0000    0.0003
    54 C4     3d2+       0.0000   -0.0000   -0.0000    0.0000   -0.0000    0.0000   -0.0001    0.0000   -0.0000    0.0007
    55 C6     1s        -0.0000    0.0001   -0.0001    0.0003   -0.0001   -0.0000    0.0004    0.0001    0.9997    0.0012
    56 C6     2s        -0.0002    0.0006   -0.0009    0.0014   -0.0007   -0.0001    0.0002   -0.0000    0.0001    0.0119
    57 C6     3s        -0.0002    0.0005   -0.0007    0.0003   -0.0006   -0.0001    0.0003    0.0000   -0.0016    0.0094
    58 C6     4s        -0.0001    0.0001   -0.0002   -0.0001   -0.0002   -0.0001    0.0002    0.0000    0.0009    0.0030
    59 C6     2px        0.0001   -0.0001    0.0002   -0.0003    0.0002   -0.0002   -0.0001   -0.0001   -0.0001   -0.0051
    60 C6     3px        0.0000   -0.0001    0.0002    0.0001    0.0002   -0.0002   -0.0001   -0.0001    0.0002   -0.0044
    61 C6     4px       -0.0000   -0.0000   -0.0000    0.0002    0.0000    0.0000    0.0000    0.0000   -0.0004   -0.0001
    62 C6     2py        0.0001   -0.0000   -0.0003    0.0002   -0.0002   -0.0001   -0.0002   -0.0000    0.0001    0.0014
    63 C6     3py        0.0001    0.0000   -0.0002    0.0002   -0.0001   -0.0001   -0.0003   -0.0000   -0.0001    0.0010
    64 C6     4py       -0.0000    0.0000    0.0000    0.0000    0.0000   -0.0000   -0.0001   -0.0000    0.0000   -0.0003
    65 C6     2pz       -0.0001    0.0004   -0.0002    0.0003   -0.0002   -0.0001    0.0004   -0.0000   -0.0001    0.0046
    66 C6     3pz       -0.0001    0.0003   -0.0002   -0.0002   -0.0003   -0.0001    0.0005    0.0000   -0.0002    0.0045
    67 C6     4pz       -0.0000    0.0000   -0.0000   -0.0002   -0.0000   -0.0001    0.0001    0.0000    0.0005    0.0009
    68 C6     3d2-       0.0000   -0.0000   -0.0000    0.0001   -0.0000   -0.0000   -0.0000    0.0000    0.0000    0.0002
    69 C6     3d1-      -0.0000   -0.0000   -0.0000    0.0000    0.0000   -0.0000    0.0001    0.0000   -0.0000    0.0001
    70 C6     3d0       -0.0000    0.0000    0.0000   -0.0000    0.0000    0.0000   -0.0001    0.0000    0.0000    0.0001
    71 C6     3d1+       0.0000   -0.0000    0.0000    0.0001    0.0000   -0.0000    0.0000   -0.0000    0.0001   -0.0004
    72 C6     3d2+      -0.0000    0.0000    0.0000   -0.0001    0.0000    0.0000    0.0000   -0.0000   -0.0001    0.0000
    73 C19    1s         0.0002   -0.0001   -0.0000    0.0000    0.0037    0.0002    0.0000   -1.0000    0.0001   -0.0147
    74 C19    2s         0.0011   -0.0004   -0.0001   -0.0000    0.0006    0.0009    0.0001   -0.0020   -0.0001   -0.0133
    75 C19    3s         0.0007   -0.0003   -0.0000   -0.0001    0.0003    0.0005    0.0000    0.0004   -0.0002   -0.0397
    76 C19    4s         0.0001   -0.0001   -0.0000   -0.0001    0.0001    0.0000    0.0000   -0.0012   -0.0001   -0.0037
    77 C19    2px        0.0008   -0.0001   -0.0003    0.0000   -0.0002    0.0003   -0.0001    0.0002   -0.0000   -0.0100
    78 C19    3px        0.0005   -0.0001   -0.0003    0.0000   -0.0003    0.0002   -0.0001    0.0001   -0.0000   -0.0077
    79 C19    4px       -0.0002    0.0000   -0.0000    0.0000   -0.0000   -0.0000   -0.0000   -0.0002    0.0000    0.0078
    80 C19    2py       -0.0001   -0.0001    0.0003   -0.0002    0.0004    0.0003    0.0001    0.0003   -0.0001    0.0214
    81 C19    3py       -0.0002   -0.0001    0.0003   -0.0002   -0.0000    0.0001    0.0001    0.0000   -0.0001   -0.0057
    82 C19    4py       -0.0001    0.0000   -0.0001   -0.0000   -0.0001   -0.0001   -0.0000   -0.0004   -0.0000    0.0056
    83 C19    2pz       -0.0001   -0.0001   -0.0000   -0.0001   -0.0000    0.0000    0.0000   -0.0000   -0.0001   -0.0018
    84 C19    3pz       -0.0000   -0.0000   -0.0000   -0.0000    0.0000    0.0000    0.0000   -0.0000   -0.0001    0.0006
    85 C19    4pz        0.0000    0.0000    0.0000    0.0000    0.0000    0.0000   -0.0000    0.0000    0.0000   -0.0004
    86 C19    3d2-       0.0001   -0.0000   -0.0000   -0.0000    0.0000    0.0001    0.0000    0.0001   -0.0000    0.0006
    87 C19    3d1-       0.0000    0.0000   -0.0000   -0.0000    0.0000   -0.0000   -0.0000   -0.0000    0.0000   -0.0006
    88 C19    3d0       -0.0001    0.0000   -0.0001    0.0000    0.0001   -0.0000    0.0000   -0.0001    0.0000    0.0015
    89 C19    3d1+       0.0000    0.0000    0.0000    0.0000   -0.0000   -0.0000   -0.0000   -0.0000    0.0000   -0.0000
    90 C19    3d2+       0.0001    0.0000   -0.0000    0.0000   -0.0001   -0.0000   -0.0000   -0.0001    0.0000   -0.0070
    91 N2     1s         0.0001    0.0000    0.9999   -0.0000   -0.0002    0.0001   -0.0001   -0.0001    0.0000   -0.0177
    92 N2     2s         0.0005    0.0001    0.0001   -0.0002   -0.0001    0.0016   -0.0004   -0.0006    0.0001    0.1151
    93 N2     3s         0.0004    0.0001   -0.0013   -0.0002   -0.0003    0.0008   -0.0005   -0.0005    0.0000   -0.0472
    94 N2     4s         0.0001    0.0000    0.0004   -0.0000    0.0000    0.0003   -0.0001   -0.0001    0.0000   -0.0112
    95 N2     2px        0.0002   -0.0005    0.0005   -0.0005   -0.0002    0.0009   -0.0002    0.0004   -0.0001   -0.0289
    96 N2     3px        0.0001   -0.0007    0.0004   -0.0007   -0.0001    0.0008   -0.0002    0.0004   -0.0003    0.0184
    97 N2     4px       -0.0000   -0.0001   -0.0002   -0.0000   -0.0002   -0.0000    0.0001   -0.0001   -0.0001   -0.0054
    98 N2     2py       -0.0015   -0.0001   -0.0008   -0.0002    0.0003    0.0009   -0.0002    0.0003   -0.0001    0.0375
    99 N2     3py       -0.0019   -0.0001   -0.0001   -0.0004    0.0003    0.0010   -0.0003    0.0003   -0.0001    0.0151
   100 N2     4py       -0.0000   -0.0000    0.0004   -0.0000   -0.0000    0.0002    0.0001   -0.0001   -0.0000   -0.0060
   101 N2     2pz        0.0002    0.0002    0.0002    0.0001    0.0001   -0.0000   -0.0001   -0.0001    0.0001   -0.0032
   102 N2     3pz        0.0003    0.0004   -0.0000    0.0001    0.0001   -0.0001   -0.0001   -0.0001    0.0001   -0.0050
   103 N2     4pz        0.0000    0.0001    0.0000    0.0000    0.0000   -0.0001   -0.0001   -0.0000    0.0000   -0.0003
   104 N2     3d2-       0.0001   -0.0000   -0.0002   -0.0000   -0.0001   -0.0000   -0.0000    0.0000   -0.0000   -0.0028
   105 N2     3d1-      -0.0000    0.0000   -0.0000    0.0000    0.0000   -0.0000    0.0000    0.0000    0.0000    0.0002
   106 N2     3d0       -0.0000    0.0000   -0.0000    0.0000    0.0001    0.0001    0.0000    0.0001   -0.0000   -0.0027
   107 N2     3d1+      -0.0000    0.0000    0.0000    0.0000   -0.0000   -0.0000    0.0000   -0.0000    0.0000    0.0004
   108 N2     3d2+      -0.0001   -0.0000   -0.0000   -0.0000    0.0001   -0.0000   -0.0000   -0.0000   -0.0000    0.0047
   109 N5     1s         0.0000    0.0001    0.0000    0.9999    0.0001   -0.0000    0.0002   -0.0000    0.0001   -0.0017
   110 N5     2s         0.0001    0.0008    0.0000    0.0006    0.0006    0.0002    0.0002   -0.0002    0.0017   -0.0013
   111 N5     3s         0.0001    0.0006   -0.0000   -0.0010    0.0004    0.0001    0.0003   -0.0002    0.0010   -0.0058
   112 N5     4s         0.0000    0.0001   -0.0000    0.0006    0.0001    0.0000   -0.0000   -0.0000    0.0004   -0.0013
   113 N5     2px       -0.0000   -0.0013    0.0006   -0.0009    0.0004    0.0003   -0.0002    0.0001    0.0006   -0.0061
   114 N5     3px       -0.0000   -0.0016    0.0009   -0.0005    0.0007    0.0004   -0.0001    0.0001    0.0007   -0.0098
   115 N5     4px        0.0000   -0.0000    0.0001    0.0003    0.0002    0.0001    0.0001   -0.0000    0.0002   -0.0020
   116 N5     2py        0.0000    0.0006    0.0001    0.0005    0.0002   -0.0002    0.0003   -0.0000    0.0000   -0.0029
   117 N5     3py        0.0000    0.0007    0.0001    0.0002    0.0002   -0.0001    0.0001   -0.0001   -0.0001   -0.0018
   118 N5     4py       -0.0000    0.0000    0.0000   -0.0002    0.0001    0.0000    0.0001   -0.0000   -0.0001   -0.0007
   119 N5     2pz       -0.0000    0.0005   -0.0006    0.0000   -0.0004    0.0001    0.0001   -0.0000   -0.0008    0.0081
   120 N5     3pz       -0.0000    0.0007   -0.0009    0.0000   -0.0007   -0.0001    0.0001    0.0000   -0.0006    0.0123
   121 N5     4pz        0.0000    0.0000   -0.0001    0.0000   -0.0001   -0.0001   -0.0003    0.0000   -0.0000    0.0027
   122 N5     3d2-      -0.0000   -0.0000    0.0000   -0.0001   -0.0000   -0.0000   -0.0001    0.0000    0.0000    0.0000
   123 N5     3d1-      -0.0000    0.0000    0.0000    0.0000    0.0000   -0.0000   -0.0000    0.0000    0.0001   -0.0002
   124 N5     3d0       -0.0000    0.0000   -0.0000   -0.0001   -0.0000    0.0000    0.0001    0.0000   -0.0000    0.0002
   125 N5     3d1+       0.0000   -0.0001    0.0000    0.0001    0.0000    0.0000   -0.0001   -0.0000    0.0000   -0.0002
   126 N5     3d2+       0.0000    0.0000   -0.0000   -0.0000    0.0000    0.0000    0.0001    0.0000   -0.0000   -0.0000
   127 O7     1s         0.9997   -0.0000    0.0000    0.0000   -0.0003   -0.0000   -0.0000   -0.0001    0.0000   -0.0239
   128 O7     2s        -0.0013   -0.0001    0.0002    0.0000    0.0004   -0.0001   -0.0002   -0.0003    0.0000    0.6917
   129 O7     3s        -0.0013   -0.0001    0.0002    0.0000   -0.0000   -0.0000   -0.0001   -0.0003    0.0000   -0.0341
   130 O7     4s         0.0001   -0.0000    0.0000    0.0000    0.0000    0.0000   -0.0000   -0.0001    0.0000   -0.0139
   131 O7     2px        0.0002   -0.0001   -0.0003    0.0001    0.0003   -0.0001   -0.0001   -0.0001    0.0000    0.0867
   132 O7     3px       -0.0002   -0.0001   -0.0004    0.0002   -0.0001   -0.0001   -0.0002   -0.0001    0.0000   -0.0260
   133 O7     4px        0.0008   -0.0000   -0.0001    0.0000    0.0001   -0.0000   -0.0000    0.0000    0.0000   -0.0016
   134 O7     2py       -0.0002    0.0000   -0.0002    0.0000   -0.0007   -0.0000   -0.0000    0.0001   -0.0000   -0.1191
   135 O7     3py        0.0005    0.0000   -0.0002    0.0001   -0.0004   -0.0001   -0.0001    0.0001   -0.0001    0.0374
   136 O7     4py       -0.0011   -0.0000    0.0001    0.0000   -0.0003   -0.0000   -0.0000   -0.0000   -0.0000    0.0002
   137 O7     2pz        0.0000    0.0000    0.0001   -0.0000    0.0001    0.0000    0.0000   -0.0000   -0.0000    0.0136
   138 O7     3pz       -0.0001    0.0001    0.0000   -0.0000    0.0001    0.0000    0.0001   -0.0000   -0.0000   -0.0041
   139 O7     4pz        0.0001    0.0000   -0.0000    0.0000    0.0000    0.0000    0.0000    0.0000   -0.0000   -0.0000
   140 O7     3d2-       0.0001    0.0000    0.0000   -0.0000   -0.0002    0.0000    0.0000    0.0000   -0.0000   -0.0179
   141 O7     3d1-      -0.0000   -0.0000   -0.0000   -0.0000   -0.0000    0.0000    0.0000    0.0000   -0.0000   -0.0027
   142 O7     3d0       -0.0000    0.0000   -0.0001   -0.0000   -0.0001    0.0000   -0.0000    0.0000    0.0000   -0.0104
   143 O7     3d1+      -0.0000   -0.0000    0.0000   -0.0000    0.0000    0.0000   -0.0000   -0.0000   -0.0000    0.0018
   144 O7     3d2+       0.0000   -0.0000   -0.0001    0.0000   -0.0001   -0.0000   -0.0000    0.0000   -0.0000   -0.0065
   145 O8     1s         0.0000    0.9997    0.0000    0.0000    0.0000   -0.0000    0.0002   -0.0000   -0.0000   -0.0013
   146 O8     2s         0.0001   -0.0013    0.0000    0.0002    0.0002    0.0004   -0.0006   -0.0000   -0.0003    0.0138
   147 O8     3s         0.0000   -0.0013   -0.0001    0.0002    0.0002    0.0002   -0.0001   -0.0000   -0.0002   -0.0031
   148 O8     4s        -0.0000    0.0001   -0.0001    0.0000    0.0001    0.0001   -0.0000   -0.0000   -0.0000   -0.0009
   149 O8     2px        0.0000   -0.0003    0.0001   -0.0001   -0.0001   -0.0002    0.0006    0.0001    0.0000   -0.0032
   150 O8     3px        0.0000    0.0004    0.0002   -0.0000   -0.0001   -0.0001    0.0002    0.0001   -0.0000    0.0025
   151 O8     4px        0.0000   -0.0011    0.0000    0.0001   -0.0000    0.0000    0.0002    0.0000   -0.0000    0.0001
   152 O8     2py        0.0000    0.0002    0.0000   -0.0000    0.0001    0.0001   -0.0004   -0.0000   -0.0001   -0.0007
   153 O8     3py        0.0001   -0.0003   -0.0000   -0.0001    0.0001    0.0000   -0.0001    0.0000   -0.0000   -0.0021
   154 O8     4py        0.0000    0.0008   -0.0000   -0.0001   -0.0000   -0.0000   -0.0001    0.0000    0.0000    0.0000
   155 O8     2pz        0.0000   -0.0001   -0.0001    0.0003   -0.0000   -0.0002    0.0003   -0.0000    0.0001   -0.0006
   156 O8     3pz        0.0001    0.0001   -0.0002    0.0003   -0.0001   -0.0002   -0.0001   -0.0000   -0.0000    0.0007
   157 O8     4pz        0.0000   -0.0003   -0.0000    0.0000   -0.0000   -0.0000   -0.0000   -0.0000   -0.0000    0.0000
   158 O8     3d2-      -0.0000    0.0000   -0.0000   -0.0000   -0.0000   -0.0001    0.0002    0.0000    0.0000   -0.0003
   159 O8     3d1-      -0.0000   -0.0000    0.0000    0.0000   -0.0000   -0.0000    0.0000    0.0000    0.0000   -0.0000
   160 O8     3d0        0.0000    0.0001    0.0000   -0.0000   -0.0000   -0.0000    0.0001    0.0000    0.0000   -0.0002
   161 O8     3d1+       0.0000   -0.0001    0.0000   -0.0001    0.0000    0.0000   -0.0001    0.0000   -0.0000    0.0001
   162 O8     3d2+       0.0000   -0.0000   -0.0000    0.0000    0.0000    0.0000   -0.0001   -0.0000    0.0000    0.0003
   163 H9     1s         0.0002    0.0002    0.0001   -0.0000    0.0000   -0.0002    0.0001   -0.0003    0.0000    0.0150
   164 H9     2s         0.0001    0.0001    0.0000   -0.0000    0.0001   -0.0002    0.0001    0.0003    0.0000    0.0041
   165 H9     2px       -0.0000    0.0000    0.0000   -0.0000    0.0000   -0.0000    0.0000    0.0000    0.0000    0.0010
   166 H9     2py       -0.0001    0.0000   -0.0000    0.0000    0.0001   -0.0000    0.0000   -0.0000    0.0000    0.0011
   167 H9     2pz       -0.0000   -0.0000    0.0000    0.0000   -0.0000    0.0000   -0.0000   -0.0001    0.0000   -0.0008
   168 H10    1s         0.0001   -0.0001    0.0002   -0.0002    0.0001   -0.0001    0.0001   -0.0003   -0.0001    0.0151
   169 H10    2s         0.0001   -0.0001    0.0001   -0.0001    0.0001   -0.0001    0.0001    0.0003   -0.0001    0.0036
   170 H10    2px       -0.0000   -0.0000    0.0000   -0.0000    0.0000   -0.0000    0.0000    0.0000   -0.0000    0.0010
   171 H10    2py       -0.0001   -0.0000   -0.0000   -0.0000    0.0001   -0.0000    0.0000   -0.0000   -0.0000    0.0011
   172 H10    2pz        0.0000   -0.0000   -0.0000   -0.0000    0.0000   -0.0000    0.0000    0.0001   -0.0000    0.0006
   173 H11    1s        -0.0004    0.0000    0.0004   -0.0002    0.0003   -0.0001    0.0001   -0.0003   -0.0001    0.0213
   174 H11    2s        -0.0002    0.0000    0.0004   -0.0001    0.0002   -0.0000    0.0001    0.0002   -0.0000    0.0065
   175 H11    2px       -0.0000    0.0000   -0.0001    0.0000   -0.0000    0.0000   -0.0000   -0.0001    0.0000   -0.0002
   176 H11    2py       -0.0000   -0.0000    0.0000   -0.0000    0.0001    0.0000   -0.0000    0.0000   -0.0000    0.0020
   177 H11    2pz       -0.0000    0.0000    0.0000    0.0000    0.0000   -0.0000   -0.0000    0.0000    0.0000    0.0001
   178 H12    1s        -0.0011   -0.0000   -0.0010    0.0003    0.0002   -0.0002    0.0000    0.0004   -0.0001    0.0375
   179 H12    2s        -0.0006   -0.0000   -0.0007    0.0002    0.0000   -0.0000   -0.0000    0.0002   -0.0001   -0.0020
   180 H12    2px        0.0000   -0.0000    0.0002    0.0000   -0.0001    0.0000    0.0001   -0.0000    0.0000   -0.0043
   181 H12    2py       -0.0000   -0.0000   -0.0005    0.0001    0.0000    0.0000    0.0000    0.0000   -0.0000    0.0045
   182 H12    2pz        0.0000    0.0000    0.0001   -0.0000   -0.0000    0.0000   -0.0000   -0.0000   -0.0000   -0.0005
   183 H13    1s         0.0003   -0.0003   -0.0003    0.0004   -0.0002    0.0007    0.0003   -0.0000   -0.0001    0.0139
   184 H13    2s         0.0003   -0.0001   -0.0001    0.0003   -0.0000   -0.0001    0.0001   -0.0000   -0.0001   -0.0026
   185 H13    2px        0.0000    0.0000    0.0000    0.0000   -0.0000    0.0000   -0.0000    0.0000    0.0000   -0.0003
   186 H13    2py       -0.0000   -0.0000   -0.0000   -0.0000    0.0000   -0.0001    0.0000    0.0000   -0.0000   -0.0013
   187 H13    2pz        0.0000    0.0000    0.0000    0.0000   -0.0000   -0.0000    0.0000    0.0000   -0.0000    0.0003
   188 H14    1s         0.0003    0.0001   -0.0003   -0.0001   -0.0002    0.0011    0.0002    0.0001    0.0001    0.0061
   189 H14    2s         0.0002    0.0000   -0.0001   -0.0001   -0.0002    0.0003    0.0000    0.0001    0.0000   -0.0009
   190 H14    2px       -0.0000   -0.0001    0.0000    0.0000    0.0000   -0.0000   -0.0000    0.0000   -0.0000   -0.0004
   191 H14    2py       -0.0000    0.0000    0.0000    0.0001    0.0000   -0.0001    0.0000   -0.0000   -0.0000   -0.0004
   192 H14    2pz       -0.0000    0.0000   -0.0000   -0.0000    0.0000   -0.0000    0.0001   -0.0000    0.0000   -0.0008
   193 H15    1s        -0.0002   -0.0013    0.0003   -0.0009   -0.0000    0.0001   -0.0003    0.0001   -0.0002    0.0001
   194 H15    2s        -0.0001   -0.0007    0.0002   -0.0006   -0.0000    0.0001   -0.0001    0.0001   -0.0000   -0.0012
   195 H15    2px       -0.0000   -0.0001    0.0000   -0.0004   -0.0000    0.0000   -0.0001    0.0000    0.0000    0.0007
   196 H15    2py        0.0000    0.0000   -0.0000    0.0003    0.0000   -0.0000    0.0001   -0.0000    0.0000   -0.0003
   197 H15    2pz        0.0000   -0.0000    0.0000   -0.0001    0.0000    0.0000   -0.0001   -0.0000   -0.0000   -0.0003
   198 H16    1s        -0.0000    0.0005   -0.0001   -0.0004   -0.0001   -0.0002    0.0003   -0.0000    0.0005    0.0023
   199 H16    2s        -0.0000    0.0003   -0.0001   -0.0002   -0.0001   -0.0002    0.0002   -0.0000   -0.0001    0.0019
   200 H16    2px       -0.0000    0.0000   -0.0000    0.0000   -0.0000   -0.0000    0.0000    0.0000   -0.0000    0.0002
   201 H16    2py       -0.0000    0.0000    0.0000   -0.0000   -0.0000   -0.0000    0.0000   -0.0000   -0.0000    0.0000
   202 H16    2pz        0.0000    0.0000   -0.0000   -0.0000   -0.0000   -0.0000    0.0001   -0.0000    0.0000    0.0001
   203 H17    1s        -0.0001    0.0002    0.0002   -0.0006   -0.0000    0.0001    0.0003    0.0001    0.0005    0.0029
   204 H17    2s        -0.0000    0.0002    0.0001   -0.0003   -0.0001    0.0001    0.0003    0.0000   -0.0001    0.0022
   205 H17    2px        0.0000   -0.0000   -0.0000    0.0000    0.0000    0.0000   -0.0000    0.0000   -0.0000   -0.0001
   206 H17    2py        0.0000   -0.0000   -0.0000    0.0000   -0.0000   -0.0000   -0.0001   -0.0000    0.0000   -0.0002
   207 H17    2pz       -0.0000    0.0000   -0.0000   -0.0000   -0.0000    0.0000    0.0000    0.0000    0.0000    0.0001
   208 H18    1s         0.0000    0.0001   -0.0001   -0.0001   -0.0002    0.0001    0.0000    0.0001    0.0010    0.0053
   209 H18    2s         0.0000    0.0001   -0.0001   -0.0000   -0.0001    0.0001   -0.0001    0.0001    0.0001    0.0034
   210 H18    2px       -0.0000   -0.0000    0.0000   -0.0000    0.0000   -0.0000   -0.0000   -0.0000   -0.0001   -0.0005
   211 H18    2py       -0.0000    0.0000    0.0000    0.0000   -0.0000    0.0000    0.0000    0.0000    0.0001    0.0003
   212 H18    2pz        0.0000   -0.0000    0.0000   -0.0000    0.0000    0.0000   -0.0000   -0.0000   -0.0000   -0.0002
 
 
      Orbital                11        12        13        14        15        16        17        18        19        20
      Energy            -1.3588   -1.2559   -1.2101   -1.0306   -0.9709   -0.9144   -0.8190   -0.7753   -0.7182   -0.6941
      Occ. No.           2.0000    2.0000    2.0000    2.0000    2.0000    2.0000    2.0000    2.0000    2.0000    2.0000
 
     1 C1     1s         0.0050   -0.0071   -0.0042   -0.0165   -0.0025    0.0077    0.0134    0.0006    0.0070    0.0031
     2 C1     2s         0.0228    0.1413   -0.0009    0.2743   -0.0350   -0.0729   -0.3863   -0.0832   -0.2513   -0.0680
     3 C1     3s         0.0244    0.0085   -0.0181   -0.0174   -0.0102    0.0181    0.0023   -0.0079    0.0085    0.0175
     4 C1     4s         0.0068    0.0028   -0.0053   -0.0046   -0.0035    0.0060    0.0025   -0.0013    0.0042    0.0030
     5 C1     2px        0.0334    0.1504   -0.0053   -0.0071    0.1076   -0.0881   -0.1295   -0.0098    0.1572    0.2614
     6 C1     3px        0.0218   -0.0395   -0.0330   -0.0379   -0.0288    0.0327    0.0317   -0.0118   -0.0718   -0.0576
     7 C1     4px        0.0075    0.0272   -0.0029   -0.0076    0.0125   -0.0068   -0.0078   -0.0022    0.0053    0.0176
     8 C1     2py        0.0106   -0.0351   -0.0272   -0.1559    0.0537    0.0049   -0.0524    0.0333    0.0598   -0.1531
     9 C1     3py        0.0262    0.0470   -0.0252    0.0199   -0.0522    0.0349    0.0111    0.0058   -0.0117    0.0640
    10 C1     4py        0.0012   -0.0063   -0.0060   -0.0238    0.0058    0.0017   -0.0062    0.0036   -0.0032   -0.0087
    11 C1     2pz        0.0038    0.0057    0.0045    0.0167   -0.0004   -0.0031    0.0009   -0.0043    0.0056    0.0116
    12 C1     3pz        0.0025   -0.0125    0.0052    0.0012    0.0038   -0.0042   -0.0051   -0.0072    0.0034   -0.0067
    13 C1     4pz        0.0002   -0.0006    0.0023    0.0030    0.0003   -0.0009   -0.0000   -0.0012    0.0022   -0.0001
    14 C1     3d2-       0.0024    0.0139    0.0011    0.0084   -0.0097    0.0065   -0.0132    0.0064    0.0171    0.0060
    15 C1     3d1-       0.0002    0.0016    0.0001   -0.0014    0.0014   -0.0005    0.0010    0.0005    0.0026    0.0022
    16 C1     3d0        0.0004   -0.0067   -0.0007   -0.0114   -0.0009    0.0045    0.0135    0.0022    0.0055    0.0021
    17 C1     3d1+       0.0000   -0.0002   -0.0002   -0.0002    0.0019   -0.0004    0.0012    0.0002   -0.0004   -0.0021
    18 C1     3d2+       0.0025    0.0277    0.0030    0.0017    0.0155   -0.0120   -0.0107   -0.0001    0.0159    0.0173
    19 C3     1s        -0.0167   -0.0282    0.0035    0.0314    0.0272   -0.0188    0.0074   -0.0048    0.0012   -0.0001
    20 C3     2s         0.0161    0.1802   -0.0006   -0.2922   -0.2692    0.3231   -0.1081    0.0605   -0.0419    0.0357
    21 C3     3s        -0.0466   -0.0458    0.0133    0.0522    0.0437   -0.0080    0.0134   -0.0080    0.0073   -0.0018
    22 C3     4s        -0.0072   -0.0105    0.0013    0.0154    0.0109   -0.0042    0.0043   -0.0031    0.0032   -0.0020
    23 C3     2px        0.0317   -0.0515   -0.0254   -0.0154   -0.0500    0.0281    0.0609   -0.1208   -0.2711    0.1106
    24 C3     3px        0.0105    0.0107   -0.0245   -0.0199    0.0247    0.0413   -0.0058    0.0224    0.0302   -0.0152
    25 C3     4px        0.0060   -0.0048   -0.0078   -0.0040    0.0012    0.0040    0.0031   -0.0078   -0.0047    0.0032
    26 C3     2py       -0.0181   -0.0876   -0.0225    0.0050   -0.0306   -0.0183   -0.1365   -0.0163   -0.0333    0.2067
    27 C3     3py        0.0046    0.0146   -0.0048   -0.0366    0.0127   -0.0074    0.0069   -0.0014    0.0110   -0.0331
    28 C3     4py        0.0032   -0.0026   -0.0023   -0.0115   -0.0071    0.0070   -0.0086    0.0056   -0.0018    0.0082
    29 C3     2pz        0.0077    0.0128    0.0204    0.0153    0.0359    0.0677    0.0042    0.0895    0.0287   -0.0810
    30 C3     3pz        0.0230    0.0292   -0.0067   -0.0151   -0.0248    0.0415   -0.0080   -0.0176   -0.0093    0.0085
    31 C3     4pz       -0.0057    0.0111   -0.0000   -0.0095   -0.0073    0.0179   -0.0020    0.0032   -0.0034   -0.0002
    32 C3     3d2-       0.0014    0.0183   -0.0014   -0.0030    0.0066   -0.0012    0.0051    0.0044    0.0151   -0.0210
    33 C3     3d1-       0.0049   -0.0009    0.0015   -0.0003   -0.0012    0.0010    0.0012   -0.0030   -0.0057    0.0007
    34 C3     3d0       -0.0033   -0.0094   -0.0051    0.0031   -0.0061   -0.0025   -0.0014   -0.0080   -0.0158    0.0108
    35 C3     3d1+      -0.0027   -0.0029    0.0024    0.0047    0.0090    0.0031   -0.0044    0.0126    0.0106   -0.0046
    36 C3     3d2+       0.0021   -0.0087    0.0007    0.0006   -0.0068   -0.0010   -0.0175   -0.0055   -0.0071    0.0185
    37 C4     1s        -0.0409    0.0043    0.0062    0.0095    0.0134    0.0081    0.0010    0.0164    0.0024   -0.0022
    38 C4     2s         0.3561    0.0189   -0.1149   -0.0859   -0.2282   -0.0706   -0.0065   -0.4071   -0.0673    0.0778
    39 C4     3s        -0.0135    0.0119   -0.0041    0.0257    0.0087    0.0149    0.0049    0.0104    0.0032    0.0002
    40 C4     4s         0.0002    0.0033   -0.0011    0.0078    0.0034    0.0046    0.0016    0.0056    0.0027   -0.0019
    41 C4     2px        0.0919   -0.0409    0.0468    0.0549    0.1224    0.0218   -0.0013    0.0210    0.0871   -0.0682
    42 C4     3px       -0.0382    0.0261   -0.0622   -0.0460   -0.0014    0.0573   -0.0092   -0.0179   -0.0328    0.0232
    43 C4     4px        0.0255   -0.0066    0.0038    0.0035    0.0163    0.0095   -0.0013   -0.0038    0.0007    0.0004
    44 C4     2py       -0.0478    0.0043   -0.1000   -0.0116   -0.0544   -0.0442   -0.0155   -0.0577    0.0233    0.0159
    45 C4     3py        0.0491   -0.0205    0.0220    0.0146    0.0114    0.0187   -0.0110    0.0049   -0.0132    0.0019
    46 C4     4py       -0.0117   -0.0002   -0.0193   -0.0001   -0.0069   -0.0034   -0.0072   -0.0039    0.0021    0.0012
    47 C4     2pz       -0.0151   -0.0041    0.1499   -0.0283   -0.0373    0.0535    0.0010    0.0928   -0.1741    0.0862
    48 C4     3pz       -0.0284   -0.0177    0.0256    0.0226   -0.0277   -0.1271    0.0138   -0.0130    0.0702   -0.0433
    49 C4     4pz       -0.0028   -0.0014    0.0329   -0.0040   -0.0091   -0.0064    0.0026    0.0080   -0.0075    0.0014
    50 C4     3d2-      -0.0349    0.0065   -0.0101   -0.0005    0.0035    0.0043    0.0043   -0.0008    0.0034   -0.0087
    51 C4     3d1-      -0.0152   -0.0006    0.0148   -0.0004    0.0054    0.0144   -0.0031    0.0096   -0.0073    0.0065
    52 C4     3d0       -0.0122    0.0051   -0.0233   -0.0026   -0.0063   -0.0064    0.0025   -0.0163    0.0060   -0.0063
    53 C4     3d1+       0.0101   -0.0051    0.0002    0.0083    0.0064   -0.0147    0.0009    0.0113    0.0053   -0.0008
    54 C4     3d2+       0.0109    0.0009    0.0084   -0.0041   -0.0030    0.0070   -0.0025   -0.0017   -0.0033    0.0031
    55 C6     1s        -0.0089    0.0048    0.0347   -0.0154   -0.0355   -0.0431    0.0032    0.0084    0.0041   -0.0059
    56 C6     2s         0.0300    0.0361   -0.1600    0.0607    0.2347    0.3899   -0.0297   -0.1114   -0.0339    0.0369
    57 C6     3s        -0.0132    0.0267    0.0606   -0.0326   -0.0674   -0.0681    0.0079    0.0177    0.0103   -0.0177
    58 C6     4s        -0.0006    0.0073    0.0102   -0.0062   -0.0145   -0.0142    0.0024    0.0051    0.0026   -0.0045
    59 C6     2px       -0.0119   -0.0107    0.0696   -0.0149   -0.0126    0.0165   -0.0173   -0.1387    0.0188    0.0404
    60 C6     3px        0.0021   -0.0089   -0.0118    0.0031    0.0112   -0.0021    0.0000    0.0065    0.0024   -0.0084
    61 C6     4px       -0.0026   -0.0007    0.0023    0.0027    0.0077    0.0127   -0.0020   -0.0105    0.0014    0.0015
    62 C6     2py       -0.0050    0.0087   -0.0024    0.0024    0.0035    0.0114    0.0006    0.0778   -0.0608    0.0392
    63 C6     3py       -0.0031    0.0079    0.0002    0.0010    0.0034    0.0114   -0.0009    0.0001    0.0046   -0.0022
    64 C6     4py       -0.0006   -0.0000   -0.0014   -0.0005    0.0013    0.0003    0.0004    0.0049   -0.0035    0.0019
    65 C6     2pz        0.0220    0.0109   -0.0804    0.0122    0.0080   -0.0327    0.0142    0.0150    0.1008   -0.1198
    66 C6     3pz       -0.0031    0.0109    0.0177   -0.0073   -0.0204   -0.0087    0.0009   -0.0008   -0.0129    0.0157
    67 C6     4pz        0.0024    0.0013    0.0010   -0.0019   -0.0118   -0.0166    0.0018    0.0042    0.0053   -0.0055
    68 C6     3d2-      -0.0004    0.0003    0.0011   -0.0006   -0.0022   -0.0016   -0.0003   -0.0017   -0.0021    0.0027
    69 C6     3d1-      -0.0003    0.0004   -0.0020    0.0001   -0.0001   -0.0003    0.0007    0.0094   -0.0052    0.0020
    70 C6     3d0        0.0022   -0.0001   -0.0075    0.0014    0.0014   -0.0020    0.0010   -0.0045    0.0075   -0.0075
    71 C6     3d1+      -0.0044   -0.0009    0.0206   -0.0041   -0.0052    0.0024   -0.0023   -0.0133   -0.0054    0.0111
    72 C6     3d2+       0.0018    0.0001   -0.0093    0.0020    0.0033   -0.0004    0.0012    0.0081    0.0022   -0.0054
    73 C19    1s         0.0012   -0.0101   -0.0027   -0.0574    0.0423   -0.0190   -0.0130   -0.0042   -0.0093    0.0019
    74 C19    2s         0.0087    0.0002   -0.0073    0.3073   -0.2767    0.1449    0.0730    0.0444    0.0953    0.0006
    75 C19    3s         0.0100   -0.0284   -0.0147   -0.1125    0.0783   -0.0323   -0.0348   -0.0081   -0.0177    0.0114
    76 C19    4s         0.0038   -0.0034   -0.0047   -0.0237    0.0176   -0.0073   -0.0094   -0.0026   -0.0054    0.0032
    77 C19    2px        0.0039    0.0237    0.0016    0.0550    0.0033   -0.0259   -0.0441   -0.0285   -0.0618    0.1352
    78 C19    3px        0.0010   -0.0021   -0.0008    0.0039    0.0047   -0.0019    0.0020    0.0053    0.0138   -0.0131
    79 C19    4px       -0.0011    0.0005    0.0007   -0.0083    0.0124   -0.0080   -0.0017   -0.0033   -0.0059    0.0029
    80 C19    2py        0.0069    0.0087   -0.0067    0.0481   -0.0094   -0.0144   -0.0627   -0.0462   -0.2152   -0.0596
    81 C19    3py        0.0081   -0.0022   -0.0092   -0.0291    0.0172   -0.0009    0.0126   -0.0002    0.0223    0.0127
    82 C19    4py        0.0003    0.0011   -0.0002   -0.0126    0.0144   -0.0084   -0.0126   -0.0033   -0.0086   -0.0017
    83 C19    2pz        0.0029   -0.0004   -0.0009   -0.0058    0.0026    0.0019    0.0067    0.0042    0.0198    0.0024
    84 C19    3pz        0.0024    0.0007   -0.0012   -0.0005   -0.0002    0.0006    0.0010   -0.0003   -0.0043   -0.0009
    85 C19    4pz       -0.0002    0.0004   -0.0003    0.0008   -0.0013    0.0005    0.0015    0.0009    0.0003    0.0001
    86 C19    3d2-       0.0005    0.0060    0.0007    0.0109   -0.0019   -0.0023   -0.0076   -0.0039   -0.0145   -0.0008
    87 C19    3d1-      -0.0001    0.0004    0.0001   -0.0017    0.0009   -0.0001    0.0007    0.0008    0.0028   -0.0001
    88 C19    3d0       -0.0002   -0.0009   -0.0001   -0.0089    0.0034    0.0006    0.0034    0.0029    0.0084   -0.0085
    89 C19    3d1+      -0.0004   -0.0003    0.0000   -0.0010    0.0000    0.0002    0.0009    0.0004    0.0007   -0.0012
    90 C19    3d2+       0.0003    0.0023    0.0003   -0.0072    0.0047   -0.0009    0.0032    0.0027    0.0140    0.0048
    91 N2     1s        -0.0045   -0.0404   -0.0042   -0.0049   -0.0047    0.0021   -0.0047    0.0005    0.0030   -0.0011
    92 N2     2s         0.0550    0.5906    0.0574   -0.0340    0.2084   -0.0984    0.1470    0.0164    0.1261   -0.0569
    93 N2     3s        -0.0066   -0.0743   -0.0100   -0.0156    0.0003    0.0012   -0.0096    0.0004    0.0139   -0.0029
    94 N2     4s        -0.0019   -0.0242   -0.0032   -0.0021   -0.0024    0.0017   -0.0035   -0.0007    0.0007   -0.0001
    95 N2     2px        0.0264   -0.0333   -0.0189   -0.1497   -0.0595    0.1155    0.3610    0.0146   -0.0986   -0.2828
    96 N2     3px        0.0259   -0.0128   -0.0184    0.0188    0.0391   -0.0538   -0.1146   -0.0271    0.0046    0.0616
    97 N2     4px        0.0053    0.0014   -0.0024   -0.0063    0.0068   -0.0042    0.0008   -0.0029   -0.0014    0.0067
    98 N2     2py        0.0049   -0.0068   -0.0063   -0.1146   -0.0541    0.1099   -0.2232    0.1219    0.2601   -0.2049
    99 N2     3py       -0.0054   -0.0491    0.0008    0.0456    0.0591   -0.0522    0.0407   -0.0390   -0.0570    0.0250
   100 N2     4py       -0.0010   -0.0148    0.0001    0.0004    0.0052   -0.0055   -0.0092   -0.0031   -0.0011    0.0049
   101 N2     2pz       -0.0094    0.0133    0.0049    0.0087    0.0180   -0.0078    0.0426    0.0216   -0.0018   -0.0260
   102 N2     3pz       -0.0123    0.0042    0.0007   -0.0016   -0.0009   -0.0087   -0.0002    0.0079    0.0020    0.0056
   103 N2     4pz       -0.0019    0.0025   -0.0003    0.0001    0.0011   -0.0004    0.0025    0.0021   -0.0010    0.0011
   104 N2     3d2-       0.0015    0.0072    0.0001   -0.0022   -0.0088    0.0087   -0.0066    0.0038    0.0065   -0.0028
   105 N2     3d1-      -0.0009   -0.0014    0.0003    0.0001   -0.0002    0.0013   -0.0031    0.0025    0.0022   -0.0017
   106 N2     3d0       -0.0018   -0.0163   -0.0018    0.0016   -0.0038    0.0014    0.0001   -0.0005   -0.0018   -0.0005
   107 N2     3d1+      -0.0006    0.0006    0.0003   -0.0006    0.0007   -0.0001    0.0019    0.0008   -0.0006   -0.0014
   108 N2     3d2+       0.0010    0.0056    0.0003    0.0098    0.0063   -0.0098   -0.0196   -0.0054   -0.0020    0.0145
   109 N5     1s        -0.0199   -0.0032    0.0426   -0.0022    0.0019    0.0023   -0.0007   -0.0039    0.0033   -0.0027
   110 N5     2s         0.1340    0.0054   -0.5747    0.0401   -0.0085   -0.2245    0.0408    0.1708    0.0698   -0.1006
   111 N5     3s        -0.0495   -0.0071    0.0801   -0.0078    0.0002   -0.0161    0.0011   -0.0004    0.0143   -0.0136
   112 N5     4s        -0.0117   -0.0010    0.0264   -0.0034   -0.0013   -0.0019    0.0001   -0.0019    0.0017   -0.0015
   113 N5     2px        0.0267   -0.0322    0.0050    0.0438    0.0772    0.0761   -0.0028   -0.2062    0.1684   -0.1391
   114 N5     3px        0.0005   -0.0373    0.0375    0.0097   -0.0298   -0.0784    0.0059    0.0495   -0.0279    0.0294
   115 N5     4px       -0.0051   -0.0053    0.0102    0.0015    0.0006   -0.0050    0.0012   -0.0080    0.0018   -0.0003
   116 N5     2py       -0.0292    0.0007    0.0067    0.0052    0.0297    0.0222    0.0168    0.2427   -0.1382    0.0657
   117 N5     3py        0.0049   -0.0021   -0.0189   -0.0022    0.0070    0.0018    0.0030   -0.0593    0.0223   -0.0136
   118 N5     4py       -0.0006   -0.0013   -0.0065    0.0014    0.0031   -0.0010    0.0005    0.0042   -0.0012    0.0011
   119 N5     2pz        0.0127    0.0288   -0.0147   -0.0546   -0.1510   -0.1459   -0.0049   -0.2397    0.0872    0.0097
   120 N5     3pz       -0.0209    0.0430   -0.0033    0.0062    0.0302    0.0758    0.0042    0.0655   -0.0124   -0.0112
   121 N5     4pz        0.0065    0.0076    0.0019   -0.0023   -0.0055    0.0039    0.0016    0.0002   -0.0008   -0.0010
   122 N5     3d2-      -0.0022    0.0004    0.0058   -0.0015   -0.0007    0.0045   -0.0007   -0.0084    0.0012   -0.0005
   123 N5     3d1-      -0.0052   -0.0002    0.0109    0.0009    0.0050    0.0081    0.0001    0.0093   -0.0041    0.0008
   124 N5     3d0        0.0021    0.0009   -0.0118   -0.0008   -0.0029   -0.0005   -0.0010   -0.0134    0.0044   -0.0016
   125 N5     3d1+       0.0027   -0.0016    0.0079   -0.0013   -0.0059   -0.0103    0.0001   -0.0036    0.0014    0.0017
   126 N5     3d2+      -0.0012    0.0004   -0.0038    0.0015    0.0039    0.0034    0.0002    0.0088   -0.0025    0.0002
   127 O7     1s         0.0007    0.0024    0.0008   -0.0044    0.0022    0.0003    0.0135    0.0012    0.0140    0.0217
   128 O7     2s        -0.0554   -0.3050   -0.0228   -0.2079    0.0525    0.0266    0.3517    0.0189    0.2322    0.3530
   129 O7     3s        -0.0009   -0.0098    0.0019   -0.0206    0.0098    0.0006    0.0427    0.0019    0.0395    0.0619
   130 O7     4s         0.0004   -0.0001    0.0009   -0.0036    0.0024   -0.0002    0.0081   -0.0002    0.0078    0.0130
   131 O7     2px       -0.0058   -0.0019    0.0032   -0.0052    0.0278   -0.0280   -0.1735   -0.0049   -0.0937   -0.2244
   132 O7     3px       -0.0010   -0.0004    0.0031   -0.0093    0.0010    0.0036    0.0215    0.0011    0.0063    0.0186
   133 O7     4px        0.0001    0.0003    0.0004   -0.0014   -0.0008    0.0013    0.0016    0.0004    0.0002    0.0011
   134 O7     2py        0.0081    0.0412    0.0036   -0.0338    0.0230    0.0054    0.1565    0.0241    0.2658    0.4105
   135 O7     3py       -0.0032    0.0002    0.0016    0.0120   -0.0003    0.0006   -0.0240   -0.0068   -0.0318   -0.0434
   136 O7     4py       -0.0008   -0.0015    0.0000   -0.0009    0.0004    0.0012   -0.0030   -0.0006   -0.0041   -0.0068
   137 O7     2pz       -0.0021   -0.0000    0.0000    0.0041    0.0020   -0.0022   -0.0165   -0.0015   -0.0241   -0.0416
   138 O7     3pz       -0.0016    0.0001   -0.0009    0.0000    0.0018   -0.0001    0.0039    0.0005    0.0020    0.0044
   139 O7     4pz       -0.0006    0.0000   -0.0003    0.0007    0.0007   -0.0000    0.0007   -0.0002    0.0002    0.0007
   140 O7     3d2-       0.0011    0.0035    0.0003    0.0009   -0.0022    0.0024    0.0119    0.0010    0.0095    0.0181
   141 O7     3d1-       0.0002    0.0009    0.0000    0.0000    0.0003   -0.0002    0.0008    0.0000    0.0019    0.0034
   142 O7     3d0        0.0007    0.0042    0.0005    0.0015    0.0002   -0.0002    0.0049    0.0002    0.0061    0.0117
   143 O7     3d1+      -0.0002   -0.0003   -0.0000   -0.0001    0.0005   -0.0003   -0.0012   -0.0001   -0.0007   -0.0019
   144 O7     3d2+       0.0006    0.0049    0.0006   -0.0025    0.0045   -0.0024   -0.0010    0.0011    0.0113    0.0122
   145 O8     1s        -0.0233    0.0024   -0.0043    0.0006    0.0025    0.0006    0.0001    0.0122    0.0022   -0.0009
   146 O8     2s         0.6693   -0.1443    0.3186    0.1019    0.1586    0.0124   -0.0148    0.3501    0.0467   -0.0068
   147 O8     3s        -0.0274   -0.0023    0.0079    0.0055    0.0126    0.0014   -0.0017    0.0448    0.0081   -0.0028
   148 O8     4s        -0.0121    0.0002   -0.0003    0.0002    0.0013   -0.0000   -0.0011    0.0092    0.0020   -0.0006
   149 O8     2px       -0.1121    0.0112   -0.0390    0.0157    0.0205   -0.0099   -0.0068    0.1358    0.0630   -0.0241
   150 O8     3px        0.0330   -0.0051    0.0047    0.0026   -0.0116   -0.0086    0.0002   -0.0220   -0.0084    0.0029
   151 O8     4px        0.0007   -0.0007    0.0021    0.0017   -0.0002   -0.0010    0.0004   -0.0026   -0.0018    0.0007
   152 O8     2py        0.0799   -0.0196    0.0210    0.0042   -0.0063   -0.0128   -0.0001   -0.1132    0.0066   -0.0086
   153 O8     3py       -0.0268    0.0018   -0.0000    0.0031    0.0068   -0.0003   -0.0001    0.0178    0.0020   -0.0004
   154 O8     4py       -0.0008    0.0000   -0.0002    0.0006    0.0002   -0.0001   -0.0009    0.0022    0.0006    0.0002
   155 O8     2pz       -0.0362    0.0130    0.0089   -0.0174   -0.0103    0.0429    0.0021    0.0751   -0.0912    0.0480
[...]
AIVX     1  Mu1.0001  In1.018 Se1.047               0.29073625     -0.00042428      0.00042693     -0.00000018
AIVX     1  Mu1.0001  In1.021 Se1.047               0.22265313      0.00052490     -0.00077235     -0.00000041
AIVX     1  Mu1.0001  In1.022 Se1.047               0.20342784     -0.00228136      0.00441675     -0.00001008
AIVX     1  Mu1.0001  In1.023 Se1.047               0.27505544      0.00149609     -0.00254707     -0.00000381
AIVX     1  Mu1.0001  In1.024 Se1.047               0.13692360      0.00006056     -0.00010144     -0.00000001
AIVX     1  Mu1.0001  In1.025 Se1.047               0.24010066     -0.00047971      0.00090056     -0.00000043
AIVX     1  Mu1.0001  In1.026 Se1.047               0.22406336     -0.00012761      0.00039434     -0.00000005
AIVX     1  Mu1.0001  In1.027 Se1.047               0.12276326      0.00039479     -0.00094966     -0.00000037
AIVX     1  Mu1.0001  In1.028 Se1.047               0.08881941     -0.00050878      0.00126898     -0.00000065
AIVX     1  Mu1.0001  In1.029 Se1.047               0.05690705     -0.00040104      0.00118332     -0.00000047
AIVX     1  Mu1.0001  In1.021 Se1.048               0.25173411     -0.00032238     -0.00008866      0.00000003
AIVX     1  Mu1.0001  In1.022 Se1.048               0.23250882     -0.00027514      0.00073045     -0.00000020
AIVX     1  Mu1.0001  In1.024 Se1.048               0.16600458      0.00028692     -0.00056682     -0.00000016
AIVX     1  Mu1.0001  In1.025 Se1.048               0.26918164      0.00118045     -0.00234186     -0.00000276
AIVX     1  Mu1.0001  In1.026 Se1.048               0.25314434      0.00183166     -0.00301432     -0.00000552
AIVX     1  Mu1.0001  In1.027 Se1.048               0.15184424     -0.00072944      0.00117399     -0.00000086
AIVX     1  Mu1.0001  In1.028 Se1.048               0.11790038     -0.00090193      0.00129064     -0.00000116
AIVX     1  Mu1.0001  In1.029 Se1.048               0.08598803     -0.00059408      0.00093228     -0.00000055
AIVX     1  Mu1.0001  In1.021 Se1.049               0.25779025      0.00031140     -0.00037546     -0.00000012
AIVX     1  Mu1.0001  In1.022 Se1.049               0.23856496     -0.00025087      0.00056060     -0.00000014
AIVX     1  Mu1.0001  In1.024 Se1.049               0.17206071     -0.00011659      0.00019494     -0.00000002
AIVX     1  Mu1.0001  In1.025 Se1.049               0.27523777      0.00043914     -0.00088541     -0.00000039
AIVX     1  Mu1.0001  In1.026 Se1.049               0.25920048      0.00089551     -0.00153869     -0.00000138
AIVX     1  Mu1.0001  In1.027 Se1.049               0.15790037      0.00006841      0.00017856      0.00000001
AIVX     1  Mu1.0001  In1.028 Se1.049               0.12395652      0.00017527     -0.00027809     -0.00000005
AIVX     1  Mu1.0001  In1.029 Se1.049               0.09204417     -0.00020887      0.00073514     -0.00000015
AIVX     1  Mu1.0001  In1.021 Se1.050               0.27817127      0.00172475     -0.00333591     -0.00000575
AIVX     1  Mu1.0001  In1.022 Se1.050               0.25894598     -0.00108445      0.00222480     -0.00000241
AIVX     1  Mu1.0001  In1.024 Se1.050               0.19244174     -0.00007258      0.00013879     -0.00000001
AIVX     1  Mu1.0001  In1.025 Se1.050               0.29561880     -0.00074069      0.00095072     -0.00000070
AIVX     1  Mu1.0001  In1.026 Se1.050               0.27958150      0.00243925     -0.00383662     -0.00000936
AIVX     1  Mu1.0001  In1.027 Se1.050               0.17828140     -0.00025497     -0.00006029      0.00000002
AIVX     1  Mu1.0001  In1.028 Se1.050               0.14433755     -0.00026960     -0.00004642      0.00000001
AIVX     1  Mu1.0001  In1.029 Se1.050               0.11242519     -0.00008812     -0.00011830      0.00000001
AIVX     1  Mu1.0001  In1.021 Se1.051               0.28786072     -0.00053359      0.00024031     -0.00000013
AIVX     1  Mu1.0001  In1.022 Se1.051               0.26863543     -0.00351385      0.00570889     -0.00002006
AIVX     1  Mu1.0001  In1.024 Se1.051               0.20213119     -0.00000749      0.00022367     -0.00000000
AIVX     1  Mu1.0001  In1.026 Se1.051               0.28927095     -0.00134072      0.00223764     -0.00000300
AIVX     1  Mu1.0001  In1.027 Se1.051               0.18797085      0.00017480     -0.00091447     -0.00000016
AIVX     1  Mu1.0001  In1.028 Se1.051               0.15402700     -0.00116511      0.00176594     -0.00000206
AIVX     1  Mu1.0001  In1.029 Se1.051               0.12211464     -0.00113865      0.00255230     -0.00000291
AIVX     1  Mu1.0001  In1.022 Se1.052               0.28857565      0.00116061     -0.00192173     -0.00000223
AIVX     1  Mu1.0001  In1.024 Se1.052               0.22207141      0.00000628      0.00000403      0.00000000
AIVX     1  Mu1.0001  In1.027 Se1.052               0.20791107     -0.00053809      0.00056054     -0.00000030
AIVX     1  Mu1.0001  In1.028 Se1.052               0.17396721      0.00026412     -0.00109198     -0.00000029
AIVX     1  Mu1.0001  In1.029 Se1.052               0.14205486      0.00036768     -0.00097253     -0.00000036
AIVX     1  Mu1.0001  In1.024 Se1.053               0.26029859     -0.00003421     -0.00003437      0.00000000
AIVX     1  Mu1.0001  In1.027 Se1.053               0.24613825     -0.00028756      0.00026285     -0.00000008
AIVX     1  Mu1.0001  In1.028 Se1.053               0.21219440      0.00004199      0.00018991      0.00000001
AIVX     1  Mu1.0001  In1.029 Se1.053               0.18028204      0.00114715     -0.00260212     -0.00000299
AIVX     1  Mu1.0001  In1.024 Se1.054               0.27533101      0.00018043     -0.00051241     -0.00000009
AIVX     1  Mu1.0001  In1.027 Se1.054               0.26117067      0.00027418     -0.00060114     -0.00000016
AIVX     1  Mu1.0001  In1.028 Se1.054               0.22722682     -0.00010970      0.00020797     -0.00000002
AIVX     1  Mu1.0001  In1.029 Se1.054               0.19531446     -0.00033630      0.00061636     -0.00000021
AIVX     1  Mu1.0001  In1.024 Se1.055               0.24544509     -0.00008123     -0.00002394      0.00000000
AIVX     1  Mu1.0001  In1.027 Se1.055               0.23128475     -0.00025666      0.00075182     -0.00000019
AIVX     1  Mu1.0001  In1.028 Se1.055               0.19734090     -0.00011058      0.00059249     -0.00000007
AIVX     1  Mu1.0001  In1.029 Se1.055               0.16542854     -0.00041849      0.00107465     -0.00000045
AIVX     1  Mu1.0001  In1.024 Se1.056               0.28306271     -0.00078305      0.00166040     -0.00000130
AIVX     1  Mu1.0001  In1.027 Se1.056               0.26890237      0.00031075     -0.00036858     -0.00000011
AIVX     1  Mu1.0001  In1.028 Se1.056               0.23495852      0.00059880     -0.00086958     -0.00000052
AIVX     1  Mu1.0001  In1.029 Se1.056               0.20304616      0.00056070     -0.00106123     -0.00000060
AIVX     1  Mu1.0001  In1.024 Se1.057               0.29641500     -0.00006778      0.00011027     -0.00000001
AIVX     1  Mu1.0001  In1.027 Se1.057               0.28225466      0.00048066     -0.00060282     -0.00000029
AIVX     1  Mu1.0001  In1.028 Se1.057               0.24831080     -0.00015960      0.00027793     -0.00000004
AIVX     1  Mu1.0001  In1.029 Se1.057               0.21639845      0.00061946     -0.00146474     -0.00000091
AIVX     1  Mu1.0001  In1.028 Se1.058               0.27605201     -0.00004825      0.00027844     -0.00000001
AIVX     1  Mu1.0001  In1.029 Se1.058               0.24413966     -0.00008133      0.00002248     -0.00000000
AIVX     1  Mu1.0001  In1.028 Se1.059               0.27453115     -0.00188087      0.00272615     -0.00000513
AIVX     1  Mu1.0001  In1.029 Se1.059               0.24261879     -0.00042982      0.00024003     -0.00000010
AIVX     1  Mu1.0001  In1.029 Se1.060               0.27781832     -0.00115617      0.00194145     -0.00000224
AIVX     1  Mu1.0001  In1.028 Se1.061               0.29238152     -0.00012218      0.00005841     -0.00000001
AIVX     1  Mu1.0001  In1.029 Se1.061               0.26046916      0.00014987     -0.00056979     -0.00000009
AIVX     1  Mu1.0001  In1.029 Se1.062               0.29263370     -0.00056287      0.00071669     -0.00000040
--
 
   (Skipping property calculation,
    use PROP keyword to activate)
--
 
  Total CASPT2 energies:
::    CASPT2 Root  1     Total energy:   -455.37977589
::    CASPT2 Root  2     Total energy:   -455.16621153
::    CASPT2 Root  3     Total energy:   -455.17445727
::    CASPT2 Root  4     Total energy:   -455.13621076
::    CASPT2 Root  5     Total energy:   -455.11957340
::    CASPT2 Root  6     Total energy:   -455.11915219
::    CASPT2 Root  7     Total energy:   -455.08259426
 
++ Multi-State CASPT2 section:
********************************************************************************
  MULTI-STATE CASPT2 SECTION
--------------------------------------------------------------------------------
 
  Output diagonal energies have been shifted. Add   -455.000000000000     
 
  Effective Hamiltonian matrix (Symmetric):
 
                1               2               3               4               5
   1        -0.37977589
   2        -0.00021679     -0.16621153
   3         0.00088825     -0.00041962     -0.17445727
   4        -0.01607932      0.00001855      0.00106029     -0.13621076
   5         0.00526913      0.00042488     -0.00193631     -0.00650778     -0.11957340
   6         0.01917918      0.00285022      0.00228978      0.00604482     -0.01242917
   7        -0.01626015     -0.00063753     -0.00103862     -0.00620855      0.00936429
 
                6               7
   6        -0.11915219
   7         0.01875276     -0.08259426
 
       Total MS-CASPT2 energies:
::    MS-CASPT2 Root  1     Total energy:   -455.38351889
::    MS-CASPT2 Root  2     Total energy:   -455.17465890
::    MS-CASPT2 Root  3     Total energy:   -455.16641703
::    MS-CASPT2 Root  4     Total energy:   -455.13819750
::    MS-CASPT2 Root  5     Total energy:   -455.13655065
::    MS-CASPT2 Root  6     Total energy:   -455.10475245
::    MS-CASPT2 Root  7     Total energy:   -455.07387988
 
       Eigenvectors:
            0.99244555      0.00027513     -0.01110897     -0.10181547      0.06016208
            0.00223814      0.06494447      0.99413455     -0.03973418      0.07254712
           -0.00361022      0.99643525     -0.06768162     -0.00434572      0.01761408
            0.06736198     -0.01415796      0.00816880      0.90522767      0.30201101
           -0.02405266      0.01972252     -0.03352032      0.00685318      0.68469604
           -0.07896764     -0.04461293     -0.07194640     -0.36288875      0.59718977
            0.06067735      0.01786596      0.02501311      0.19199888     -0.27230911
 
            0.02023074     -0.02309129
            0.02471723      0.00456796
            0.04658492     -0.00486424
            0.28336797     -0.06519197
           -0.71962297      0.10581128
            0.61931876      0.33870034
           -0.12287906      0.93234024
 
--
 
  THE ORIGINAL CI ARRAYS ARE NOW MIXED AS LINEAR
  COMBINATIONS, GIVEN BY THE EIGENVECTORS.
  A NEW JOBIPH FILE NAMED 'JOBMIX' IS PREPARED.
********************************************************************************
 
++ Mixed CI coefficients:
  The CI coefficients for the MIXED state nr.   1
--------------------------------------------------------------------------------
 CI COEFFICIENTS LARGER THAN  0.50D-01
  Occupation of active orbitals, and spin coupling
  of open shells. (u,d: Spin up or down).
  SGUGA info is (Midvert:IsyUp:UpperWalk/LowerWalk)
        Conf  SGUGA info        Occupation    Coefficient         Weight
           1  ( 1:1:   1/   1)   22222200        0.970413       0.941702
           4  ( 1:1:   4/   1)   22222020       -0.097929       0.009590
          17  ( 1:1:  17/   1)   22220202       -0.093362       0.008716
          61  ( 2:1:   1/   3)   2u2222d0       -0.077376       0.005987
          84  ( 2:1:   4/   4)   u222220d       -0.105843       0.011203
         171  ( 3:1:   1/   8)   20222220       -0.085092       0.007241
         195  ( 3:1:   5/  10)   02222202       -0.076588       0.005866
 
  The CI coefficients for the MIXED state nr.   2
--------------------------------------------------------------------------------
 CI COEFFICIENTS LARGER THAN  0.50D-01
  Occupation of active orbitals, and spin coupling
  of open shells. (u,d: Spin up or down).
  SGUGA info is (Midvert:IsyUp:UpperWalk/LowerWalk)
        Conf  SGUGA info        Occupation    Coefficient         Weight
           7  ( 1:1:   7/   1)   22222u0d        0.307211       0.094379
          44  ( 2:1:   4/   2)   22u2220d        0.897134       0.804850
          45  ( 2:1:   5/   2)   22u22dud        0.064868       0.004208
          47  ( 2:1:   7/   2)   22u22udd        0.113225       0.012820
          49  ( 2:1:   9/   2)   22u2202d       -0.078900       0.006225
          54  ( 2:1:  14/   2)   22u2d202       -0.170345       0.029018
         165  ( 3:1:   5/   7)   u2d22202        0.123927       0.015358
         219  ( 4:1:   1/   4)   2uu222dd        0.062518       0.003909
         220  ( 4:1:   2/   4)   2uu22d2d       -0.050369       0.002537
         293  ( 5:1:   1/  15)   20u2222d        0.089755       0.008056
 
  The CI coefficients for the MIXED state nr.   3
--------------------------------------------------------------------------------
 CI COEFFICIENTS LARGER THAN  0.50D-01
  Occupation of active orbitals, and spin coupling
  of open shells. (u,d: Spin up or down).
  SGUGA info is (Midvert:IsyUp:UpperWalk/LowerWalk)
        Conf  SGUGA info        Occupation    Coefficient         Weight
           2  ( 1:1:   2/   1)   22222ud0       -0.085732       0.007350
          21  ( 2:1:   1/   1)   222u22d0        0.949419       0.901396
          22  ( 2:1:   2/   1)   222u2d20       -0.089501       0.008010
          24  ( 2:1:   4/   1)   222u220d        0.123403       0.015228
          38  ( 2:1:  18/   1)   222u02d2        0.084153       0.007082
         111  ( 3:1:   1/   2)   22ud2220        0.062013       0.003846
         121  ( 3:1:   1/   3)   2u2d2220        0.181081       0.032790
         213  ( 4:1:   1/   3)   u22u22dd       -0.077039       0.005935
         270  ( 5:1:   2/   9)   022u22d2       -0.078125       0.006103
 
  The CI coefficients for the MIXED state nr.   4
--------------------------------------------------------------------------------
 CI COEFFICIENTS LARGER THAN  0.50D-01
  Occupation of active orbitals, and spin coupling
  of open shells. (u,d: Spin up or down).
  SGUGA info is (Midvert:IsyUp:UpperWalk/LowerWalk)
        Conf  SGUGA info        Occupation    Coefficient         Weight
           2  ( 1:1:   2/   1)   22222ud0       -0.621878       0.386732
           4  ( 1:1:   4/   1)   22222020       -0.118708       0.014092
           7  ( 1:1:   7/   1)   22222u0d       -0.170914       0.029212
           8  ( 1:1:   8/   1)   2222u20d       -0.666475       0.444189
          12  ( 1:1:  12/   1)   2222uudd       -0.071146       0.005062
          13  ( 1:1:  13/   1)   2222u02d        0.055499       0.003080
          17  ( 1:1:  17/   1)   22220202       -0.057237       0.003276
          19  ( 1:1:  19/   1)   22220ud2        0.055072       0.003033
          62  ( 2:1:   2/   3)   2u222d20       -0.164509       0.027063
          68  ( 2:1:   8/   3)   2u22u2dd       -0.050579       0.002558
          84  ( 2:1:   4/   4)   u222220d       -0.099950       0.009990
          87  ( 2:1:   7/   4)   u2222udd        0.060642       0.003677
          94  ( 2:1:  14/   4)   u222d202       -0.160263       0.025684
          96  ( 2:1:  16/   4)   u222dud2       -0.052406       0.002746
         171  ( 3:1:   1/   8)   20222220        0.074025       0.005480
         174  ( 3:1:   4/   8)   2022u22d       -0.066514       0.004424
         196  ( 3:1:   6/  10)   02222ud2        0.055460       0.003076
 
  The CI coefficients for the MIXED state nr.   5
--------------------------------------------------------------------------------
 CI COEFFICIENTS LARGER THAN  0.50D-01
  Occupation of active orbitals, and spin coupling
  of open shells. (u,d: Spin up or down).
  SGUGA info is (Midvert:IsyUp:UpperWalk/LowerWalk)
        Conf  SGUGA info        Occupation    Coefficient         Weight
           2  ( 1:1:   2/   1)   22222ud0        0.655921       0.430233
           4  ( 1:1:   4/   1)   22222020        0.125251       0.015688
           8  ( 1:1:   8/   1)   2222u20d       -0.658212       0.433243
          12  ( 1:1:  12/   1)   2222uudd       -0.070265       0.004937
          13  ( 1:1:  13/   1)   2222u02d        0.059421       0.003531
          19  ( 1:1:  19/   1)   22220ud2       -0.064524       0.004163
          21  ( 2:1:   1/   1)   222u22d0        0.074264       0.005515
          62  ( 2:1:   2/   3)   2u222d20        0.174201       0.030346
          87  ( 2:1:   7/   4)   u2222udd       -0.060606       0.003673
          94  ( 2:1:  14/   4)   u222d202       -0.174382       0.030409
         171  ( 3:1:   1/   8)   20222220       -0.075640       0.005721
         174  ( 3:1:   4/   8)   2022u22d       -0.062911       0.003958
 
  The CI coefficients for the MIXED state nr.   6
--------------------------------------------------------------------------------
 CI COEFFICIENTS LARGER THAN  0.50D-01
  Occupation of active orbitals, and spin coupling
  of open shells. (u,d: Spin up or down).
  SGUGA info is (Midvert:IsyUp:UpperWalk/LowerWalk)
        Conf  SGUGA info        Occupation    Coefficient         Weight
           2  ( 1:1:   2/   1)   22222ud0        0.148158       0.021951
           7  ( 1:1:   7/   1)   22222u0d       -0.872900       0.761954
           8  ( 1:1:   8/   1)   2222u20d        0.089085       0.007936
          16  ( 1:1:  16/   1)   2222ud02       -0.055192       0.003046
          24  ( 2:1:   4/   1)   222u220d        0.156860       0.024605
          44  ( 2:1:   4/   2)   22u2220d        0.286029       0.081813
          65  ( 2:1:   5/   3)   2u222dud       -0.145743       0.021241
          67  ( 2:1:   7/   3)   2u222udd       -0.202115       0.040850
         173  ( 3:1:   3/   8)   20222u2d       -0.125411       0.015728
 
  The CI coefficients for the MIXED state nr.   7
--------------------------------------------------------------------------------
 CI COEFFICIENTS LARGER THAN  0.50D-01
  Occupation of active orbitals, and spin coupling
  of open shells. (u,d: Spin up or down).
  SGUGA info is (Midvert:IsyUp:UpperWalk/LowerWalk)
        Conf  SGUGA info        Occupation    Coefficient         Weight
           2  ( 1:1:   2/   1)   22222ud0       -0.055778       0.003111
           7  ( 1:1:   7/   1)   22222u0d        0.131622       0.017324
          21  ( 2:1:   1/   1)   222u22d0       -0.121979       0.014879
          24  ( 2:1:   4/   1)   222u220d        0.870078       0.757036
          25  ( 2:1:   5/   1)   222u2dud       -0.227865       0.051922
          27  ( 2:1:   7/   1)   222u2udd       -0.317158       0.100589
          44  ( 2:1:   4/   2)   22u2220d       -0.082714       0.006842
         112  ( 3:1:   2/   2)   22ud22ud       -0.083606       0.006990
         201  ( 4:1:   1/   1)   22uu22dd        0.085259       0.007269
         208  ( 4:1:   2/   2)   2u2u2d2d        0.078896       0.006225
         261  ( 5:1:   1/   7)   202u222d        0.080878       0.006541
 
--
 
--- Stop Module: caspt2 at Tue Jun 10 17:51:24 2025 /rc=_RC_ALL_IS_WELL_ ---
*** files: xmldump
    saved to directory /home/pcaah4/diamide_project
--- Module caspt2 spent 6 minutes 52 seconds ---

.##################.
.# Happy landing! #.
.##################.

    Timing: Wall=670.86 User=584.34 System=77.30
******************************************************
*** WorkDir at /srv/COMMUNAL_SCRATCH/12390 cleaned ***
******************************************************
