   This run of MOLCAS is using the pymolcas driver

                             OPE
                             OPE          NMOL  CASOP  ENMOLC A   SO
                 OPE        NMOLC        AS  OP EN  MO LC     AS  OP
                OPENM       OL CA        SO  PE NM  OL CA     SOP EN
                OP EN      MO   LC       AS  OP ENMOL  CASO   PENMOL
                OP  EN     MO   LC       AS  OP EN     MO     LC ASO
               OP   E  NMOL  C  AS       OP  EN MO     LC     AS  OP
               OP  E   NMO   LC AS        OPEN  MO     LCASOP EN   M
               O  PEN   MO  LCA  SO
            OPE   NMO   L   CAS    OP
        OPENMOL  CASOP     ENMOL   CASOPE
     OPENMOLCA   SOPENMOLCASOPEN   MOLCASOPE
    OPENMOLCAS   OP           EN   MOL    CAS
    OPENMOLCAS       OP  ENM        O     LCA
    OPENMOLCAS    OPEN  MOLCASO     P  E  NMO
    OPENMOLCAS     OP               E  N  MOL
    OPENMOLCA   SO           PENM   O  L  CAS    OPEN    MO    LCAS
    OPENMOLCA   SOP           ENM   O  L  CAS   OP  EN  MOLC  AS   O
    OPENMOLCA   SOPE           NM      O  LCA   S      OP  EN MO
    OPENMOLC                AS         O  PEN   M      OL  CA  SOPE
    OPENMO        LCASOPE  NMOL        C  ASO   P      ENMOLC     AS
    OPE     NMO      LCA  SO     P     E   NM   OL  CA SO  PE N   MO
          OPENMOLCA            SOPE   NMO        LCAS  O    P  ENMO
     OPENMOLCASOPENMOLCASOPENMOLCASOPENMOLCA
        OPENMOLCASOPENMOLCASOPENMOLCASOPE
            OPENMOLCASOPENMOLCASOPENM
               OPENMOLCASOPENMOLCA        version: v23.06
                   OPENMOLCASO
                       OPE                tag:

 OpenMolcas is free software; you can redistribute it and/or modify it
 under the terms of the GNU Lesser General Public License version 2.1.
 OpenMolcas is distributed in the hope that it will be useful, but it
 is provided "as is" and without any express or implied warranties.
 For more details see the full text of the license in the file
 LICENSE or in <http://www.gnu.org/licenses/>.

                 Copyright (C) The OpenMolcas Authors
           For the author list and the recommended citation,
                   consult the file CONTRIBUTORS.md

           *************************************************
           * pymolcas version py2.24                       *
           *   build 4567b286dd94b1984b333a4ddf893180      *
           *   (after the EMIL interpreter by V. Veryazov) *
           *************************************************

configuration info
------------------
Host name: loginchem01.nottingham.ac.uk (Linux)
C Compiler ID: Intel
C flags: -std=gnu99 -gcc-sys -qopenmp
Fortran Compiler ID: Intel
Fortran flags: -fpp -i8 -heap-arrays -qopenmp
Definitions: _MOLCAS_;_I8_;_LINUX_
Parallel: OFF (GA=OFF)


   ----------------------------------------------------------------------------------------------------
  |
  |              Project: orca_geometry_optimisation_225_135_BP86_def2-SVP_def2J_scf_cas1_ras12i11_cas8
  |       Submitted from: /home/pcaah4/diamide_project
  |         Scratch area: /srv/COMMUNAL_SCRATCH/12392
  |      Save outputs to: /home/pcaah4/diamide_project
  |               Molcas: /software/chemistry/openmolcas/openmolcas-23.06-openmp
  |
  | Scratch area is empty
  |
  |       MOLCAS_DRIVER = /software/chemistry/openmolcas/openmolcas-23.06-openmp/sbin/pymolcas
  | MOLCAS_KEEP_WORKDIR = NO
  |       MOLCAS_NPROCS = 1
  |       MOLCAS_SOURCE = /software/chemistry/openmolcas/openmolcas-23.06-openmp
  |    MOLCAS_STRUCTURE = 0
  |
   ----------------------------------------------------------------------------------------------------

++ ---------   Input file   ---------

&SEWARD
TITLE
orca_geometry_optimisation_225_135_BP86_def2-SVP_def2J_scf_cas1_ras12i11
MULTIPOLES
2
SDIPOLE
ANGMOM
0 0 0
BASIS SET
C.ANO-S...4S3P1D.
C1            0.002660   -0.024654    0.046568 /Angstrom
C3            2.112661    1.261211   -0.025996 /Angstrom
C4            3.264450    1.096375   -1.027513 /Angstrom
C6            4.485373    2.148570   -2.906127 /Angstrom
C19          -0.600973   -1.424573    0.082184 /Angstrom
END OF BASIS
BASIS SET
N.ANO-S...4S3P1D.
N2            1.376866    0.018059    0.060399 /Angstrom
N5            3.424528    2.125252   -1.915196 /Angstrom
END OF BASIS
BASIS SET
O.ANO-S...4S3P1D.
O7           -0.691909    0.991885    0.015588 /Angstrom
O8            3.966733    0.083093   -1.013773 /Angstrom
END OF BASIS
BASIS SET
H.ANO-S...2S1P.
H9           -1.238934   -1.513470    0.984096 /Angstrom
H10          -1.266019   -1.547001   -0.795662 /Angstrom
H11           0.148314   -2.240311    0.087739 /Angstrom
H12           1.940303   -0.835273    0.015927 /Angstrom
H13           1.385338    2.053012   -0.299115 /Angstrom
H14           2.559576    1.543197    0.957271 /Angstrom
H15           2.771809    2.908828   -1.867538 /Angstrom
H16           4.077040    2.202404   -3.937464 /Angstrom
H17           5.173672    3.007161   -2.753292 /Angstrom
H18           5.055438    1.206793   -2.795548 /Angstrom
END OF BASIS
END OF INPUT

&RASSCF
TITLE
orca_geometry_optimisation_225_135_BP86_def2-SVP_def2J_scf_cas1_ras12i11
LUMORB
SPIN
1
SYMMETRY
1
NACTEL
12  0  0
INACTIVE
29
DELETED  ! delete Rydberg orbitals from an initial CAS(12,11) if done
3
FROZEN
0
RAS2
8
ITERATIONS
64 25
CIROOT
7 7
1 2 3 4 5 6 7
1 1 1 1 1 1 1
LEVSHFT
0.3
CIMX
20
FILEorb = /home/pcaah4/diamide_project/cas/ras12i11/ras_orb/orca_geometry_optimisation_225_135_BP86_def2-SVP_def2J_scf_cas1_ras12i11.RasOrb
ALTEr
0
END OF INPUT

&RASSI
NROF JOBIPH
    1 7
    1 2 3 5 4 6 7
TOFILE
TRDI
TDMN
1.0D-6
END OF INPUT

&CASPT2
TITLE
orca_geometry_optimisation_225_135_BP86_def2-SVP_def2J_scf_cas1_ras12i11
MULTISTATE
7 1 2 3 4 5 6 7
SHIFT
0.35
MAXITER
50
END OF INPUT

-- ----------------------------------

--- Start Module: seward at Tue Jun 10 17:40:09 2025 ---
 
()()()()()()()()()()()()()()()()()()()()()()()()()()()()()()()()()()()()()()()()()()()()()()()()()()

                                              &SEWARD

                                   only a single process is used
                       available to each process: 2.0 GB of memory, 1 thread
                                            pid: 3121368
()()()()()()()()()()()()()()()()()()()()()()()()()()()()()()()()()()()()()()()()()()()()()()()()()()
 
               SEWARD will generate:
                  Multipole Moment integrals up to order  2
                  Kinetic Energy integrals
                  Nuclear Attraction integrals (point charge)
                  One-Electron Hamiltonian integrals
                  Velocity integrals
                  Orbital angular momentum around ( 0.0000  0.0000  0.0000 )
                  Velocity quadrupole around ( 3.6546  1.3181 -1.4295 )
                  Two-Electron Repulsion integrals
 
 Title:
            orca_geometry_optimisation_225_135_BP86_def2-SVP_def2J_scf_cas1_ras12i11    
 
 
                   Integrals are discarded if absolute value <: 0.10E-13
                   Integral cutoff threshold is set to       <: 0.10E-15
 
++    Symmetry information:
      ---------------------
 
                    Character Table for C1 
 
                             E  
                    a        1  x, y, xy, Rz, z, xz, Ry, yz, Rx, I
--
 
 
++    Basis set information:
      ----------------------
 
 
      Basis set label: C.ANO-S...4S3P1D......
 
      Electronic valence basis set:
      ------------------
      Associated Effective Charge   6.000000 au
      Associated Actual Charge      6.000000 au
      Nuclear Model: Point charge
 
      Shell  nPrim  nBasis  Cartesian Spherical Contaminant
         s      10       4        X                  
         p       6       3        X                  
         d       3       1                 X         
 
 
      Basis set label: N.ANO-S...4S3P1D......
 
      Electronic valence basis set:
      ------------------
      Associated Effective Charge   7.000000 au
      Associated Actual Charge      7.000000 au
      Nuclear Model: Point charge
 
      Shell  nPrim  nBasis  Cartesian Spherical Contaminant
         s      10       4        X                  
         p       6       3        X                  
         d       3       1                 X         
 
 
      Basis set label: O.ANO-S...4S3P1D......
 
      Electronic valence basis set:
      ------------------
      Associated Effective Charge   8.000000 au
      Associated Actual Charge      8.000000 au
      Nuclear Model: Point charge
 
      Shell  nPrim  nBasis  Cartesian Spherical Contaminant
         s      10       4        X                  
         p       6       3        X                  
         d       3       1                 X         
 
 
      Basis set label: H.ANO-S...2S1P......
 
      Electronic valence basis set:
      ------------------
      Associated Effective Charge   1.000000 au
      Associated Actual Charge      1.000000 au
      Nuclear Model: Point charge
 
      Shell  nPrim  nBasis  Cartesian Spherical Contaminant
         s       7       2        X                  
         p       3       1        X                  
--
 
 
++    Molecular structure info:
      -------------------------
 
                    ************************************************ 
                    **** Cartesian Coordinates / Bohr, Angstrom **** 
                    ************************************************ 
 
     Center  Label                x              y              z                     x              y              z
        1      C1               0.005027      -0.046589       0.088001              0.002660      -0.024654       0.046568
        2      C3               3.992351       2.383343      -0.049125              2.112661       1.261211      -0.025996
        3      C4               6.168916       2.071848      -1.941718              3.264450       1.096375      -1.027513
        4      C6               8.476127       4.060209      -5.491784              4.485373       2.148570      -2.906127
        5      C19             -1.135674      -2.692053       0.155305             -0.600973      -1.424573       0.082184
        6      N2               2.601900       0.034127       0.114138              1.376866       0.018059       0.060399
        7      N5               6.471420       4.016144      -3.619196              3.424528       2.125252      -1.915196
        8      O7              -1.307519       1.874391       0.029457             -0.691909       0.991885       0.015588
        9      O8               7.496039       0.157023      -1.915753              3.966733       0.083093      -1.013773
       10      H9              -2.341246      -2.860044       1.859672             -1.238934      -1.513470       0.984096
       11      H10             -2.392429      -2.923408      -1.503583             -1.266019      -1.547001      -0.795662
       12      H11              0.280273      -4.233574       0.165803              0.148314      -2.240311       0.087739
       13      H12              3.666641      -1.578437       0.030098              1.940303      -0.835273       0.015927
       14      H13              2.617909       3.879630      -0.565245              1.385338       2.053012      -0.299115
       15      H14              4.836898       2.916220       1.808980              2.559576       1.543197       0.957271
       16      H15              5.237960       5.496888      -3.529135              2.771809       2.908828      -1.867538
       17      H16              7.704489       4.161940      -7.440729              4.077040       2.202404      -3.937464
       18      H17              9.776823       5.682711      -5.202968              5.173672       3.007161      -2.753292
       19      H18              9.553393       2.280508      -5.282820              5.055438       1.206793      -2.795548
 
                    ************************************************* 
                    **** InterNuclear Distances / Bohr, Angstrom **** 
                    ************************************************* 
 
     Atom centers         Bohr        Angstrom
   16 H15       7 N5      1.929284        1.020933
   13 H12       6 N2      1.934192        1.023530
   19 H18       4 C6      2.090814        1.106411
   12 H11       5 C19     2.093157        1.107651
   11 H10       5 C19     2.094008        1.108101
   10 H9        5 C19     2.094395        1.108306
   14 H13       2 C3      2.096269        1.109298
   17 H16       4 C6      2.098609        1.110536
   18 H17       4 C6      2.099462        1.110987
   15 H14       2 C3      2.109448        1.116272
    8 O7        1 C1      2.327309        1.231559
    9 O8        3 C4      2.329911        1.232936
    7 N5        3 C4      2.585677        1.368281
    6 N2        1 C1      2.598259        1.374939
    6 N2        2 C3      2.734745        1.447165
    7 N5        4 C6      2.743606        1.451854
    5 C19       1 C1      2.881702        1.524931
    3 C4        2 C3      2.901099        1.535195
   11 H10      10 H9      3.364241        1.780280
   15 H14      14 H13     3.389545        1.793670
   18 H17      17 H16     3.408050        1.803462
   19 H18      17 H16   
   12 H11      10 H9      3.410006        1.804497
   19 H18      18 H17     3.410466        1.804741
   12 H11      11 H10     3.412729        1.805939
   16 H15       3 C4      3.888119        2.057504
   14 H13       6 N2      3.905089        2.066484
   19 H18       7 N5      3.908790        2.068442
   13 H12       1 C1      3.969551        2.100596
   13 H12       2 C3      3.975936        2.103975
   17 H16       7 N5      4.018187        2.126333
   15 H14       6 N2      4.021712        2.128198
   18 H17       7 N5      4.026347        2.130651
   16 H15       4 C6      4.049909        2.143119
   15 H14       3 C4      4.068780        2.153106
   11 H10       1 C1      4.069032        2.153239
   10 H9        1 C1      4.069317        2.153390
   12 H11       1 C1      4.196744        2.220821
   14 H13       3 C4      4.215733        2.230870
   16 H15      14 H13     4.273737        2.261564
   13 H12      12 H11     4.305306        2.278270
    8 O7        6 N2      4.321724        2.286958
    9 O8        7 N5      4.341011        2.297164
   14 H13       8 O7      4.447880        2.353717
   19 H18       9 O8      4.480964        2.371224
    9 O8        2 C3      4.551553        2.408578
    8 O7        5 C19     4.571409        2.419085
    6 N2        3 C4      4.593742        2.430903
    6 N2        5 C19     4.626360        2.448164
   13 H12       9 O8      4.632758        2.451550
    7 N5        2 C3      4.642976        2.456957
    2 C3        1 C1      4.671416        2.472007
    4 C6        3 C4      4.677581        2.475269
   19 H18       3 C4      4.760376        2.519083
   14 H13       1 C1      4.761207        2.519522
   17 H16      16 H15     4.813150        2.547009
   16 H15       2 C3      4.832823        2.557420
   18 H17      16 H15     4.841232        2.561870
   13 H12       3 C4      4.845000        2.563864
   12 H11       6 N2      4.858589        2.571055
   14 H13       7 N5      4.918820        2.602928
   13 H12       5 C19     4.931334        2.609549
   15 H14      13 H12     4.973516        2.631871
   11 H10       8 O7      5.152293        2.726476
   10 H9        8 O7      5.180073        2.741176
    9 O8        6 N2      5.299826        2.804547
    8 O7        2 C3      5.324831        2.817779
   15 H14       9 O8      5.343953        2.827898
    9 O8        4 C6      5.383626        2.848892
   14 H13      13 H12     5.589703        2.957943
   19 H18      16 H15     5.660696        2.995511
--
 
 
            Nuclear Potential Energy            448.17179784 au
 
 
      Basis set specifications :
      Symmetry species         a  
      Basis functions          212
 
 
      Input file to MOLDEN was generated!
 
--- Stop Module: seward at Tue Jun 10 17:41:57 2025 /rc=_RC_ALL_IS_WELL_ ---
*** files: orca_geometry_optimisation_225_135_BP86_def2-SVP_def2J_scf_cas1_ras12i11_cas8.GssOrb
           orca_geometry_optimisation_225_135_BP86_def2-SVP_def2J_scf_cas1_ras12i11_cas8.guessorb.molden xmldump
    saved to directory /home/pcaah4/diamide_project
--- Module seward spent 1 minute 48 seconds ---

*** symbolic link created: INPORB -> orca_geometry_optimisation_225_135_BP86_def2-SVP_def2J_scf_cas1_ras12i11_cas8.GssOrb
--- Start Module: rasscf at Tue Jun 10 17:41:58 2025 ---
 
()()()()()()()()()()()()()()()()()()()()()()()()()()()()()()()()()()()()()()()()()()()()()()()()()()

                                              &RASSCF

                                   only a single process is used
                       available to each process: 2.0 GB of memory, 1 thread
                                            pid: 3121398
()()()()()()()()()()()()()()()()()()()()()()()()()()()()()()()()()()()()()()()()()()()()()()()()()()
 
 
      Header of the ONEINT file:
      --------------------------
      orca_geometry_optimisation_225_135_BP86_def2-SVP_def2J_scf_cas1_ras12i11
      Integrals generated by Gateway/Seward, Tue Jun 10 17:40:10 2025
 
 
      OrdInt status: non-squared
 
 
      Cartesian coordinates in Angstrom:
      -----------------------------------------------------
      No.  Label        X            Y            Z        
      -----------------------------------------------------
       1   C1         0.00266000  -0.02465400   0.04656800
       2   C3         2.11266100   1.26121100  -0.02599600
       3   C4         3.26445000   1.09637500  -1.02751300
       4   C6         4.48537300   2.14857000  -2.90612700
       5   C19       -0.60097300  -1.42457300   0.08218400
       6   N2         1.37686600   0.01805900   0.06039900
       7   N5         3.42452800   2.12525200  -1.91519600
       8   O7        -0.69190900   0.99188500   0.01558800
       9   O8         3.96673300   0.08309300  -1.01377300
      10   H9        -1.23893400  -1.51347000   0.98409600
      11   H10       -1.26601900  -1.54700100  -0.79566200
      12   H11        0.14831400  -2.24031100   0.08773900
      13   H12        1.94030300  -0.83527300   0.01592700
      14   H13        1.38533800   2.05301200  -0.29911500
      15   H14        2.55957600   1.54319700   0.95727100
      16   H15        2.77180900   2.90882800  -1.86753800
      17   H16        4.07704000   2.20240400  -3.93746400
      18   H17        5.17367200   3.00716100  -2.75329200
      19   H18        5.05543800   1.20679300  -2.79554800
      -----------------------------------------------------
      Nuclear repulsion energy =  448.17179784
 
++    Wave function specifications:
      -----------------------------
 
      Number of closed shell electrons          58
      Number of electrons in active shells      12
      Max number of holes in RAS1 space          0
      Max nr of electrons in RAS3 space          0
      Number of inactive orbitals               29
      Number of active orbitals                  8
      Number of secondary orbitals             172
      Spin quantum number                      0.0
      State symmetry                             1
--
 
++    Orbital specifications:
      -----------------------
 
      Symmetry species                           1
                                                 a
      Frozen orbitals                            0
      Inactive orbitals                         29
      Active orbitals                            8
      RAS1 orbitals                              0
      RAS2 orbitals                              8
      RAS3 orbitals                              0
      Secondary orbitals                       172
      Deleted orbitals                           3
      Number of basis functions                212
--
 
++    CI expansion specifications:
      ----------------------------
 
      Number of CSFs                           336
      Number of determinants                   406
      Number of root(s) required                 7
      Root chosen for geometry opt.              7
      CI roots used                              1     2     3     4     5     6     7
      weights                                0.143 0.143 0.143 0.143 0.143 0.143 0.143
      highest root included in the CI            7
      max. size of the explicit Hamiltonian    200
--
 
++    Optimization specifications:
      ----------------------------
 
      RASSCF algorithm: Conventional
      Maximum number of macro iterations        64
      Maximum number of SX iterations           25
      Threshold for RASSCF energy            0.100E-07
      Threshold for max MO rotation          0.100E+00
      Threshold for max BLB element          0.100E-03
      Level shift parameter                  0.300E+00
      Make Quasi-Newton update
--
 
      The MO-coefficients are taken from the file:
      /home/pcaah4/diamide_project/cas/ras12i11/ras_orb/orca_geometry_optimisation_225_135_BP86_def2-SVP_def2J_scf_cas1_ras12i11.RasOrb                                                                                                                               
      Title: RASSCF average (pseudo-natural) orbitals                                      
 
      Total molecular charge    0.00
 
      ************************************************************************************************************************
      *                                                                                                                      *
      *                                            Wave function control section                                             *
      *                                                                                                                      *
      ************************************************************************************************************************
 
 
                                         RASSCF iterations: Energy and convergence statistics
                                         ----------------------------------------------------
 
      Iter CI   SX   CI       RASSCF       Energy    max ROT     max BLB   max BLB  Level Ln srch  Step   QN   Walltime
          iter iter root      energy       change     param      element    value   shift minimum  type update hh:mm:ss
 Nr of preliminary CI iterations:   3
        1   1   25    0  -452.35656645    0.00E+00   0.19E+00*  32  38 1 -0.53E+00*  0.02   0.00    SX    NO    0:00:13
        2   6   27    0  -453.39467195   -0.10E+01* -0.12E+00*  32  38 1 -0.19E+00*  0.13   0.00    SX    NO    0:00:07
        3   3   29    0  -453.55845725   -0.16E+00* -0.15E+00*  32  38 1 -0.54E-01*  0.14   0.00    SX    NO    0:00:07
        4   3   31    0  -453.59048079   -0.32E-01*  0.15E+00*  36  39 1 -0.23E-01*  0.14   0.00    SX    NO    0:00:06
        5   3   33    0  -453.60399158   -0.14E-01* -0.19E+00*  36  39 1 -0.18E-01*  0.14   2.50    QN   YES    0:00:07
        6   3   35    0  -453.61611865   -0.12E-01* -0.13E+00*  36  39 1 -0.79E-02*  0.13   1.77    QN   YES    0:00:06
        7   3   37    0  -453.62217124   -0.61E-02* -0.69E-01   37  39 1 -0.84E-02*  0.12   1.49    QN   YES    0:00:07
        8   3   39    0  -453.62523029   -0.31E-02*  0.43E-01   37  39 1 -0.10E-01*  0.12   1.69    QN   YES    0:00:07
        9   3   41    0  -453.62773584   -0.25E-02* -0.43E-01   36  39 1  0.91E-02*  0.12   1.81    QN   YES    0:00:07
       10   3   43    0  -453.62957858   -0.18E-02*  0.38E-01   36  39 1  0.44E-02*  0.12   1.68    QN   YES    0:00:07
       11   3   45    0  -453.63047804   -0.90E-03* -0.39E-01   37  49 1  0.13E-02*  0.12   1.62    QN   YES    0:00:07
       12   3   44    0  -453.63089622   -0.42E-03*  0.49E-01   37  39 1  0.21E-02*  0.12   1.74    QN   YES    0:00:07
       13   3   44    0  -453.63119423   -0.30E-03*  0.68E-01   36  39 1 -0.18E-02*  0.12   1.95    QN   YES    0:00:07
       14   4   43    0  -453.63149404   -0.30E-03*  0.95E-01   36  39 1 -0.13E-02*  0.12   2.10    QN   YES    0:00:07
       15   4   45    0  -453.63184558   -0.35E-03* -0.12E+00*  33  45 1  0.11E-02*  0.12   2.06    QN   YES    0:00:07
       16   4   44    0  -453.63226554   -0.42E-03* -0.13E+00*  37  39 1 -0.18E-02*  0.12   1.68    QN   YES    0:00:07
       17   4   44    0  -453.63271890   -0.45E-03*  0.11E+00*  37  39 1 -0.30E-02*  0.12   1.51    QN   YES    0:00:07
       18   4   45    0  -453.63333653   -0.62E-03* -0.11E+00*  37  39 1 -0.37E-02*  0.12   1.74    QN   YES    0:00:07
       19   5   45    0  -453.63432539   -0.99E-03* -0.93E-01   37  39 1 -0.38E-02*  0.13   1.59    QN   YES    0:00:07
       20   4   43    0  -453.63553812   -0.12E-02* -0.89E-01   36  39 1  0.30E-02*  0.13   1.58    QN   YES    0:00:07
       21   4   45    0  -453.63682050   -0.13E-02*  0.78E-01   31  41 1  0.20E-02*  0.13   1.72    QN   YES    0:00:07
       22   4   47    0  -453.63802982   -0.12E-02*  0.57E-01   31  41 1  0.16E-02*  0.13   1.57    QN   YES    0:00:07
       23   3   44    0  -453.63866337   -0.63E-03*  0.67E-01   37  39 1  0.18E-02*  0.13   1.29    QN   YES    0:00:07
       24   4   45    0  -453.63876652   -0.10E-03* -0.37E-01   37  39 1  0.17E-02*  0.13   0.60    QN   YES    0:00:07
       25   4   41    0  -453.63901405   -0.25E-03* -0.85E-02   37  39 1  0.10E-02*  0.13   1.33    QN   YES    0:00:07
       26   3   38    0  -453.63907751   -0.63E-04* -0.63E-02   36  41 1 -0.36E-03*  0.13   1.57    QN   YES    0:00:07
       27   3   38    0  -453.63910592   -0.28E-04* -0.82E-02   36  41 1 -0.29E-03*  0.13   1.55    QN   YES    0:00:07
       28   4   38    0  -453.63912340   -0.17E-04* -0.14E-01   37  41 1 -0.32E-03*  0.13   2.02    QN   YES    0:00:07
       29   5   38    0  -453.63914511   -0.22E-04* -0.22E-01   37  41 1 -0.36E-03*  0.13   2.02    QN   YES    0:00:07
       30   6   37    0  -453.63917344   -0.28E-04* -0.38E-01   37  41 1 -0.41E-03*  0.13   2.27    QN   YES    0:00:07
       31   6   39    0  -453.63921700   -0.44E-04* -0.61E-01   37  41 1 -0.49E-03*  0.13   2.41    QN   YES    0:00:07
       32   6   40    0  -453.63928253   -0.66E-04* -0.90E-01   37  41 1 -0.69E-03*  0.14   2.33    QN   YES    0:00:07
       33   7   41    0  -453.63936907   -0.87E-04*  0.89E-01   32  41 1 -0.13E-02*  0.14   1.58    QN   YES    0:00:07
       34   6   41    0  -453.63944992   -0.81E-04*  0.52E-01   32  41 1 -0.20E-02*  0.14   1.31    QN   YES    0:00:07
       35   6   40    0  -453.63954630   -0.96E-04*  0.31E-01   32  41 1 -0.14E-02*  0.14   1.85    QN   YES    0:00:07
       36   4   39    0  -453.63963485   -0.89E-04* -0.49E-01   36  41 1 -0.52E-03*  0.14   1.55    QN   YES    0:00:07
       37   6   39    0  -453.63968413   -0.49E-04*  0.15E-01   36  41 1 -0.50E-03*  0.14   1.54    QN   YES    0:00:07
       38   4   38    0  -453.63973532   -0.51E-04* -0.39E-01   32  41 1  0.85E-03*  0.14   1.24    QN   YES    0:00:07
       39   7   37    0  -453.63977226   -0.37E-04* -0.16E-01   37  39 1 -0.47E-03*  0.14   1.65    QN   YES    0:00:07
       40   4   37    0  -453.63980955   -0.37E-04* -0.10E-01   32  83 1  0.26E-03*  0.14   1.41    QN   YES    0:00:07
       41   4   37    0  -453.63982496   -0.15E-04*  0.72E-02   36  52 1 -0.21E-03*  0.14   1.29    QN   YES    0:00:06
       42   4   35    0  -453.63983454   -0.96E-05* -0.24E-02   32  41 1 -0.29E-03*  0.14   1.08    QN   YES    0:00:07
       43   3   33    0  -453.63984041   -0.59E-05* -0.24E-02   36  39 1 -0.10E-03*  0.14   1.69    QN   YES    0:00:07
       44   4   31    0  -453.63984368   -0.33E-05*  0.16E-02   32  83 1 -0.11E-03*  0.14   1.30    QN   YES    0:00:07
       45   3   30    0  -453.63984461   -0.92E-06* -0.87E-03   32  41 1  0.95E-04   0.14   1.55    QN   YES    0:00:06
       46   4   28    0  -453.63984507   -0.47E-06*  0.61E-03   32  41 1  0.35E-04   0.14   1.29    QN   YES    0:00:06
       47   3   26    0  -453.63984521   -0.14E-06* -0.54E-03   33  45 1 -0.14E-04   0.14   1.40    QN   YES    0:00:06
       48   3   24    0  -453.63984527   -0.58E-07*  0.14E-03   32  41 1 -0.16E-04   0.14   1.42    QN   YES    0:00:06
       49   3   22    0  -453.63984529   -0.22E-07* -0.15E-03   32  41 1 -0.10E-04   0.14   1.41    QN   YES    0:00:06
       50   3   20    0  -453.63984530   -0.77E-08  -0.50E-04   32  93 1  0.28E-05   0.14   1.41    QN   YES    0:00:06
      Convergence after 50 iterations
       51   1   20    0  -453.63984530   -0.24E-08  -0.50E-04   32  83 1 -0.27E-05   0.14   1.41    QN   YES    0:00:06
 
      ************************************************************************************************************************
                                                      Wave function printout:
                       occupation of active orbitals, and spin coupling of open shells (u,d: Spin up or down)
      ************************************************************************************************************************
 
      Note: transformation to natural orbitals
      has been made, which may change the order of the CSFs.
 
      printout of CI-coefficients larger than  0.05 for root  1
      energy=    -453.962148
      conf/sym  11111111     Coeff  Weight
             1  22222200   0.97489 0.95041
             3  2222u2d0   0.09859 0.00972
             6  22220220  -0.07941 0.00631
            68  2u22u2dd  -0.06196 0.00384
            81  u22222d0   0.12744 0.01624
           175  20222202  -0.06508 0.00424
 
      printout of CI-coefficients larger than  0.05 for root  2
      energy=    -453.713975
      conf/sym  11111111     Coeff  Weight
             2  22222ud0  -0.82754 0.68482
             5  2222ud20   0.08917 0.00795
            41  22u222d0  -0.43667 0.19068
            43  22u2d220   0.08266 0.00683
            61  2u2222d0   0.30412 0.09249
           176  20222ud2   0.05316 0.00283
 
      printout of CI-coefficients larger than  0.05 for root  3
      energy=    -453.630329
      conf/sym  11111111     Coeff  Weight
             1  22222200  -0.07698 0.00593
             3  2222u2d0   0.95011 0.90271
            41  22u222d0  -0.05739 0.00329
            64  2u22220d  -0.11671 0.01362
            81  u22222d0  -0.14077 0.01982
            83  u222d220  -0.19624 0.03851
           177  2022u2d2  -0.05655 0.00320
           231  uu2222dd   0.05118 0.00262
 
      printout of CI-coefficients larger than  0.05 for root  4
      energy=    -453.593746
      conf/sym  11111111     Coeff  Weight
             2  22222ud0  -0.50345 0.25347
             3  2222u2d0   0.06711 0.00450
             5  2222ud20  -0.10048 0.01010
            21  222u22d0  -0.06450 0.00416
            41  22u222d0   0.81926 0.67119
            43  22u2d220   0.07088 0.00502
            61  2u2222d0  -0.17724 0.03141
            82  u2222d20  -0.05097 0.00260
           294  20u222d2  -0.05581 0.00311
 
      printout of CI-coefficients larger than  0.05 for root  5
      energy=    -453.531452
      conf/sym  11111111     Coeff  Weight
             1  22222200  -0.05790 0.00335
             3  2222u2d0   0.05590 0.00312
             6  22220220  -0.13666 0.01868
            21  222u22d0  -0.91608 0.83920
            23  222ud220  -0.10195 0.01039
            41  22u222d0  -0.07333 0.00538
            81  u22222d0   0.31569 0.09966
           262  202u22d2   0.06269 0.00393
 
      printout of CI-coefficients larger than  0.05 for root  6
      energy=    -453.528084
      conf/sym  11111111     Coeff  Weight
             1  22222200  -0.06172 0.00381
             2  22222ud0   0.15509 0.02405
             3  2222u2d0   0.06069 0.00368
             5  2222ud20  -0.06153 0.00379
             6  22220220  -0.14248 0.02030
            21  222u22d0   0.12005 0.01441
            41  22u222d0   0.26067 0.06795
            61  2u2222d0   0.83129 0.69104
            63  2u22d220  -0.12888 0.01661
            64  2u22220d  -0.05378 0.00289
            81  u22222d0   0.37074 0.13745
           172  202222ud  -0.08313 0.00691
 
      printout of CI-coefficients larger than  0.05 for root  7
      energy=    -453.519183
      conf/sym  11111111     Coeff  Weight
             1  22222200   0.12206 0.01490
             2  22222ud0   0.08761 0.00768
             3  2222u2d0  -0.10759 0.01158
             6  22220220   0.29878 0.08927
            21  222u22d0  -0.34021 0.11574
            41  22u222d0   0.15239 0.02322
            61  2u2222d0   0.38557 0.14866
            63  2u22d220  -0.06671 0.00445
            64  2u22220d   0.10657 0.01136
            81  u22222d0  -0.74077 0.54874
            83  u222d220  -0.05302 0.00281
           191  02222220  -0.09570 0.00916
 
      Natural orbitals and occupation numbers for root  1
      sym 1:   1.996165   1.981926   1.999973   2.000000   1.971810   1.999503   0.032219   0.018405
 
      Natural orbitals and occupation numbers for root  2
      sym 1:   1.999751   1.989119   1.998188   1.999998   1.996602   1.001666   1.003429   0.011246
 
      Natural orbitals and occupation numbers for root  3
      sym 1:   1.985778   1.971089   1.999760   1.999999   1.022481   1.998844   0.992734   0.029316
 
      Natural orbitals and occupation numbers for root  4
      sym 1:   1.999485   1.980918   1.002265   1.999996   1.988265   1.997050   1.015356   0.016664
 
      Natural orbitals and occupation numbers for root  5
      sym 1:   1.997136   1.982348   1.999984   0.975228   1.953746   1.999594   1.073702   0.018262
 
      Natural orbitals and occupation numbers for root  6
      sym 1:   1.987635   0.937632   1.999948   1.999765   1.951756   1.998442   1.116639   0.008182
 
      Natural orbitals and occupation numbers for root  7
      sym 1:   1.181558   1.974705   1.999797   1.998767   1.804302   1.999368   1.018322   0.023180
 
      ************************************************************************************************************************
      *                                                                                                                      *
      *                                                    Final results                                                     *
      *                                                                                                                      *
      ************************************************************************************************************************
 
 
++    Wave function specifications:
      -----------------------------
 
      Number of closed shell electrons          58
      Number of electrons in active shells      12
      Max number of holes in RAS1 space          0
      Max nr of electrons in RAS3 space          0
      Number of inactive orbitals               29
      Number of active orbitals                  8
      Number of secondary orbitals             172
      Spin quantum number                      0.0
      State symmetry                             1
--
 
++    Orbital specifications:
      -----------------------
 
      Symmetry species                           1
                                                 a
      Frozen orbitals                            0
      Inactive orbitals                         29
      Active orbitals                            8
      RAS1 orbitals                              0
      RAS2 orbitals                              8
      RAS3 orbitals                              0
      Secondary orbitals                       172
      Deleted orbitals                           3
      Number of basis functions                212
--
 
++    CI expansion specifications:
      ----------------------------
 
      Number of CSFs                           336
      Number of determinants                   406
      Number of root(s) required                 7
      CI roots used                              1     2     3     4     5     6     7
      weights                                0.143 0.143 0.143 0.143 0.143 0.143 0.143
      highest root included in the CI            7
      Root passed to geometry opt.               7
--
 
++    Final optimization conditions:
      ------------------------------
 
      Average CI energy                            -453.63984530
      RASSCF energy for state  7                   -453.51918269
      Super-CI energy                                -0.00000000
      RASSCF energy change                            0.00000000
      Max change in MO coefficients              -0.118E-03
      Max non-diagonal density matrix element    -0.504E-04
      Maximum BLB matrix element                 -0.274E-05
      (orbital pair  32,  83 in symmetry   1)
      Norm of electronic gradient            0.115E+00
--
 
 
      Final state energy(ies):
      ------------------------
 
::    RASSCF root number  1 Total energy:   -453.96214835
::    RASSCF root number  2 Total energy:   -453.71397530
::    RASSCF root number  3 Total energy:   -453.63032909
::    RASSCF root number  4 Total energy:   -453.59374632
::    RASSCF root number  5 Total energy:   -453.53145183
::    RASSCF root number  6 Total energy:   -453.52808354
::    RASSCF root number  7 Total energy:   -453.51918269
 
++    Molecular orbitals:
      -------------------
 
      Pseudonatural active orbitals and approximate occupation numbers
 
 
 
 
      Molecular orbitals for symmetry species 1: a  
 
 
      Orbital                 1         2         3         4         5         6         7         8         9        10
      Energy           -20.5724  -20.5428  -15.6232  -15.5918  -11.3893  -11.2932  -11.2885  -11.2688  -11.2636   -1.4133
      Occ. No.           2.0000    2.0000    2.0000    2.0000    2.0000    2.0000    2.0000    2.0000    2.0000    2.0000
 
     1 C1     1s         0.0003    0.0000    0.0003   -0.0000    1.0000    0.0000    0.0000   -0.0000   -0.0025   -0.0394
     2 C1     2s         0.0011    0.0002    0.0013   -0.0001    0.0021   -0.0000   -0.0005   -0.0003   -0.0005    0.3714
     3 C1     3s        -0.0003    0.0001    0.0005   -0.0001    0.0001   -0.0001   -0.0005   -0.0003   -0.0008   -0.0106
     4 C1     4s        -0.0003   -0.0000    0.0001   -0.0000    0.0010    0.0000   -0.0002   -0.0001   -0.0003    0.0035
     5 C1     2px       -0.0015    0.0001    0.0016   -0.0003    0.0011   -0.0007    0.0000   -0.0002   -0.0004   -0.0422
     6 C1     3px       -0.0010   -0.0001    0.0012   -0.0005    0.0010   -0.0008   -0.0003   -0.0002    0.0001    0.0295
     7 C1     4px        0.0002   -0.0001   -0.0001   -0.0001    0.0004   -0.0002   -0.0003   -0.0001    0.0002   -0.0118
     8 C1     2py        0.0032   -0.0001    0.0002    0.0000    0.0009    0.0002    0.0001   -0.0002   -0.0006    0.0995
     9 C1     3py        0.0021   -0.0001    0.0002   -0.0001    0.0008   -0.0001   -0.0004   -0.0003    0.0002   -0.0627
    10 C1     4py       -0.0004   -0.0000    0.0000   -0.0000    0.0004   -0.0001   -0.0004   -0.0001    0.0003    0.0234
    11 C1     2pz       -0.0001   -0.0002    0.0001   -0.0001   -0.0000   -0.0000    0.0000    0.0000   -0.0000   -0.0039
    12 C1     3pz       -0.0000   -0.0003    0.0001   -0.0001   -0.0000    0.0000    0.0000    0.0000   -0.0000    0.0001
    13 C1     4pz        0.0000   -0.0000    0.0000   -0.0001    0.0000   -0.0000    0.0000    0.0000   -0.0000   -0.0011
    14 C1     3d2-       0.0001   -0.0000    0.0001   -0.0000   -0.0003   -0.0001    0.0000   -0.0000    0.0000   -0.0332
    15 C1     3d1-      -0.0000   -0.0000    0.0000   -0.0000   -0.0000   -0.0000    0.0000    0.0000    0.0000   -0.0017
    16 C1     3d0       -0.0000   -0.0000    0.0001    0.0000   -0.0006    0.0000   -0.0001    0.0000    0.0001   -0.0281
    17 C1     3d1+      -0.0000   -0.0000   -0.0000   -0.0000    0.0000    0.0000   -0.0000   -0.0000   -0.0000    0.0010
    18 C1     3d2+       0.0001    0.0000   -0.0002    0.0000    0.0000    0.0000    0.0000    0.0000   -0.0000   -0.0074
    19 C3     1s         0.0001    0.0000    0.0003    0.0001    0.0000    0.0623    0.9975    0.0000    0.0001   -0.0109
    20 C3     2s         0.0006    0.0002    0.0018    0.0005    0.0007   -0.0001   -0.0015    0.0006    0.0008    0.0206
    21 C3     3s         0.0004    0.0001    0.0008    0.0004    0.0004   -0.0004   -0.0027    0.0003    0.0005   -0.0216
    22 C3     4s         0.0001   -0.0001    0.0001    0.0000    0.0000    0.0000    0.0006    0.0000    0.0001   -0.0022
    23 C3     2px       -0.0000   -0.0004   -0.0003    0.0003    0.0006   -0.0003   -0.0008    0.0001    0.0003   -0.0222
    24 C3     3px        0.0002   -0.0004    0.0002    0.0002    0.0010   -0.0009   -0.0007   -0.0002    0.0004   -0.0102
    25 C3     4px        0.0002   -0.0001    0.0002   -0.0001    0.0003   -0.0003   -0.0004   -0.0002    0.0001   -0.0055
    26 C3     2py       -0.0002    0.0008   -0.0003   -0.0006    0.0003   -0.0001   -0.0001    0.0001   -0.0001   -0.0235
    27 C3     3py       -0.0001    0.0007    0.0002   -0.0006    0.0004   -0.0002    0.0001    0.0002    0.0000   -0.0053
    28 C3     4py        0.0000   -0.0000    0.0002    0.0000    0.0001   -0.0001   -0.0008    0.0000    0.0001   -0.0046
    29 C3     2pz        0.0003   -0.0008   -0.0002    0.0006   -0.0002    0.0001    0.0002   -0.0004    0.0001    0.0008
    30 C3     3pz        0.0003   -0.0006   -0.0003    0.0007   -0.0004    0.0004   -0.0001   -0.0004    0.0001    0.0047
    31 C3     4pz        0.0000    0.0001   -0.0001    0.0001   -0.0001    0.0000   -0.0001    0.0000   -0.0000    0.0016
    32 C3     3d2-       0.0001    0.0000    0.0000   -0.0000    0.0000   -0.0000   -0.0001    0.0000    0.0000    0.0040
    33 C3     3d1-      -0.0000   -0.0001   -0.0000   -0.0000    0.0000    0.0001   -0.0000    0.0000    0.0000    0.0000
    34 C3     3d0       -0.0000    0.0000    0.0001   -0.0000   -0.0000    0.0000    0.0000    0.0000   -0.0000   -0.0029
    35 C3     3d1+       0.0000   -0.0001    0.0000   -0.0000    0.0000    0.0000    0.0001   -0.0001    0.0000   -0.0011
    36 C3     3d2+      -0.0000   -0.0000    0.0001   -0.0000    0.0000    0.0001    0.0000    0.0001   -0.0000   -0.0008
    37 C4     1s         0.0000    0.0003   -0.0001    0.0003   -0.0002    0.9981   -0.0623    0.0003   -0.0001   -0.0012
    38 C4     2s         0.0002    0.0009   -0.0008    0.0011   -0.0011    0.0030    0.0007   -0.0006   -0.0006    0.0457
    39 C4     3s         0.0001   -0.0004   -0.0005    0.0004   -0.0009    0.0001    0.0003   -0.0005   -0.0004    0.0111
    40 C4     4s        -0.0000   -0.0003   -0.0002    0.0001   -0.0002    0.0014   -0.0000   -0.0002   -0.0001    0.0040
    41 C4     2px       -0.0001    0.0017    0.0003    0.0003    0.0002    0.0009   -0.0008    0.0001    0.0002   -0.0043
    42 C4     3px        0.0000    0.0009    0.0003    0.0002    0.0002    0.0005   -0.0002   -0.0004    0.0003   -0.0092
    43 C4     4px        0.0001   -0.0003    0.0001   -0.0000    0.0001    0.0007    0.0002   -0.0004    0.0001   -0.0021
    44 C4     2py       -0.0001   -0.0026   -0.0002    0.0011   -0.0001   -0.0001    0.0002   -0.0004   -0.0000   -0.0056
    45 C4     3py       -0.0002   -0.0017   -0.0001    0.0008   -0.0001    0.0002    0.0003   -0.0005   -0.0001    0.0034
    46 C4     4py       -0.0001    0.0003    0.0001   -0.0001   -0.0000   -0.0000    0.0002   -0.0001   -0.0000   -0.0006
    47 C4     2pz       -0.0002    0.0001    0.0002   -0.0012    0.0001   -0.0004    0.0010    0.0002   -0.0002    0.0059
    48 C4     3pz       -0.0004    0.0001    0.0002   -0.0009   -0.0000   -0.0003    0.0006    0.0008   -0.0003    0.0062
    49 C4     4pz       -0.0001    0.0000   -0.0000    0.0001    0.0000   -0.0003   -0.0000    0.0005   -0.0000    0.0021
    50 C4     3d2-       0.0000    0.0001    0.0001    0.0000    0.0000   -0.0004    0.0001   -0.0000    0.0000   -0.0025
    51 C4     3d1-      -0.0000   -0.0000    0.0000    0.0002    0.0000   -0.0002    0.0001   -0.0001    0.0000   -0.0012
    52 C4     3d0        0.0000    0.0001   -0.0001    0.0000    0.0000   -0.0003    0.0000   -0.0000    0.0000   -0.0014
    53 C4     3d1+      -0.0000   -0.0001   -0.0000   -0.0000    0.0000   -0.0000    0.0000   -0.0000    0.0000   -0.0006
    54 C4     3d2+       0.0000    0.0000   -0.0001    0.0002    0.0000   -0.0003    0.0001   -0.0000    0.0000   -0.0011
    55 C6     1s         0.0000    0.0001   -0.0001    0.0004   -0.0001   -0.0001    0.0001    0.9997    0.0000    0.0002
    56 C6     2s         0.0002    0.0005   -0.0005    0.0019   -0.0006    0.0019    0.0000    0.0001    0.0001    0.0084
    57 C6     3s         0.0001    0.0004   -0.0004    0.0007   -0.0005    0.0012    0.0000   -0.0016    0.0001    0.0063
    58 C6     4s         0.0000    0.0001   -0.0001    0.0000   -0.0002    0.0002   -0.0000    0.0009    0.0000    0.0026
    59 C6     2px        0.0000   -0.0001    0.0001   -0.0004    0.0001    0.0001   -0.0003   -0.0001    0.0001   -0.0054
    60 C6     3px        0.0000   -0.0001    0.0000    0.0001    0.0001   -0.0001   -0.0002    0.0002    0.0000   -0.0040
    61 C6     4px       -0.0000   -0.0000   -0.0000    0.0002    0.0000   -0.0001    0.0000   -0.0005   -0.0000   -0.0002
    62 C6     2py        0.0001   -0.0002   -0.0001    0.0002   -0.0001    0.0004   -0.0001    0.0001    0.0000   -0.0002
    63 C6     3py        0.0001   -0.0001   -0.0001    0.0002   -0.0001    0.0006   -0.0002   -0.0000    0.0001   -0.0006
    64 C6     4py        0.0000    0.0000   -0.0000    0.0000   -0.0000    0.0002   -0.0000   -0.0000    0.0000   -0.0006
    65 C6     2pz        0.0000    0.0002   -0.0002    0.0003   -0.0001   -0.0001   -0.0001   -0.0000    0.0000    0.0041
    66 C6     3pz        0.0000    0.0002   -0.0002   -0.0001   -0.0001   -0.0005   -0.0001   -0.0002   -0.0000    0.0039
    67 C6     4pz       -0.0000   -0.0000   -0.0000   -0.0002   -0.0000   -0.0003    0.0000    0.0005   -0.0000    0.0013
    68 C6     3d2-       0.0000   -0.0000   -0.0000    0.0001   -0.0000    0.0000   -0.0000    0.0000   -0.0000    0.0002
    69 C6     3d1-      -0.0000   -0.0000   -0.0000    0.0000   -0.0000   -0.0001    0.0000   -0.0000    0.0000   -0.0000
    70 C6     3d0       -0.0000    0.0000   -0.0000    0.0000   -0.0000   -0.0001    0.0000   -0.0000   -0.0000    0.0003
    71 C6     3d1+       0.0000   -0.0000    0.0000    0.0001    0.0000   -0.0001   -0.0000    0.0001   -0.0000   -0.0004
    72 C6     3d2+      -0.0000    0.0000   -0.0000   -0.0000   -0.0000   -0.0000    0.0000   -0.0001   -0.0000    0.0003
    73 C19    1s         0.0002   -0.0000   -0.0000    0.0000    0.0025    0.0002    0.0002   -0.0000    1.0000   -0.0156
    74 C19    2s         0.0013   -0.0000   -0.0000    0.0001    0.0008    0.0012    0.0009   -0.0002    0.0020   -0.0099
    75 C19    3s         0.0008   -0.0000    0.0001    0.0000    0.0004    0.0008    0.0005   -0.0002   -0.0004   -0.0415
    76 C19    4s         0.0001   -0.0000    0.0000   -0.0000    0.0002    0.0002    0.0000   -0.0001    0.0013   -0.0039
    77 C19    2px        0.0008    0.0000   -0.0003   -0.0000   -0.0003   -0.0001    0.0002   -0.0000   -0.0002   -0.0077
    78 C19    3px        0.0005    0.0000   -0.0003    0.0000   -0.0004   -0.0001    0.0002   -0.0000   -0.0001   -0.0068
    79 C19    4px       -0.0002    0.0000    0.0000    0.0000   -0.0000   -0.0000   -0.0000    0.0000    0.0002    0.0072
    80 C19    2py       -0.0001   -0.0000    0.0003   -0.0001    0.0002   -0.0003    0.0003   -0.0001   -0.0002    0.0232
    81 C19    3py       -0.0003   -0.0000    0.0003   -0.0002   -0.0003   -0.0005    0.0001   -0.0001   -0.0000   -0.0060
    82 C19    4py       -0.0002    0.0000   -0.0001   -0.0000   -0.0001   -0.0002   -0.0001   -0.0000    0.0004    0.0060
    83 C19    2pz       -0.0000   -0.0001    0.0000    0.0000    0.0001    0.0001    0.0001   -0.0000    0.0000   -0.0003
    84 C19    3pz       -0.0000   -0.0001    0.0000    0.0000    0.0000    0.0001    0.0001   -0.0000    0.0000    0.0007
    85 C19    4pz        0.0000    0.0000   -0.0000   -0.0000   -0.0000   -0.0000   -0.0000    0.0000   -0.0000   -0.0000
    86 C19    3d2-       0.0001   -0.0000   -0.0000    0.0000    0.0000    0.0000    0.0001   -0.0000   -0.0001    0.0010
    87 C19    3d1-      -0.0000    0.0000   -0.0000   -0.0000   -0.0000   -0.0000   -0.0000    0.0000    0.0000   -0.0002
    88 C19    3d0       -0.0001   -0.0000   -0.0001    0.0000    0.0001    0.0000   -0.0000   -0.0000    0.0001    0.0011
    89 C19    3d1+      -0.0000    0.0000   -0.0000   -0.0000   -0.0000   -0.0000   -0.0000    0.0000    0.0000    0.0000
    90 C19    3d2+       0.0001   -0.0000   -0.0000    0.0000   -0.0001    0.0000   -0.0000   -0.0000    0.0001   -0.0071
    91 N2     1s         0.0001   -0.0000    0.9999   -0.0000   -0.0003    0.0001    0.0001    0.0000    0.0001   -0.0195
    92 N2     2s         0.0005   -0.0002    0.0004   -0.0001   -0.0002    0.0006    0.0014    0.0001    0.0007    0.1344
    93 N2     3s         0.0004   -0.0001   -0.0012   -0.0000   -0.0003    0.0004    0.0007    0.0001    0.0005   -0.0505
    94 N2     4s         0.0001    0.0000    0.0005   -0.0000    0.0001    0.0001    0.0003    0.0000    0.0001   -0.0124
    95 N2     2px        0.0002    0.0000    0.0006   -0.0002   -0.0003    0.0001    0.0009   -0.0002   -0.0004   -0.0357
    96 N2     3px        0.0002   -0.0000    0.0007   -0.0003   -0.0002    0.0001    0.0008   -0.0003   -0.0004    0.0151
    97 N2     4px        0.0000   -0.0001   -0.0002   -0.0000   -0.0004   -0.0000    0.0000   -0.0001    0.0001   -0.0056
    98 N2     2py       -0.0016    0.0002   -0.0008   -0.0002    0.0000   -0.0000    0.0008   -0.0000   -0.0004    0.0353
    99 N2     3py       -0.0019    0.0002   -0.0002   -0.0003   -0.0001   -0.0002    0.0008   -0.0000   -0.0003    0.0128
   100 N2     4py       -0.0000    0.0000    0.0004   -0.0001   -0.0000   -0.0001    0.0002   -0.0000    0.0001   -0.0059
   101 N2     2pz       -0.0000    0.0004   -0.0000   -0.0001    0.0000    0.0002   -0.0002    0.0001   -0.0000   -0.0014
   102 N2     3pz       -0.0000    0.0006   -0.0001   -0.0001    0.0000    0.0000   -0.0002    0.0001   -0.0000    0.0014
   103 N2     4pz        0.0000    0.0001   -0.0001    0.0000    0.0000    0.0001   -0.0001    0.0000    0.0000   -0.0004
   104 N2     3d2-       0.0001    0.0000   -0.0002   -0.0000   -0.0001    0.0000   -0.0000   -0.0000   -0.0000   -0.0023
   105 N2     3d1-       0.0000    0.0000    0.0000   -0.0000    0.0000    0.0000    0.0000    0.0000    0.0000   -0.0003
   106 N2     3d0       -0.0000    0.0000   -0.0000    0.0000    0.0002   -0.0000    0.0001   -0.0000   -0.0001   -0.0032
   107 N2     3d1+      -0.0000    0.0000   -0.0000   -0.0000   -0.0000   -0.0000    0.0000    0.0000   -0.0000    0.0002
   108 N2     3d2+      -0.0000   -0.0000    0.0000   -0.0000    0.0001    0.0000   -0.0000   -0.0000    0.0000    0.0055
   109 N5     1s         0.0000    0.0001    0.0001    0.9999    0.0001   -0.0003    0.0000    0.0001    0.0000   -0.0023
   110 N5     2s         0.0000    0.0008    0.0005    0.0004    0.0005   -0.0006    0.0002    0.0017    0.0001    0.0034
   111 N5     3s         0.0000    0.0006    0.0003   -0.0012    0.0004   -0.0007    0.0002    0.0010    0.0001   -0.0073
   112 N5     4s         0.0000    0.0001    0.0001    0.0005    0.0001   -0.0001    0.0000    0.0004    0.0000   -0.0016
   113 N5     2px       -0.0002   -0.0011    0.0003   -0.0008    0.0002   -0.0002    0.0000    0.0007   -0.0001   -0.0005
   114 N5     3px       -0.0003   -0.0012    0.0004   -0.0006    0.0004   -0.0005    0.0001    0.0007   -0.0002   -0.0027
   115 N5     4px       -0.0000    0.0000    0.0001    0.0002    0.0001   -0.0002    0.0001    0.0002   -0.0000   -0.0012
   116 N5     2py        0.0001    0.0008   -0.0001    0.0007   -0.0000   -0.0003   -0.0002    0.0001    0.0000   -0.0037
   117 N5     3py        0.0001    0.0009   -0.0001    0.0003    0.0000   -0.0001   -0.0001   -0.0002    0.0000   -0.0007
   118 N5     4py       -0.0000    0.0000    0.0001   -0.0004    0.0000   -0.0001    0.0001   -0.0002   -0.0000   -0.0005
   119 N5     2pz        0.0001    0.0005   -0.0002    0.0002   -0.0002    0.0004    0.0002   -0.0007    0.0000    0.0053
   120 N5     3pz        0.0002    0.0006   -0.0003    0.0002   -0.0005    0.0007    0.0002   -0.0005    0.0000    0.0070
   121 N5     4pz        0.0000   -0.0000   -0.0001    0.0000   -0.0001    0.0003   -0.0001   -0.0001   -0.0000    0.0024
   122 N5     3d2-      -0.0000   -0.0000    0.0000   -0.0001    0.0000    0.0000   -0.0000    0.0000   -0.0000    0.0001
   123 N5     3d1-      -0.0000   -0.0000   -0.0000    0.0000    0.0000    0.0000   -0.0000    0.0001    0.0000   -0.0003
   124 N5     3d0       -0.0000    0.0000   -0.0000   -0.0001   -0.0000   -0.0000    0.0000   -0.0000   -0.0000    0.0001
   125 N5     3d1+       0.0000   -0.0001   -0.0000    0.0001    0.0000    0.0002   -0.0000    0.0001    0.0000   -0.0001
   126 N5     3d2+      -0.0000    0.0000   -0.0000   -0.0001    0.0000   -0.0000   -0.0000    0.0000   -0.0000   -0.0001
   127 O7     1s         0.9997    0.0000    0.0000   -0.0000   -0.0003   -0.0000   -0.0000    0.0000    0.0001   -0.0247
   128 O7     2s        -0.0017    0.0000    0.0002   -0.0001    0.0002   -0.0004   -0.0002    0.0000    0.0003    0.6621
   129 O7     3s        -0.0015   -0.0000    0.0001   -0.0000   -0.0002   -0.0002   -0.0001    0.0000    0.0003   -0.0333
   130 O7     4s        -0.0000   -0.0000    0.0000   -0.0000   -0.0001   -0.0001    0.0000    0.0000    0.0001   -0.0133
   131 O7     2px        0.0001    0.0000   -0.0003    0.0000    0.0003   -0.0000   -0.0001    0.0000    0.0001    0.0856
   132 O7     3px       -0.0003    0.0000   -0.0004    0.0001   -0.0001    0.0001   -0.0001   -0.0000    0.0001   -0.0266
   133 O7     4px        0.0008    0.0000   -0.0001    0.0000    0.0000    0.0000    0.0000   -0.0000   -0.0000   -0.0014
   134 O7     2py       -0.0001   -0.0000   -0.0002    0.0001   -0.0006    0.0002   -0.0000   -0.0000   -0.0001   -0.1181
   135 O7     3py        0.0006   -0.0000   -0.0002    0.0001   -0.0003    0.0000   -0.0001   -0.0000   -0.0001    0.0352
   136 O7     4py       -0.0011   -0.0000    0.0001    0.0000   -0.0002    0.0000   -0.0000   -0.0000    0.0000   -0.0004
   137 O7     2pz       -0.0000    0.0000   -0.0000   -0.0000    0.0000   -0.0001    0.0000    0.0000    0.0000    0.0036
   138 O7     3pz       -0.0000    0.0001   -0.0000   -0.0000   -0.0000   -0.0001    0.0000   -0.0000    0.0000   -0.0006
   139 O7     4pz        0.0000    0.0000   -0.0000    0.0000    0.0000   -0.0000    0.0000   -0.0000   -0.0000    0.0003
   140 O7     3d2-       0.0001   -0.0000    0.0000    0.0000   -0.0003    0.0000    0.0000   -0.0000   -0.0000   -0.0179
   141 O7     3d1-      -0.0000   -0.0000   -0.0000   -0.0000   -0.0000    0.0000    0.0000   -0.0000   -0.0000   -0.0008
   142 O7     3d0       -0.0000    0.0000   -0.0001   -0.0000   -0.0001    0.0000   -0.0000    0.0000   -0.0000   -0.0100
   143 O7     3d1+       0.0000   -0.0000    0.0000   -0.0000    0.0000    0.0000    0.0000    0.0000    0.0000    0.0005
   144 O7     3d2+       0.0000   -0.0000   -0.0001    0.0000   -0.0001   -0.0000   -0.0000    0.0000   -0.0000   -0.0059
   145 O8     1s         0.0000    0.9997   -0.0000    0.0000    0.0000   -0.0003    0.0000   -0.0000    0.0000   -0.0022
   146 O8     2s        -0.0000   -0.0013   -0.0002    0.0002    0.0002    0.0000    0.0002   -0.0003    0.0001    0.0455
   147 O8     3s        -0.0001   -0.0013   -0.0002    0.0002    0.0002   -0.0002    0.0002   -0.0002    0.0001   -0.0044
   148 O8     4s        -0.0000    0.0002   -0.0001    0.0000    0.0001    0.0000    0.0000   -0.0000    0.0000   -0.0015
   149 O8     2px        0.0000   -0.0001    0.0001   -0.0002   -0.0001   -0.0004    0.0000   -0.0000   -0.0001   -0.0051
   150 O8     3px        0.0000    0.0003    0.0001   -0.0001   -0.0002   -0.0002    0.0000   -0.0000   -0.0001    0.0035
   151 O8     4px        0.0000   -0.0007   -0.0000    0.0001   -0.0001   -0.0003    0.0000   -0.0000   -0.0000    0.0002
   152 O8     2py        0.0000    0.0003   -0.0000   -0.0001    0.0000    0.0008    0.0000   -0.0001    0.0000    0.0039
   153 O8     3py        0.0001   -0.0004   -0.0001   -0.0002    0.0000    0.0001    0.0000   -0.0000   -0.0000   -0.0038
   154 O8     4py        0.0000    0.0010   -0.0000   -0.0001   -0.0000    0.0002   -0.0001    0.0000   -0.0000    0.0002
   155 O8     2pz        0.0000   -0.0001   -0.0001    0.0003   -0.0000   -0.0003   -0.0001    0.0000    0.0000    0.0006
   156 O8     3pz        0.0000   -0.0000   -0.0001    0.0003    0.0000    0.0000   -0.0001   -0.0000    0.0001   -0.0002
   157 O8     4pz       -0.0000   -0.0000   -0.0000    0.0000   -0.0000   -0.0000   -0.0000   -0.0000    0.0000    0.0000
   158 O8     3d2-      -0.0000    0.0001    0.0000   -0.0000   -0.0000   -0.0001   -0.0000    0.0000   -0.0000   -0.0010
   159 O8     3d1-      -0.0000   -0.0000    0.0000    0.0000    0.0000   -0.0000   -0.0000    0.0000    0.0000    0.0000
   160 O8     3d0       -0.0000    0.0001    0.0000   -0.0000   -0.0000   -0.0001    0.0000    0.0000   -0.0000   -0.0006
   161 O8     3d1+       0.0000   -0.0001    0.0000   -0.0001    0.0000    0.0000   -0.0000   -0.0000   -0.0000   -0.0000
   162 O8     3d2+      -0.0000    0.0001   -0.0000    0.0000    0.0000   -0.0001    0.0000    0.0000    0.0000   -0.0002
   163 H9     1s         0.0001    0.0002    0.0000   -0.0002   -0.0003   -0.0008   -0.0003    0.0000    0.0003    0.0187
   164 H9     2s         0.0000    0.0001   -0.0000   -0.0001   -0.0002   -0.0006   -0.0002    0.0000   -0.0003    0.0054
   165 H9     2px       -0.0000    0.0000    0.0000   -0.0000    0.0000   -0.0001   -0.0000   -0.0000   -0.0000    0.0011
   166 H9     2py       -0.0001    0.0000   -0.0000    0.0000    0.0001    0.0000   -0.0000    0.0000    0.0000    0.0012
   167 H9     2pz       -0.0000   -0.0000    0.0000    0.0000    0.0000    0.0001    0.0000    0.0000    0.0001   -0.0011
   168 H10    1s         0.0001   -0.0002    0.0001   -0.0002   -0.0002   -0.0005   -0.0001   -0.0001    0.0002    0.0187
   169 H10    2s         0.0000   -0.0001    0.0001   -0.0001   -0.0001   -0.0004   -0.0001   -0.0000   -0.0003    0.0051
   170 H10    2px       -0.0000   -0.0000    0.0000   -0.0000    0.0000    0.0000   -0.0000   -0.0000   -0.0000    0.0011
   171 H10    2py       -0.0001   -0.0000   -0.0000   -0.0000    0.0001   -0.0000   -0.0000   -0.0000    0.0000    0.0012
   172 H10    2pz        0.0000   -0.0000   -0.0000   -0.0000    0.0000   -0.0000   -0.0000   -0.0000   -0.0001    0.0010
   173 H11    1s        -0.0005   -0.0000    0.0004   -0.0002    0.0001   -0.0005   -0.0001   -0.0001    0.0004    0.0234
   174 H11    2s        -0.0003   -0.0000    0.0003   -0.0001   -0.0000   -0.0004   -0.0001   -0.0001   -0.0002    0.0068
   175 H11    2px       -0.0000    0.0000   -0.0001    0.0000   -0.0000    0.0000    0.0000    0.0000    0.0001   -0.0005
   176 H11    2py       -0.0000   -0.0000    0.0000    0.0000    0.0001    0.0000    0.0000   -0.0000    0.0000    0.0021
   177 H11    2pz       -0.0000    0.0000   -0.0000   -0.0000   -0.0000   -0.0000   -0.0000    0.0000   -0.0000    0.0000
   178 H12    1s        -0.0012    0.0002   -0.0009    0.0001   -0.0000   -0.0002   -0.0001   -0.0001   -0.0005    0.0391
   179 H12    2s        -0.0007    0.0002   -0.0007    0.0000   -0.0001   -0.0001   -0.0000   -0.0000   -0.0003   -0.0042
   180 H12    2px        0.0001   -0.0000    0.0002    0.0000   -0.0001   -0.0000    0.0000    0.0000    0.0001   -0.0049
   181 H12    2py       -0.0000    0.0000   -0.0004    0.0000   -0.0000    0.0000    0.0000   -0.0000   -0.0000    0.0048
   182 H12    2pz       -0.0000   -0.0000   -0.0000   -0.0000    0.0000    0.0000    0.0000   -0.0000    0.0000    0.0003
   183 H13    1s         0.0003   -0.0007   -0.0004    0.0006   -0.0002    0.0000    0.0007   -0.0000    0.0001    0.0157
   184 H13    2s         0.0003   -0.0004   -0.0002    0.0004   -0.0001   -0.0001    0.0000   -0.0001    0.0001   -0.0023
   185 H13    2px        0.0000   -0.0001    0.0000    0.0000   -0.0000    0.0001    0.0000    0.0000   -0.0000   -0.0001
   186 H13    2py       -0.0000    0.0000   -0.0000   -0.0001    0.0000   -0.0000   -0.0001   -0.0000   -0.0000   -0.0012
   187 H13    2pz        0.0000    0.0000    0.0000    0.0000   -0.0000   -0.0000   -0.0000   -0.0000   -0.0000    0.0006
   188 H14    1s         0.0002    0.0006   -0.0006   -0.0003   -0.0004    0.0001    0.0010   -0.0001   -0.0002    0.0140
   189 H14    2s         0.0001    0.0004   -0.0002   -0.0002   -0.0003    0.0001    0.0002   -0.0000   -0.0001    0.0031
   190 H14    2px       -0.0000   -0.0001    0.0000   -0.0000    0.0000    0.0000   -0.0000   -0.0000   -0.0000   -0.0007
   191 H14    2py       -0.0000   -0.0000    0.0000    0.0000   -0.0000   -0.0000   -0.0001   -0.0000    0.0000   -0.0005
   192 H14    2pz       -0.0000   -0.0000    0.0000    0.0000    0.0001   -0.0000    0.0000    0.0000    0.0000   -0.0013
   193 H15    1s        -0.0003   -0.0012    0.0003   -0.0009    0.0001    0.0000    0.0000   -0.0001   -0.0001    0.0042
   194 H15    2s        -0.0002   -0.0007    0.0002   -0.0006    0.0001   -0.0001    0.0001   -0.0000   -0.0001    0.0008
   195 H15    2px       -0.0000   -0.0001    0.0000   -0.0003   -0.0000    0.0000    0.0000    0.0000   -0.0000    0.0007
   196 H15    2py        0.0000    0.0001   -0.0000    0.0004   -0.0000   -0.0001   -0.0000    0.0000    0.0000   -0.0006
   197 H15    2pz       -0.0000   -0.0000    0.0000    0.0000    0.0000    0.0001   -0.0000   -0.0000    0.0000   -0.0003
   198 H16    1s         0.0000    0.0003   -0.0001   -0.0006   -0.0001   -0.0004   -0.0002    0.0006    0.0000    0.0026
   199 H16    2s         0.0000    0.0002   -0.0001   -0.0003   -0.0001   -0.0004   -0.0001   -0.0001   -0.0000    0.0020
   200 H16    2px       -0.0000   -0.0000   -0.0000    0.0000   -0.0000    0.0000   -0.0000   -0.0000    0.0000    0.0000
   201 H16    2py       -0.0000   -0.0000    0.0000    0.0000    0.0000   -0.0000    0.0000   -0.0000   -0.0000   -0.0000
   202 H16    2pz        0.0000    0.0000   -0.0000   -0.0000   -0.0000    0.0001   -0.0000    0.0000    0.0000    0.0001
   203 H17    1s        -0.0001    0.0003    0.0001   -0.0007    0.0000   -0.0011    0.0002    0.0005   -0.0001    0.0028
   204 H17    2s        -0.0001    0.0002    0.0001   -0.0003   -0.0000   -0.0008    0.0002   -0.0001   -0.0001    0.0018
   205 H17    2px        0.0000   -0.0000   -0.0000    0.0001    0.0000    0.0001   -0.0000   -0.0000    0.0000   -0.0001
   206 H17    2py        0.0000   -0.0000   -0.0000    0.0001    0.0000    0.0001   -0.0000    0.0000    0.0000   -0.0004
   207 H17    2pz        0.0000    0.0000    0.0000   -0.0000   -0.0000    0.0000   -0.0000    0.0000    0.0000   -0.0001
   208 H18    1s        -0.0001    0.0000   -0.0002   -0.0002   -0.0001   -0.0005    0.0002    0.0010   -0.0001    0.0052
   209 H18    2s        -0.0000    0.0001   -0.0001   -0.0001   -0.0000   -0.0002    0.0001    0.0001   -0.0000    0.0029
   210 H18    2px        0.0000   -0.0000    0.0000   -0.0000    0.0000    0.0000   -0.0000   -0.0001    0.0000   -0.0004
   211 H18    2py       -0.0000    0.0000   -0.0000    0.0000   -0.0000   -0.0001    0.0000    0.0001   -0.0000    0.0006
   212 H18    2pz       -0.0000   -0.0000    0.0000   -0.0000    0.0000    0.0000    0.0000    0.0000   -0.0000    0.0000
 
 
      Orbital                11        12        13        14        15        16        17        18        19        20
      Energy            -1.3760   -1.2529   -1.2201   -1.0366   -0.9762   -0.9188   -0.8144   -0.7748   -0.7210   -0.6888
      Occ. No.           2.0000    2.0000    2.0000    2.0000    2.0000    2.0000    2.0000    2.0000    2.0000    2.0000
 
     1 C1     1s         0.0056   -0.0072    0.0028   -0.0151   -0.0016    0.0069   -0.0119    0.0016    0.0061    0.0045
     2 C1     2s        -0.0059    0.1251    0.0018    0.2741   -0.0145   -0.0953    0.3728   -0.0347   -0.2698   -0.1237
     3 C1     3s         0.0180    0.0018    0.0139   -0.0184   -0.0040    0.0138   -0.0087    0.0024    0.0092    0.0238
     4 C1     4s         0.0050    0.0017    0.0042   -0.0037   -0.0021    0.0049   -0.0025    0.0010    0.0036    0.0054
     5 C1     2px        0.0332    0.1653    0.0109   -0.0119    0.1042   -0.1041    0.1501   -0.0034    0.1432    0.2739
     6 C1     3px        0.0197   -0.0413    0.0335   -0.0419   -0.0328    0.0386   -0.0310   -0.0127   -0.0654   -0.0714
     7 C1     4px        0.0088    0.0288    0.0047   -0.0100    0.0109   -0.0073    0.0102   -0.0023    0.0044    0.0144
     8 C1     2py        0.0042   -0.0456    0.0235   -0.1735    0.0539    0.0058    0.0349    0.0450    0.1074   -0.0784
     9 C1     3py        0.0266    0.0507    0.0225    0.0253   -0.0509    0.0428   -0.0020   -0.0002   -0.0326    0.0481
    10 C1     4py       -0.0001   -0.0057    0.0051   -0.0257    0.0056    0.0034    0.0067    0.0029   -0.0013   -0.0065
    11 C1     2pz        0.0028   -0.0054   -0.0020    0.0087    0.0028   -0.0060    0.0076    0.0056    0.0152   -0.0259
    12 C1     3pz        0.0023   -0.0112   -0.0043    0.0041    0.0051   -0.0083    0.0044   -0.0025    0.0015    0.0011
    13 C1     4pz        0.0000   -0.0015   -0.0013    0.0026    0.0011   -0.0025    0.0005    0.0000    0.0017   -0.0011
    14 C1     3d2-       0.0041    0.0163   -0.0011    0.0098   -0.0085    0.0066    0.0171    0.0083    0.0138    0.0038
    15 C1     3d1-       0.0000    0.0003   -0.0002   -0.0008    0.0004    0.0004   -0.0003    0.0007    0.0002   -0.0003
    16 C1     3d0        0.0018   -0.0061    0.0003   -0.0118   -0.0009    0.0052   -0.0128    0.0015    0.0058    0.0026
    17 C1     3d1+       0.0002   -0.0006    0.0006    0.0005    0.0013   -0.0016    0.0009    0.0002    0.0030   -0.0025
    18 C1     3d2+       0.0023    0.0281   -0.0019   -0.0004    0.0154   -0.0138    0.0053   -0.0018    0.0096    0.0078
    19 C3     1s        -0.0152   -0.0291   -0.0053    0.0309    0.0280   -0.0211   -0.0092   -0.0055    0.0001    0.0022
    20 C3     2s         0.0144    0.1728    0.0039   -0.2718   -0.2597    0.3338    0.1080    0.0631   -0.0506    0.0075
    21 C3     3s        -0.0411   -0.0487   -0.0169    0.0531    0.0475   -0.0126   -0.0197   -0.0114    0.0003    0.0055
    22 C3     4s        -0.0057   -0.0102   -0.0019    0.0149    0.0115   -0.0045   -0.0052   -0.0038    0.0020    0.0001
    23 C3     2px        0.0291   -0.0528    0.0240   -0.0191   -0.0637    0.0226   -0.0498   -0.1368   -0.2482    0.0882
    24 C3     3px        0.0083    0.0061    0.0198   -0.0232    0.0174    0.0289    0.0088    0.0207    0.0328   -0.0116
    25 C3     4px        0.0076   -0.0053    0.0071   -0.0041    0.0006    0.0020   -0.0019   -0.0077   -0.0042    0.0029
    26 C3     2py       -0.0292   -0.0940    0.0199    0.0114   -0.0342   -0.0358    0.1457   -0.0066   -0.0436    0.1711
    27 C3     3py       -0.0016    0.0095    0.0007   -0.0338    0.0101   -0.0231   -0.0096    0.0049    0.0128   -0.0304
    28 C3     4py        0.0051   -0.0032    0.0027   -0.0111   -0.0077    0.0044    0.0082    0.0087   -0.0029    0.0072
    29 C3     2pz       -0.0000    0.0065   -0.0231    0.0104    0.0363    0.0535    0.0057    0.1000    0.0544   -0.1021
    30 C3     3pz        0.0180    0.0141   -0.0008   -0.0127   -0.0234    0.0333    0.0075   -0.0155   -0.0107    0.0147
    31 C3     4pz       -0.0060    0.0091   -0.0012   -0.0077   -0.0061    0.0165    0.0020    0.0028   -0.0017   -0.0024
    32 C3     3d2-       0.0004    0.0180    0.0030   -0.0038    0.0059   -0.0017   -0.0050    0.0032    0.0158   -0.0178
    33 C3     3d1-       0.0053   -0.0020   -0.0027    0.0005   -0.0010    0.0018   -0.0016   -0.0019   -0.0089    0.0031
    34 C3     3d0       -0.0016   -0.0104    0.0035    0.0042   -0.0052   -0.0028    0.0030   -0.0084   -0.0137    0.0073
    35 C3     3d1+      -0.0022   -0.0037   -0.0022    0.0048    0.0094    0.0018    0.0038    0.0121    0.0098   -0.0045
    36 C3     3d2+       0.0019   -0.0092    0.0010    0.0013   -0.0075   -0.0025    0.0180   -0.0067   -0.0082    0.0162
    37 C4     1s        -0.0395    0.0054   -0.0066    0.0080    0.0147    0.0065   -0.0029    0.0133    0.0030   -0.0027
    38 C4     2s         0.3346    0.0307    0.1393   -0.0895   -0.2373   -0.0518    0.0365   -0.3783   -0.0713    0.0829
    39 C4     3s        -0.0073    0.0178    0.0068    0.0194    0.0113    0.0136   -0.0061    0.0002    0.0051    0.0000
    40 C4     4s         0.0019    0.0049    0.0019    0.0062    0.0041    0.0045   -0.0018    0.0038    0.0032   -0.0015
    41 C4     2px        0.0587   -0.0390    0.0060    0.0477    0.1123   -0.0081    0.0079    0.0216    0.1020   -0.0622
    42 C4     3px       -0.0271    0.0088    0.0489   -0.0395    0.0183    0.0687    0.0057   -0.0161   -0.0476    0.0268
    43 C4     4px        0.0196   -0.0082    0.0046    0.0034    0.0184    0.0064    0.0026   -0.0012    0.0008    0.0010
    44 C4     2py       -0.0474    0.0020    0.1398   -0.0207   -0.0732   -0.0664    0.0290   -0.1507    0.0316    0.0106
    45 C4     3py        0.0591   -0.0298   -0.0324    0.0132    0.0343    0.0282    0.0123    0.0331   -0.0205    0.0021
    46 C4     4py       -0.0184   -0.0018    0.0282   -0.0011   -0.0067   -0.0056    0.0089   -0.0083    0.0017    0.0005
    47 C4     2pz       -0.0224    0.0108   -0.1053   -0.0301   -0.0527    0.0402   -0.0100    0.0730   -0.1572    0.0711
    48 C4     3pz       -0.0144   -0.0101   -0.0276    0.0218   -0.0270   -0.1071   -0.0123   -0.0131    0.0642   -0.0370
    49 C4     4pz       -0.0060    0.0025   -0.0247   -0.0045   -0.0109   -0.0053   -0.0040    0.0069   -0.0059   -0.0002
    50 C4     3d2-      -0.0324    0.0060    0.0162   -0.0007    0.0008   -0.0007   -0.0050   -0.0134    0.0078   -0.0112
    51 C4     3d1-      -0.0100   -0.0014   -0.0201   -0.0001    0.0065    0.0153    0.0028    0.0153   -0.0105    0.0074
    52 C4     3d0       -0.0186    0.0045    0.0111   -0.0027   -0.0020    0.0020   -0.0016   -0.0119    0.0021   -0.0060
    53 C4     3d1+      -0.0043   -0.0034   -0.0052    0.0075    0.0097   -0.0083   -0.0020    0.0167    0.0025    0.0011
    54 C4     3d2+      -0.0152    0.0045   -0.0067   -0.0045    0.0014    0.0141    0.0024   -0.0010   -0.0024   -0.0004
    55 C6     1s        -0.0098    0.0041   -0.0363   -0.0155   -0.0385   -0.0408   -0.0057    0.0051    0.0062   -0.0054
    56 C6     2s         0.0171    0.0246    0.1499    0.0486    0.2585    0.3769    0.0341   -0.1226   -0.0381    0.0480
    57 C6     3s        -0.0199    0.0229   -0.0682   -0.0368   -0.0732   -0.0616   -0.0173    0.0043    0.0178   -0.0137
    58 C6     4s        -0.0024    0.0067   -0.0121   -0.0077   -0.0158   -0.0121   -0.0048    0.0021    0.0045   -0.0035
    59 C6     2px       -0.0144   -0.0070   -0.0779   -0.0174   -0.0129    0.0258    0.0333   -0.1207   -0.0330    0.0900
    60 C6     3px        0.0038   -0.0076    0.0154    0.0029    0.0132   -0.0019    0.0007    0.0040    0.0125   -0.0193
    61 C6     4px       -0.0018   -0.0005   -0.0007    0.0042    0.0095    0.0132    0.0042   -0.0099   -0.0007    0.0023
    62 C6     2py       -0.0079    0.0051   -0.0057   -0.0038    0.0034    0.0197   -0.0103    0.1205   -0.1039    0.0746
    63 C6     3py       -0.0026    0.0041    0.0008   -0.0034    0.0053    0.0205    0.0010    0.0049    0.0042   -0.0031
    64 C6     4py       -0.0011    0.0003    0.0019   -0.0007    0.0023    0.0044   -0.0021    0.0089   -0.0065    0.0040
    65 C6     2pz        0.0171    0.0101    0.0735    0.0108    0.0058   -0.0278   -0.0205    0.0291    0.0940   -0.1253
    66 C6     3pz       -0.0005    0.0121   -0.0140   -0.0033   -0.0192   -0.0085    0.0016   -0.0076   -0.0104    0.0162
    67 C6     4pz        0.0039    0.0013    0.0008   -0.0002   -0.0109   -0.0184   -0.0008    0.0004    0.0070   -0.0071
    68 C6     3d2-       0.0004    0.0003    0.0001   -0.0007   -0.0019   -0.0018    0.0006   -0.0049    0.0003    0.0010
    69 C6     3d1-      -0.0009    0.0003    0.0003   -0.0004   -0.0003    0.0003   -0.0012    0.0114   -0.0071    0.0043
    70 C6     3d0        0.0016   -0.0001    0.0051    0.0013    0.0002   -0.0028   -0.0002   -0.0013    0.0029   -0.0037
    71 C6     3d1+      -0.0041   -0.0002   -0.0205   -0.0038   -0.0059    0.0021    0.0039   -0.0102   -0.0114    0.0170
    72 C6     3d2+       0.0019    0.0004    0.0115    0.0022    0.0025   -0.0020   -0.0029    0.0123    0.0017   -0.0064
    73 C19    1s         0.0016   -0.0101    0.0016   -0.0588    0.0395   -0.0216    0.0120   -0.0039   -0.0122    0.0008
    74 C19    2s         0.0060    0.0028    0.0034    0.3216   -0.2470    0.1492   -0.0604    0.0431    0.1019    0.0425
    75 C19    3s         0.0096   -0.0279    0.0102   -0.1147    0.0761   -0.0407    0.0342   -0.0082   -0.0282    0.0134
    76 C19    4s         0.0033   -0.0033    0.0037   -0.0243    0.0173   -0.0093    0.0092   -0.0027   -0.0081    0.0033
    77 C19    2px        0.0019    0.0244   -0.0022    0.0558    0.0039   -0.0278    0.0528   -0.0263   -0.0748    0.1167
    78 C19    3px       -0.0005   -0.0029   -0.0004    0.0038    0.0042   -0.0026   -0.0020    0.0032    0.0192   -0.0144
    79 C19    4px       -0.0011    0.0003   -0.0006   -0.0086    0.0118   -0.0095    0.0016   -0.0047   -0.0050    0.0023
    80 C19    2py        0.0047    0.0105    0.0073    0.0518   -0.0087   -0.0157    0.0792   -0.0407   -0.2330   -0.1298
    81 C19    3py        0.0079   -0.0027    0.0111   -0.0347    0.0146   -0.0013   -0.0086   -0.0042    0.0367    0.0163
    82 C19    4py        0.0002    0.0007    0.0009   -0.0148    0.0131   -0.0095    0.0125   -0.0041   -0.0079   -0.0080
    83 C19    2pz        0.0033   -0.0010    0.0004   -0.0023    0.0005    0.0029   -0.0004    0.0025    0.0101   -0.0093
    84 C19    3pz        0.0030    0.0001    0.0010   -0.0013   -0.0012    0.0033    0.0000   -0.0016   -0.0029    0.0008
    85 C19    4pz       -0.0001    0.0005    0.0004   -0.0002   -0.0010    0.0009   -0.0005    0.0004    0.0006   -0.0005
    86 C19    3d2-       0.0004    0.0063   -0.0005    0.0119   -0.0017   -0.0028    0.0086   -0.0032   -0.0170   -0.0067
    87 C19    3d1-      -0.0001    0.0002    0.0000   -0.0005    0.0002   -0.0000   -0.0002    0.0005    0.0014   -0.0006
    88 C19    3d0       -0.0001   -0.0009    0.0001   -0.0089    0.0029    0.0009   -0.0042    0.0029    0.0108   -0.0052
    89 C19    3d1+      -0.0003    0.0001    0.0001   -0.0004   -0.0001   -0.0000   -0.0004    0.0001    0.0004    0.0001
    90 C19    3d2+       0.0007    0.0021   -0.0002   -0.0083    0.0045   -0.0009   -0.0040    0.0024    0.0161    0.0087
    91 N2     1s        -0.0040   -0.0409    0.0024   -0.0033   -0.0049    0.0016    0.0041    0.0003    0.0015   -0.0013
    92 N2     2s         0.0399    0.5784   -0.0428   -0.0468    0.1967   -0.1102   -0.1733   -0.0057    0.1180   -0.0487
    93 N2     3s        -0.0071   -0.0754    0.0039   -0.0104    0.0020   -0.0032    0.0065    0.0003    0.0083   -0.0021
    94 N2     4s        -0.0018   -0.0247    0.0017   -0.0006   -0.0017    0.0006    0.0031   -0.0002   -0.0004    0.0003
    95 N2     2px        0.0197   -0.0371    0.0095   -0.1379   -0.0498    0.1244   -0.3590   -0.0046   -0.0615   -0.2331
    96 N2     3px        0.0124   -0.0179    0.0126    0.0184    0.0479   -0.0645    0.1138   -0.0058   -0.0053    0.0488
    97 N2     4px        0.0045    0.0006    0.0024   -0.0072    0.0069   -0.0048   -0.0019   -0.0011   -0.0025    0.0038
    98 N2     2py        0.0004   -0.0103    0.0057   -0.1112   -0.0521    0.1088    0.2113    0.1438    0.2430   -0.1932
    99 N2     3py       -0.0081   -0.0486    0.0009    0.0392    0.0511   -0.0584   -0.0317   -0.0466   -0.0444    0.0146
   100 N2     4py        0.0005   -0.0125    0.0004   -0.0007    0.0052   -0.0058    0.0092   -0.0028   -0.0006    0.0035
   101 N2     2pz       -0.0087    0.0004    0.0040    0.0160    0.0100   -0.0225    0.0014    0.0206    0.0491   -0.0568
   102 N2     3pz       -0.0107    0.0125   -0.0004    0.0021   -0.0029   -0.0072   -0.0142    0.0019   -0.0017    0.0071
   103 N2     4pz       -0.0022    0.0009   -0.0003    0.0006    0.0004    0.0001   -0.0022    0.0016   -0.0023    0.0034
   104 N2     3d2-       0.0012    0.0075   -0.0000   -0.0010   -0.0079    0.0086    0.0079    0.0042    0.0047   -0.0042
   105 N2     3d1-      -0.0004   -0.0004   -0.0004    0.0011    0.0012   -0.0004   -0.0010    0.0009   -0.0009   -0.0005
   106 N2     3d0       -0.0015   -0.0162    0.0014    0.0023   -0.0038    0.0013    0.0008   -0.0004   -0.0018    0.0001
   107 N2     3d1+      -0.0007   -0.0001    0.0001    0.0004   -0.0001   -0.0003    0.0016    0.0004    0.0001    0.0012
   108 N2     3d2+       0.0009    0.0061    0.0001    0.0093    0.0068   -0.0117    0.0192   -0.0043   -0.0040    0.0125
   109 N5     1s        -0.0189   -0.0018   -0.0429   -0.0011    0.0020    0.0021    0.0015   -0.0036    0.0035   -0.0029
   110 N5     2s         0.1236   -0.0059    0.5775    0.0413   -0.0169   -0.2278   -0.0634    0.1567    0.0926   -0.1149
   111 N5     3s        -0.0480   -0.0045   -0.0818   -0.0026   -0.0010   -0.0157   -0.0011   -0.0009    0.0159   -0.0147
   112 N5     4s        -0.0113   -0.0002   -0.0267   -0.0019   -0.0016   -0.0016   -0.0002   -0.0016    0.0018   -0.0015
   113 N5     2px        0.0231   -0.0245   -0.0019    0.0466    0.1065    0.0913    0.0187   -0.1081    0.1264   -0.1433
   114 N5     3px        0.0091   -0.0269   -0.0280    0.0063   -0.0381   -0.0782   -0.0022    0.0275   -0.0223    0.0296
   115 N5     4px       -0.0061   -0.0043   -0.0081    0.0020    0.0011   -0.0040    0.0002   -0.0065    0.0018    0.0001
   116 N5     2py       -0.0405    0.0047   -0.0077    0.0120    0.0562    0.0341   -0.0525    0.3771   -0.2023    0.1045
   117 N5     3py        0.0110   -0.0022    0.0273    0.0010    0.0042   -0.0058    0.0071   -0.1043    0.0376   -0.0196
   118 N5     4py       -0.0015   -0.0018    0.0093    0.0035    0.0043   -0.0023   -0.0004    0.0047   -0.0005    0.0011
   119 N5     2pz        0.0033    0.0191    0.0114   -0.0413   -0.1422   -0.1121    0.0251   -0.1734    0.0054    0.0753
   120 N5     3pz       -0.0220    0.0297    0.0040    0.0102    0.0316    0.0741   -0.0114    0.0511   -0.0051   -0.0100
   121 N5     4pz        0.0055    0.0055   -0.0002   -0.0007   -0.0043    0.0049   -0.0027    0.0028   -0.0008   -0.0005
   122 N5     3d2-      -0.0005    0.0005   -0.0016   -0.0014   -0.0021    0.0032    0.0021   -0.0138    0.0029   -0.0015
   123 N5     3d1-      -0.0049    0.0003   -0.0131    0.0011    0.0063    0.0073   -0.0021    0.0143   -0.0044    0.0000
   124 N5     3d0       -0.0006    0.0006    0.0024   -0.0007   -0.0007    0.0031    0.0017   -0.0083    0.0011   -0.0010
   125 N5     3d1+       0.0003   -0.0009   -0.0140   -0.0013   -0.0044   -0.0053    0.0003   -0.0007   -0.0009    0.0033
   126 N5     3d2+      -0.0036    0.0010   -0.0020    0.0011    0.0062    0.0090   -0.0008    0.0065   -0.0024   -0.0017
   127 O7     1s         0.0020    0.0042   -0.0006   -0.0034    0.0017    0.0002   -0.0108   -0.0007    0.0113    0.0203
   128 O7     2s        -0.0829   -0.3249    0.0166   -0.2097    0.0417    0.0320   -0.3201   -0.0207    0.2031    0.3598
   129 O7     3s         0.0006   -0.0084   -0.0015   -0.0189    0.0085   -0.0005   -0.0364   -0.0031    0.0326    0.0594
   130 O7     4s         0.0009    0.0000   -0.0005   -0.0032    0.0023   -0.0008   -0.0069   -0.0011    0.0065    0.0123
[...]
ATVX     1  Mu1.0005  Se1.053                       0.29289806      0.00022194     -0.00051735     -0.00000011
ATVX     1  Mu1.0001  Se1.054                       0.20283266     -0.00073133      0.00087064     -0.00000064
ATVX     1  Mu1.0002  Se1.054                       0.20986027      0.00008596     -0.00034402     -0.00000003
ATVX     1  Mu1.0003  Se1.054                       0.22868616     -0.00138463      0.00248281     -0.00000344
ATVX     1  Mu1.0004  Se1.054                       0.27060390     -0.00061843      0.00135047     -0.00000084
ATVX     1  Mu1.0001  Se1.055                       0.21041803      0.00205784     -0.00414301     -0.00000853
ATVX     1  Mu1.0002  Se1.055                       0.21744564      0.00005169     -0.00005574     -0.00000000
ATVX     1  Mu1.0003  Se1.055                       0.23627153      0.00016443     -0.00057828     -0.00000010
ATVX     1  Mu1.0004  Se1.055                       0.27818927      0.00090892     -0.00129560     -0.00000118
ATVX     1  Mu1.0001  Se1.056                       0.21263623      0.00111338     -0.00215723     -0.00000240
ATVX     1  Mu1.0002  Se1.056                       0.21966384      0.00085553     -0.00170945     -0.00000146
ATVX     1  Mu1.0003  Se1.056                       0.23848973      0.00241433     -0.00427176     -0.00001031
ATVX     1  Mu1.0004  Se1.056                       0.28040748      0.00190180     -0.00274750     -0.00000523
ATVX     1  Mu1.0001  Se1.057                       0.25043645     -0.00260426      0.00405629     -0.00001056
ATVX     1  Mu1.0002  Se1.057                       0.25746406     -0.00201064      0.00317741     -0.00000639
ATVX     1  Mu1.0003  Se1.057                       0.27628995     -0.00026676      0.00027409     -0.00000007
ATVX     1  Mu1.0001  Se1.058                       0.26192547     -0.00450022      0.00780961     -0.00003514
ATVX     1  Mu1.0002  Se1.058                       0.26895308     -0.00094449      0.00122411     -0.00000116
ATVX     1  Mu1.0003  Se1.058                       0.28777897      0.00166737     -0.00220886     -0.00000368
ATVX     1  Mu1.0001  Se1.059                       0.28200162      0.00535133     -0.00943597     -0.00005050
ATVX     1  Mu1.0002  Se1.059                       0.28902924     -0.00132829      0.00205585     -0.00000273
ATVX     1  Mu1.0001  Se1.060                       0.29050527     -0.00240684      0.00399002     -0.00000960
ATVX     1  Mu1.0002  Se1.060                       0.29753289      0.00246784     -0.00410164     -0.00001012
AIVX     1  Mu1.0001  In1.021 Se1.038               0.27446654     -0.00299557      0.00510819     -0.00001530
AIVX     1  Mu1.0001  In1.022 Se1.038               0.23300378      0.00058483     -0.00140580     -0.00000082
AIVX     1  Mu1.0001  In1.023 Se1.038               0.24399441     -0.00027881      0.00077679     -0.00000022
AIVX     1  Mu1.0001  In1.024 Se1.038               0.20670663      0.00086992     -0.00178197     -0.00000155
AIVX     1  Mu1.0001  In1.025 Se1.038               0.24872324      0.00062593     -0.00099790     -0.00000062
AIVX     1  Mu1.0001  In1.026 Se1.038               0.19431126     -0.00014788      0.00016303     -0.00000002
AIVX     1  Mu1.0001  In1.027 Se1.038               0.17005701     -0.00138180      0.00287000     -0.00000397
AIVX     1  Mu1.0001  In1.028 Se1.038               0.18665246     -0.00229404      0.00444170     -0.00001019
AIVX     1  Mu1.0001  In1.029 Se1.038               0.13119630     -0.00018199      0.00027189     -0.00000005
AIVX     1  Mu1.0001  In1.021 Se1.039               0.29331339     -0.00249921      0.00462430     -0.00001156
AIVX     1  Mu1.0001  In1.022 Se1.039               0.25185063      0.00125584     -0.00202540     -0.00000254
AIVX     1  Mu1.0001  In1.023 Se1.039               0.26284126     -0.00006541     -0.00057766      0.00000004
AIVX     1  Mu1.0001  In1.024 Se1.039               0.22555348      0.00113510     -0.00222277     -0.00000252
AIVX     1  Mu1.0001  In1.025 Se1.039               0.26757009     -0.00108236      0.00203427     -0.00000220
AIVX     1  Mu1.0001  In1.026 Se1.039               0.21315811      0.00019308      0.00028738      0.00000006
AIVX     1  Mu1.0001  In1.027 Se1.039               0.18890386     -0.00190775      0.00386423     -0.00000737
AIVX     1  Mu1.0001  In1.028 Se1.039               0.20549931      0.00025100     -0.00067723     -0.00000017
AIVX     1  Mu1.0001  In1.029 Se1.039               0.15004315      0.00056305     -0.00174972     -0.00000099
AIVX     1  Mu1.0001  In1.021 Se1.040               0.29945994      0.00113242     -0.00162064     -0.00000184
AIVX     1  Mu1.0001  In1.022 Se1.040               0.25799718      0.00023909     -0.00039126     -0.00000009
AIVX     1  Mu1.0001  In1.023 Se1.040               0.26898781      0.00320270     -0.00549436     -0.00001760
AIVX     1  Mu1.0001  In1.024 Se1.040               0.23170003     -0.00174673      0.00297422     -0.00000520
AIVX     1  Mu1.0001  In1.025 Se1.040               0.27371664      0.00017763     -0.00019859     -0.00000004
AIVX     1  Mu1.0001  In1.026 Se1.040               0.21930465      0.00226113     -0.00362901     -0.00000821
AIVX     1  Mu1.0001  In1.027 Se1.040               0.19505041     -0.00056929      0.00103828     -0.00000059
AIVX     1  Mu1.0001  In1.028 Se1.040               0.21164586     -0.00068574      0.00131516     -0.00000090
AIVX     1  Mu1.0001  In1.029 Se1.040               0.15618970     -0.00144165      0.00255998     -0.00000369
AIVX     1  Mu1.0001  In1.022 Se1.041               0.27653618      0.00095870     -0.00097958     -0.00000094
AIVX     1  Mu1.0001  In1.023 Se1.041               0.28752682     -0.00056162      0.00030135     -0.00000017
AIVX     1  Mu1.0001  In1.024 Se1.041               0.25023904      0.00183181     -0.00297956     -0.00000546
AIVX     1  Mu1.0001  In1.025 Se1.041               0.29225564     -0.00191285      0.00276000     -0.00000528
AIVX     1  Mu1.0001  In1.026 Se1.041               0.23784366     -0.00074931      0.00144252     -0.00000108
AIVX     1  Mu1.0001  In1.027 Se1.041               0.21358942     -0.00004153      0.00011844     -0.00000000
AIVX     1  Mu1.0001  In1.028 Se1.041               0.23018486      0.00007586     -0.00023024     -0.00000002
AIVX     1  Mu1.0001  In1.029 Se1.041               0.17472871      0.00122301     -0.00240810     -0.00000295
AIVX     1  Mu1.0001  In1.022 Se1.042               0.28273270     -0.00174682      0.00279590     -0.00000488
AIVX     1  Mu1.0001  In1.023 Se1.042               0.29372333     -0.00074951      0.00151982     -0.00000114
AIVX     1  Mu1.0001  In1.024 Se1.042               0.25643555      0.00010500     -0.00019111     -0.00000002
AIVX     1  Mu1.0001  In1.025 Se1.042               0.29845216      0.00100236     -0.00172018     -0.00000172
AIVX     1  Mu1.0001  In1.026 Se1.042               0.24404017      0.00049290     -0.00092208     -0.00000045
AIVX     1  Mu1.0001  In1.027 Se1.042               0.21978593      0.00011255     -0.00030942     -0.00000003
AIVX     1  Mu1.0001  In1.028 Se1.042               0.23638138      0.00253143     -0.00426618     -0.00001080
AIVX     1  Mu1.0001  In1.029 Se1.042               0.18092522     -0.00034441      0.00078031     -0.00000027
AIVX     1  Mu1.0001  In1.022 Se1.043               0.29563198     -0.00019161      0.00036779     -0.00000007
AIVX     1  Mu1.0001  In1.024 Se1.043               0.26933484      0.00202403     -0.00348887     -0.00000706
AIVX     1  Mu1.0001  In1.026 Se1.043               0.25693946     -0.00199292      0.00377752     -0.00000753
AIVX     1  Mu1.0001  In1.027 Se1.043               0.23268522     -0.00026809      0.00047977     -0.00000013
AIVX     1  Mu1.0001  In1.028 Se1.043               0.24928066      0.00172395     -0.00298367     -0.00000514
AIVX     1  Mu1.0001  In1.029 Se1.043               0.19382450      0.00079490     -0.00163527     -0.00000130
AIVX     1  Mu1.0001  In1.024 Se1.044               0.28228083     -0.00072500      0.00101295     -0.00000073
AIVX     1  Mu1.0001  In1.026 Se1.044               0.26988545     -0.00029602      0.00078580     -0.00000023
AIVX     1  Mu1.0001  In1.027 Se1.044               0.24563121     -0.00021179      0.00023877     -0.00000005
AIVX     1  Mu1.0001  In1.028 Se1.044               0.26222666      0.00325728     -0.00525577     -0.00001712
AIVX     1  Mu1.0001  In1.029 Se1.044               0.20677050     -0.00056678      0.00085304     -0.00000048
AIVX     1  Mu1.0001  In1.024 Se1.045               0.29390542     -0.00275969      0.00402722     -0.00001111
AIVX     1  Mu1.0001  In1.026 Se1.045               0.28151005      0.00066661     -0.00103110     -0.00000069
AIVX     1  Mu1.0001  In1.027 Se1.045               0.25725580      0.00007862     -0.00026893     -0.00000002
AIVX     1  Mu1.0001  In1.028 Se1.045               0.27385125     -0.00211642      0.00380839     -0.00000806
AIVX     1  Mu1.0001  In1.029 Se1.045               0.21839509     -0.00262450      0.00472875     -0.00001241
AIVX     1  Mu1.0001  In1.027 Se1.046               0.27778680      0.00026385     -0.00055968     -0.00000015
AIVX     1  Mu1.0001  In1.028 Se1.046               0.29438225      0.00007631     -0.00027777     -0.00000002
AIVX     1  Mu1.0001  In1.029 Se1.046               0.23892609     -0.00118851      0.00198464     -0.00000236
AIVX     1  Mu1.0001  In1.027 Se1.047               0.28653896      0.00030687     -0.00064501     -0.00000020
AIVX     1  Mu1.0001  In1.029 Se1.047               0.24767825      0.00014791      0.00004137      0.00000001
AIVX     1  Mu1.0001  In1.027 Se1.048               0.29105279     -0.00168640      0.00257835     -0.00000435
AIVX     1  Mu1.0001  In1.029 Se1.048               0.25219208     -0.00114482      0.00190554     -0.00000218
AIVX     1  Mu1.0001  In1.029 Se1.049               0.26848292     -0.00122410      0.00229043     -0.00000280
AIVX     1  Mu1.0001  In1.029 Se1.050               0.28648250      0.00072977     -0.00148872     -0.00000109
AIVX     1  Mu1.0001  In1.029 Se1.051               0.29004486     -0.00037641      0.00054030     -0.00000020
--
 
   (Skipping property calculation,
    use PROP keyword to activate)
--
 
  Total CASPT2 energies:
::    CASPT2 Root  1     Total energy:   -455.33369087
::    CASPT2 Root  2     Total energy:   -455.10036524
::    CASPT2 Root  3     Total energy:   -455.05450190
::    CASPT2 Root  4     Total energy:   -455.04299784
::    CASPT2 Root  5     Total energy:   -455.01408488
::    CASPT2 Root  6     Total energy:   -454.93867173
::    CASPT2 Root  7     Total energy:   -454.95681932
 
++ Multi-State CASPT2 section:
********************************************************************************
  MULTI-STATE CASPT2 SECTION
--------------------------------------------------------------------------------
 
  Output diagonal energies have been shifted. Add   -455.000000000000     
 
  Effective Hamiltonian matrix (Symmetric):
 
                1               2               3               4               5
   1        -0.33369087
   2        -0.00087531     -0.10036524
   3         0.01213084      0.00143716     -0.05450190
   4         0.00065511     -0.00695190      0.00097769     -0.04299784
   5         0.00181325     -0.00204879      0.00440871      0.00298288     -0.01408488
   6         0.00158932     -0.00061958      0.00449557     -0.00427571      0.00973335
   7        -0.00331584     -0.00160271     -0.00869946     -0.00650504     -0.02105453
 
                6               7
   6         0.06132827
   7         0.00945508      0.04318068
 
       Total MS-CASPT2 energies:
::    MS-CASPT2 Root  1     Total energy:   -455.33425634
::    MS-CASPT2 Root  2     Total energy:   -455.10132879
::    MS-CASPT2 Root  3     Total energy:   -455.05510224
::    MS-CASPT2 Root  4     Total energy:   -455.04293047
::    MS-CASPT2 Root  5     Total energy:   -455.02257062
::    MS-CASPT2 Root  6     Total energy:   -454.95070043
::    MS-CASPT2 Root  7     Total energy:   -454.93424288
 
       Eigenvectors:
            0.99902156     -0.00504962      0.04152045      0.00242859      0.00226417
            0.00395181      0.99181055      0.03405515     -0.11740882     -0.03643394
           -0.04296947     -0.03118265      0.99272629      0.01750464      0.02060327
           -0.00184622      0.11988704     -0.02077949      0.98641936      0.07474371
           -0.00441304      0.02453033     -0.05394653     -0.09396071      0.93006265
           -0.00361259      0.00534800     -0.04153859      0.04352441     -0.14243074
            0.00761545      0.01762755      0.08089096      0.04644037      0.32764808
 
           -0.01397157      0.00049566
           -0.00116923     -0.00477788
           -0.10446904      0.00557656
           -0.05561397     -0.05906947
           -0.35011925      0.00631787
           -0.36666117      0.91739391
            0.85368193      0.39345282
 
--
 
  THE ORIGINAL CI ARRAYS ARE NOW MIXED AS LINEAR
  COMBINATIONS, GIVEN BY THE EIGENVECTORS.
  A NEW JOBIPH FILE NAMED 'JOBMIX' IS PREPARED.
********************************************************************************
 
++ Mixed CI coefficients:
  The CI coefficients for the MIXED state nr.   1
--------------------------------------------------------------------------------
 CI COEFFICIENTS LARGER THAN  0.50D-01
  Occupation of active orbitals, and spin coupling
  of open shells. (u,d: Spin up or down).
  SGUGA info is (Midvert:IsyUp:UpperWalk/LowerWalk)
        Conf  SGUGA info        Occupation    Coefficient         Weight
           1  ( 1:1:   1/   1)   22222200        0.978670       0.957795
           3  ( 1:1:   3/   1)   2222u2d0        0.056212       0.003160
           6  ( 1:1:   6/   1)   22220220       -0.077953       0.006077
          68  ( 2:1:   8/   3)   2u22u2dd       -0.062098       0.003856
          81  ( 2:1:   1/   4)   u22222d0        0.124831       0.015583
         175  ( 3:1:   5/   8)   20222202       -0.065538       0.004295
 
  The CI coefficients for the MIXED state nr.   2
--------------------------------------------------------------------------------
 CI COEFFICIENTS LARGER THAN  0.50D-01
  Occupation of active orbitals, and spin coupling
  of open shells. (u,d: Spin up or down).
  SGUGA info is (Midvert:IsyUp:UpperWalk/LowerWalk)
        Conf  SGUGA info        Occupation    Coefficient         Weight
           2  ( 1:1:   2/   1)   22222ud0       -0.878624       0.771981
           5  ( 1:1:   5/   1)   2222ud20        0.075299       0.005670
          41  ( 2:1:   1/   2)   22u222d0       -0.330778       0.109414
          43  ( 2:1:   3/   2)   22u2d220        0.089690       0.008044
          61  ( 2:1:   1/   3)   2u2222d0        0.290709       0.084512
         176  ( 3:1:   6/   8)   20222ud2        0.056760       0.003222
 
  The CI coefficients for the MIXED state nr.   3
--------------------------------------------------------------------------------
 CI COEFFICIENTS LARGER THAN  0.50D-01
  Occupation of active orbitals, and spin coupling
  of open shells. (u,d: Spin up or down).
  SGUGA info is (Midvert:IsyUp:UpperWalk/LowerWalk)
        Conf  SGUGA info        Occupation    Coefficient         Weight
           3  ( 1:1:   3/   1)   2222u2d0        0.931232       0.867193
           6  ( 1:1:   6/   1)   22220220        0.079641       0.006343
          41  ( 2:1:   1/   2)   22u222d0       -0.083609       0.006990
          64  ( 2:1:   4/   3)   2u22220d       -0.100689       0.010138
          72  ( 2:1:  12/   3)   2u22022d       -0.050312       0.002531
          81  ( 2:1:   1/   4)   u22222d0       -0.228316       0.052128
          83  ( 2:1:   3/   4)   u222d220       -0.201455       0.040584
         177  ( 3:1:   7/   8)   2022u2d2       -0.055956       0.003131
         231  ( 4:1:   1/   6)   uu2222dd        0.053785       0.002893
 
  The CI coefficients for the MIXED state nr.   4
--------------------------------------------------------------------------------
 CI COEFFICIENTS LARGER THAN  0.50D-01
  Occupation of active orbitals, and spin coupling
  of open shells. (u,d: Spin up or down).
  SGUGA info is (Midvert:IsyUp:UpperWalk/LowerWalk)
        Conf  SGUGA info        Occupation    Coefficient         Weight
           2  ( 1:1:   2/   1)   22222ud0       -0.391503       0.153274
           3  ( 1:1:   3/   1)   2222u2d0        0.076938       0.005919
           5  ( 1:1:   5/   1)   2222ud20       -0.113483       0.012878
          41  ( 2:1:   1/   2)   22u222d0        0.883704       0.780932
          43  ( 2:1:   3/   2)   22u2d220        0.060431       0.003652
          61  ( 2:1:   1/   3)   2u2222d0       -0.153806       0.023656
          82  ( 2:1:   2/   4)   u2222d20       -0.052233       0.002728
         294  ( 5:1:   2/  15)   20u222d2       -0.059739       0.003569
 
  The CI coefficients for the MIXED state nr.   5
--------------------------------------------------------------------------------
 CI COEFFICIENTS LARGER THAN  0.50D-01
  Occupation of active orbitals, and spin coupling
  of open shells. (u,d: Spin up or down).
  SGUGA info is (Midvert:IsyUp:UpperWalk/LowerWalk)
        Conf  SGUGA info        Occupation    Coefficient         Weight
          21  ( 2:1:   1/   1)   222u22d0       -0.984689       0.969612
          23  ( 2:1:   3/   1)   222ud220       -0.108853       0.011849
         207  ( 4:1:   1/   2)   2u2u22dd       -0.051592       0.002662
         209  ( 4:1:   3/   2)   2u2ud22d        0.050351       0.002535
         262  ( 5:1:   2/   7)   202u22d2        0.067435       0.004547
 
  The CI coefficients for the MIXED state nr.   6
--------------------------------------------------------------------------------
 CI COEFFICIENTS LARGER THAN  0.50D-01
  Occupation of active orbitals, and spin coupling
  of open shells. (u,d: Spin up or down).
  SGUGA info is (Midvert:IsyUp:UpperWalk/LowerWalk)
        Conf  SGUGA info        Occupation    Coefficient         Weight
           1  ( 1:1:   1/   1)   22222200        0.141887       0.020132
           3  ( 1:1:   3/   1)   2222u2d0       -0.238022       0.056654
           6  ( 1:1:   6/   1)   22220220        0.351858       0.123804
          64  ( 2:1:   4/   3)   2u22220d        0.140134       0.019637
          81  ( 2:1:   1/   4)   u22222d0       -0.867649       0.752814
         191  ( 3:1:   1/  10)   02222220       -0.111818       0.012503
         310  ( 5:1:   2/  19)   u02222d2       -0.052841       0.002792
 
  The CI coefficients for the MIXED state nr.   7
--------------------------------------------------------------------------------
 CI COEFFICIENTS LARGER THAN  0.50D-01
  Occupation of active orbitals, and spin coupling
  of open shells. (u,d: Spin up or down).
  SGUGA info is (Midvert:IsyUp:UpperWalk/LowerWalk)
        Conf  SGUGA info        Occupation    Coefficient         Weight
           2  ( 1:1:   2/   1)   22222ud0        0.210790       0.044433
           5  ( 1:1:   5/   1)   2222ud20       -0.057384       0.003293
          41  ( 2:1:   1/   2)   22u222d0        0.252000       0.063504
          61  ( 2:1:   1/   3)   2u2222d0        0.923213       0.852323
          63  ( 2:1:   3/   3)   2u22d220       -0.145741       0.021241
         172  ( 3:1:   2/   8)   202222ud       -0.093492       0.008741
 
--
 
--- Stop Module: caspt2 at Tue Jun 10 17:56:30 2025 /rc=_RC_ALL_IS_WELL_ ---
*** files: xmldump
    saved to directory /home/pcaah4/diamide_project
--- Module caspt2 spent 7 minutes 36 seconds ---

.##################.
.# Happy landing! #.
.##################.

    Timing: Wall=977.49 User=858.08 System=105.59
******************************************************
*** WorkDir at /srv/COMMUNAL_SCRATCH/12392 cleaned ***
******************************************************
