   This run of MOLCAS is using the pymolcas driver

                             OPE
                             OPE          NMOL  CASOP  ENMOLC A   SO
                 OPE        NMOLC        AS  OP EN  MO LC     AS  OP
                OPENM       OL CA        SO  PE NM  OL CA     SOP EN
                OP EN      MO   LC       AS  OP ENMOL  CASO   PENMOL
                OP  EN     MO   LC       AS  OP EN     MO     LC ASO
               OP   E  NMOL  C  AS       OP  EN MO     LC     AS  OP
               OP  E   NMO   LC AS        OPEN  MO     LCASOP EN   M
               O  PEN   MO  LCA  SO
            OPE   NMO   L   CAS    OP
        OPENMOL  CASOP     ENMOL   CASOPE
     OPENMOLCA   SOPENMOLCASOPEN   MOLCASOPE
    OPENMOLCAS   OP           EN   MOL    CAS
    OPENMOLCAS       OP  ENM        O     LCA
    OPENMOLCAS    OPEN  MOLCASO     P  E  NMO
    OPENMOLCAS     OP               E  N  MOL
    OPENMOLCA   SO           PENM   O  L  CAS    OPEN    MO    LCAS
    OPENMOLCA   SOP           ENM   O  L  CAS   OP  EN  MOLC  AS   O
    OPENMOLCA   SOPE           NM      O  LCA   S      OP  EN MO
    OPENMOLC                AS         O  PEN   M      OL  CA  SOPE
    OPENMO        LCASOPE  NMOL        C  ASO   P      ENMOLC     AS
    OPE     NMO      LCA  SO     P     E   NM   OL  CA SO  PE N   MO
          OPENMOLCA            SOPE   NMO        LCAS  O    P  ENMO
     OPENMOLCASOPENMOLCASOPENMOLCASOPENMOLCA
        OPENMOLCASOPENMOLCASOPENMOLCASOPE
            OPENMOLCASOPENMOLCASOPENM
               OPENMOLCASOPENMOLCA        version: v23.06
                   OPENMOLCASO
                       OPE                tag:

 OpenMolcas is free software; you can redistribute it and/or modify it
 under the terms of the GNU Lesser General Public License version 2.1.
 OpenMolcas is distributed in the hope that it will be useful, but it
 is provided "as is" and without any express or implied warranties.
 For more details see the full text of the license in the file
 LICENSE or in <http://www.gnu.org/licenses/>.

                 Copyright (C) The OpenMolcas Authors
           For the author list and the recommended citation,
                   consult the file CONTRIBUTORS.md

           *************************************************
           * pymolcas version py2.24                       *
           *   build 4567b286dd94b1984b333a4ddf893180      *
           *   (after the EMIL interpreter by V. Veryazov) *
           *************************************************

configuration info
------------------
Host name: loginchem01.nottingham.ac.uk (Linux)
C Compiler ID: Intel
C flags: -std=gnu99 -gcc-sys -qopenmp
Fortran Compiler ID: Intel
Fortran flags: -fpp -i8 -heap-arrays -qopenmp
Definitions: _MOLCAS_;_I8_;_LINUX_
Parallel: OFF (GA=OFF)


   -------------------------------------------------------------------------------------------------
  |
  |              Project: orca_geometry_optimisation_30_0_BP86_def2-SVP_def2J_scf_cas1_ras12i11_cas8
  |       Submitted from: /home/pcaah4/diamide_project
  |         Scratch area: /srv/COMMUNAL_SCRATCH/12459
  |      Save outputs to: /home/pcaah4/diamide_project
  |               Molcas: /software/chemistry/openmolcas/openmolcas-23.06-openmp
  |
  | Scratch area is empty
  |
  |       MOLCAS_DRIVER = /software/chemistry/openmolcas/openmolcas-23.06-openmp/sbin/pymolcas
  | MOLCAS_KEEP_WORKDIR = NO
  |       MOLCAS_NPROCS = 1
  |       MOLCAS_SOURCE = /software/chemistry/openmolcas/openmolcas-23.06-openmp
  |    MOLCAS_STRUCTURE = 0
  |
   -------------------------------------------------------------------------------------------------

++ ---------   Input file   ---------

&SEWARD
TITLE
orca_geometry_optimisation_30_0_BP86_def2-SVP_def2J_scf_cas1_ras12i11
MULTIPOLES
2
SDIPOLE
ANGMOM
0 0 0
BASIS SET
C.ANO-S...4S3P1D.
C1           -0.191722   -0.492413   -0.089062 /Angstrom
C3            1.835658    1.037982    0.482864 /Angstrom
C4            1.238883    2.280902    1.195035 /Angstrom
C6           -0.690085    3.422695    2.177411 /Angstrom
C19          -0.466141   -1.919915   -0.550668 /Angstrom
END OF BASIS
BASIS SET
N.ANO-S...4S3P1D.
N2            1.120235   -0.215120    0.181132 /Angstrom
N5           -0.058055    2.253032    1.593200 /Angstrom
END OF BASIS
BASIS SET
O.ANO-S...4S3P1D.
O7           -1.124473    0.318959    0.003681 /Angstrom
O8            2.028029    3.208407    1.389686 /Angstrom
END OF BASIS
BASIS SET
H.ANO-S...2S1P.
H9           -0.850020   -1.878977   -1.589988 /Angstrom
H10          -1.275698   -2.344200    0.074574 /Angstrom
H11           0.411608   -2.594828   -0.520761 /Angstrom
H12           1.750104   -1.011779    0.069872 /Angstrom
H13           2.704791    0.765276    1.114581 /Angstrom
H14           2.265269    1.451293   -0.457635 /Angstrom
H15          -0.644951    1.509681    1.165035 /Angstrom
H16           0.057089    4.238606    2.214808 /Angstrom
H17          -1.560566    3.747745    1.569530 /Angstrom
H18          -1.046850    3.222035    3.211004 /Angstrom
END OF BASIS
END OF INPUT

&RASSCF
TITLE
orca_geometry_optimisation_30_0_BP86_def2-SVP_def2J_scf_cas1_ras12i11
LUMORB
SPIN
1
SYMMETRY
1
NACTEL
12  0  0
INACTIVE
29
DELETED  ! delete Rydberg orbitals from an initial CAS(12,11) if done
3
FROZEN
0
RAS2
8
ITERATIONS
64 25
CIROOT
7 7
1 2 3 4 5 6 7
1 1 1 1 1 1 1
LEVSHFT
0.3
CIMX
20
FILEorb = /home/pcaah4/diamide_project/cas/ras12i11/ras_orb/orca_geometry_optimisation_30_0_BP86_def2-SVP_def2J_scf_cas1_ras12i11.RasOrb
ALTEr
0
END OF INPUT

&RASSI
NROF JOBIPH
    1 7
    1 2 3 5 4 6 7
TOFILE
TRDI
TDMN
1.0D-6
END OF INPUT

&CASPT2
TITLE
orca_geometry_optimisation_30_0_BP86_def2-SVP_def2J_scf_cas1_ras12i11
MULTISTATE
7 1 2 3 4 5 6 7
SHIFT
0.35
MAXITER
50
END OF INPUT

-- ----------------------------------

--- Start Module: seward at Tue Jun 10 20:49:07 2025 ---
 
()()()()()()()()()()()()()()()()()()()()()()()()()()()()()()()()()()()()()()()()()()()()()()()()()()

                                              &SEWARD

                                   only a single process is used
                       available to each process: 2.0 GB of memory, 1 thread
                                            pid: 3127218
()()()()()()()()()()()()()()()()()()()()()()()()()()()()()()()()()()()()()()()()()()()()()()()()()()
 
               SEWARD will generate:
                  Multipole Moment integrals up to order  2
                  Kinetic Energy integrals
                  Nuclear Attraction integrals (point charge)
                  One-Electron Hamiltonian integrals
                  Velocity integrals
                  Orbital angular momentum around ( 0.0000  0.0000  0.0000 )
                  Velocity quadrupole around ( 0.7536  2.0930  1.3457 )
                  Two-Electron Repulsion integrals
 
 Title:
             orca_geometry_optimisation_30_0_BP86_def2-SVP_def2J_scf_cas1_ras12i11      
 
 
                   Integrals are discarded if absolute value <: 0.10E-13
                   Integral cutoff threshold is set to       <: 0.10E-15
 
++    Symmetry information:
      ---------------------
 
                    Character Table for C1 
 
                             E  
                    a        1  x, y, xy, Rz, z, xz, Ry, yz, Rx, I
--
 
 
++    Basis set information:
      ----------------------
 
 
      Basis set label: C.ANO-S...4S3P1D......
 
      Electronic valence basis set:
      ------------------
      Associated Effective Charge   6.000000 au
      Associated Actual Charge      6.000000 au
      Nuclear Model: Point charge
 
      Shell  nPrim  nBasis  Cartesian Spherical Contaminant
         s      10       4        X                  
         p       6       3        X                  
         d       3       1                 X         
 
 
      Basis set label: N.ANO-S...4S3P1D......
 
      Electronic valence basis set:
      ------------------
      Associated Effective Charge   7.000000 au
      Associated Actual Charge      7.000000 au
      Nuclear Model: Point charge
 
      Shell  nPrim  nBasis  Cartesian Spherical Contaminant
         s      10       4        X                  
         p       6       3        X                  
         d       3       1                 X         
 
 
      Basis set label: O.ANO-S...4S3P1D......
 
      Electronic valence basis set:
      ------------------
      Associated Effective Charge   8.000000 au
      Associated Actual Charge      8.000000 au
      Nuclear Model: Point charge
 
      Shell  nPrim  nBasis  Cartesian Spherical Contaminant
         s      10       4        X                  
         p       6       3        X                  
         d       3       1                 X         
 
 
      Basis set label: H.ANO-S...2S1P......
 
      Electronic valence basis set:
      ------------------
      Associated Effective Charge   1.000000 au
      Associated Actual Charge      1.000000 au
      Nuclear Model: Point charge
 
      Shell  nPrim  nBasis  Cartesian Spherical Contaminant
         s       7       2        X                  
         p       3       1        X                  
--
 
 
++    Molecular structure info:
      -------------------------
 
                    ************************************************ 
                    **** Cartesian Coordinates / Bohr, Angstrom **** 
                    ************************************************ 
 
     Center  Label                x              y              z                     x              y              z
        1      C1              -0.362302      -0.930526      -0.168303             -0.191722      -0.492413      -0.089062
        2      C3               3.468891       1.961502       0.912481              1.835658       1.037982       0.482864
        3      C4               2.341150       4.310280       2.258289              1.238883       2.280902       1.195035
        4      C6              -1.304072       6.467956       4.114710             -0.690085       3.422695       2.177411
        5      C19             -0.880879      -3.628114      -1.040612             -0.466141      -1.919915      -0.550668
        6      N2               2.116937      -0.406518       0.342290              1.120235      -0.215120       0.181132
        7      N5              -0.109708       4.257613       3.010712             -0.058055       2.253032       1.593200
        8      O7              -2.124946       0.602745       0.006956             -1.124473       0.318959       0.003681
        9      O8               3.832419       6.063011       2.626126              2.028029       3.208407       1.389686
       10      H9              -1.606305      -3.550752      -3.004642             -0.850020      -1.878977      -1.589988
       11      H10             -2.410720      -4.429896       0.140924             -1.275698      -2.344200       0.074574
       12      H11              0.777826      -4.903514      -0.984096              0.411608      -2.594828      -0.520761
       13      H12              3.307217      -1.911985       0.132039              1.750104      -1.011779       0.069872
       14      H13              5.111314       1.446162       2.106253              2.704791       0.765276       1.114581
       15      H14              4.280738       2.742546      -0.864805              2.265269       1.451293      -0.457635
       16      H15             -1.218781       2.852884       2.201597             -0.644951       1.509681       1.165035
       17      H16              0.107883       8.009804       4.185381              0.057089       4.238606       2.214808
       18      H17             -2.949042       7.082212       2.965982             -1.560566       3.747745       1.569530
       19      H18             -1.978260       6.088764       6.067918             -1.046850       3.222035       3.211004
 
                    ************************************************* 
                    **** InterNuclear Distances / Bohr, Angstrom **** 
                    ************************************************* 
 
     Atom centers         Bohr        Angstrom
   13 H12       6 N2      1.930648        1.021655
   16 H15       7 N5      1.964173        1.039395
   17 H16       4 C6      2.091866        1.106968
   11 H10       5 C19     2.092677        1.107397
   12 H11       5 C19     2.093118        1.107630
   14 H13       2 C3      2.094808        1.108525
   10 H9        5 C19     2.095147        1.108704
   18 H17       4 C6      2.098289        1.110367
   19 H18       4 C6      2.100794        1.111692
   15 H14       2 C3      2.104251        1.113521
    9 O8        3 C4      2.330505        1.233250
    8 O7        1 C1      2.342765        1.239738
    7 N5        3 C4      2.564297        1.356967
    6 N2        1 C1      2.584940        1.367892
    7 N5        4 C6      2.744254        1.452197
    6 N2        2 C3      2.785752        1.474156
    5 C19       1 C1      2.882156        1.525171
    3 C4        2 C3      2.932535        1.551831
   16 H15       8 O7      3.271194        1.731041
   15 H14      14 H13     3.346289        1.770780
   11 H10      10 H9      3.363713        1.780000
   19 H18      18 H17     3.398730        1.798531
   19 H18      17 H16     3.403871        1.801251
   12 H11      10 H9      3.405386        1.802053
   12 H11      11 H10     3.414207        1.806721
   18 H17      17 H16     3.419379        1.809457
   13 H12       1 C1      3.810360        2.016355
   16 H15       3 C4      3.847119        2.035808
   17 H16       7 N5      3.937782        2.083785
   14 H13       6 N2      3.938309        2.084064
   13 H12       2 C3      3.954634        2.092702
   14 H13       3 C4      3.987493        2.110090
   15 H14       3 C4      3.996687        2.114956
   18 H17       7 N5      4.005268        2.119497
   15 H14       6 N2      4.006958        2.120391
   19 H18       7 N5      4.023818        2.129313
   10 H9        1 C1      4.056840        2.146787
   11 H10       1 C1      4.066599        2.151952
   13 H12      12 H11     4.073429        2.155566
   16 H15       4 C6      4.090969        2.164848
   12 H11       1 C1      4.213081        2.229466
   14 H13      13 H12     4.292952        2.271733
    9 O8        7 N5      4.352899        2.303455
    8 O7        6 N2      4.373172        2.314183
    9 O8        2 C3      4.459945        2.360101
   17 H16       9 O8      4.482572        2.372075
    8 O7        5 C19     4.532689        2.398596
   16 H15       1 C1      4.545786        2.405526
    6 N2        5 C19     4.612808        2.440993
    4 C6        3 C4      4.624879        2.447381
   18 H17      16 H15     4.633066        2.451713
   13 H12       5 C19     4.675506        2.474171
   17 H16       3 C4      4.731558        2.503833
    7 N5        2 C3      4.741421        2.509052
   14 H13       9 O8      4.818831        2.550015
   15 H14       9 O8      4.838705        2.560533
   15 H14      13 H12     4.858611        2.571066
   12 H11       6 N2      4.876012        2.580274
    2 C3        1 C1      4.920361        2.603743
   16 H15       2 C3      4.942737        2.615584
   16 H15       6 N2      5.020731        2.656856
   11 H10       8 O7      5.042528        2.668391
    6 N2        3 C4      5.096028        2.696702
   19 H18      16 H15     5.098644        2.698086
    8 O7        7 N5      5.142158        2.721113
   10 H9        8 O7      5.156573        2.728741
    9 O8        4 C6      5.363153        2.838058
--
 
 
            Nuclear Potential Energy            458.82653923 au
 
 
      Basis set specifications :
      Symmetry species         a  
      Basis functions          212
 
 
      Input file to MOLDEN was generated!
 
--- Stop Module: seward at Tue Jun 10 20:50:57 2025 /rc=_RC_ALL_IS_WELL_ ---
*** files: orca_geometry_optimisation_30_0_BP86_def2-SVP_def2J_scf_cas1_ras12i11_cas8.GssOrb
           orca_geometry_optimisation_30_0_BP86_def2-SVP_def2J_scf_cas1_ras12i11_cas8.guessorb.molden xmldump
    saved to directory /home/pcaah4/diamide_project
--- Module seward spent 1 minute 50 seconds ---

*** symbolic link created: INPORB -> orca_geometry_optimisation_30_0_BP86_def2-SVP_def2J_scf_cas1_ras12i11_cas8.GssOrb
--- Start Module: rasscf at Tue Jun 10 20:50:57 2025 ---
 
()()()()()()()()()()()()()()()()()()()()()()()()()()()()()()()()()()()()()()()()()()()()()()()()()()

                                              &RASSCF

                                   only a single process is used
                       available to each process: 2.0 GB of memory, 1 thread
                                            pid: 3127244
()()()()()()()()()()()()()()()()()()()()()()()()()()()()()()()()()()()()()()()()()()()()()()()()()()
 
 
      Header of the ONEINT file:
      --------------------------
      orca_geometry_optimisation_30_0_BP86_def2-SVP_def2J_scf_cas1_ras12i11
      Integrals generated by Gateway/Seward, Tue Jun 10 20:49:07 2025
 
 
      OrdInt status: non-squared
 
 
      Cartesian coordinates in Angstrom:
      -----------------------------------------------------
      No.  Label        X            Y            Z        
      -----------------------------------------------------
       1   C1        -0.19172200  -0.49241300  -0.08906200
       2   C3         1.83565800   1.03798200   0.48286400
       3   C4         1.23888300   2.28090200   1.19503500
       4   C6        -0.69008500   3.42269500   2.17741100
       5   C19       -0.46614100  -1.91991500  -0.55066800
       6   N2         1.12023500  -0.21512000   0.18113200
       7   N5        -0.05805500   2.25303200   1.59320000
       8   O7        -1.12447300   0.31895900   0.00368100
       9   O8         2.02802900   3.20840700   1.38968600
      10   H9        -0.85002000  -1.87897700  -1.58998800
      11   H10       -1.27569800  -2.34420000   0.07457400
      12   H11        0.41160800  -2.59482800  -0.52076100
      13   H12        1.75010400  -1.01177900   0.06987200
      14   H13        2.70479100   0.76527600   1.11458100
      15   H14        2.26526900   1.45129300  -0.45763500
      16   H15       -0.64495100   1.50968100   1.16503500
      17   H16        0.05708900   4.23860600   2.21480800
      18   H17       -1.56056600   3.74774500   1.56953000
      19   H18       -1.04685000   3.22203500   3.21100400
      -----------------------------------------------------
      Nuclear repulsion energy =  458.82653923
 
++    Wave function specifications:
      -----------------------------
 
      Number of closed shell electrons          58
      Number of electrons in active shells      12
      Max number of holes in RAS1 space          0
      Max nr of electrons in RAS3 space          0
      Number of inactive orbitals               29
      Number of active orbitals                  8
      Number of secondary orbitals             172
      Spin quantum number                      0.0
      State symmetry                             1
--
 
++    Orbital specifications:
      -----------------------
 
      Symmetry species                           1
                                                 a
      Frozen orbitals                            0
      Inactive orbitals                         29
      Active orbitals                            8
      RAS1 orbitals                              0
      RAS2 orbitals                              8
      RAS3 orbitals                              0
      Secondary orbitals                       172
      Deleted orbitals                           3
      Number of basis functions                212
--
 
++    CI expansion specifications:
      ----------------------------
 
      Number of CSFs                           336
      Number of determinants                   406
      Number of root(s) required                 7
      Root chosen for geometry opt.              7
      CI roots used                              1     2     3     4     5     6     7
      weights                                0.143 0.143 0.143 0.143 0.143 0.143 0.143
      highest root included in the CI            7
      max. size of the explicit Hamiltonian    200
--
 
++    Optimization specifications:
      ----------------------------
 
      RASSCF algorithm: Conventional
      Maximum number of macro iterations        64
      Maximum number of SX iterations           25
      Threshold for RASSCF energy            0.100E-07
      Threshold for max MO rotation          0.100E+00
      Threshold for max BLB element          0.100E-03
      Level shift parameter                  0.300E+00
      Make Quasi-Newton update
--
 
      The MO-coefficients are taken from the file:
      /home/pcaah4/diamide_project/cas/ras12i11/ras_orb/orca_geometry_optimisation_30_0_BP86_def2-SVP_def2J_scf_cas1_ras12i11.RasOrb                                                                                                                                  
      Title: RASSCF average (pseudo-natural) orbitals                                      
 
      Total molecular charge    0.00
 
      ************************************************************************************************************************
      *                                                                                                                      *
      *                                            Wave function control section                                             *
      *                                                                                                                      *
      ************************************************************************************************************************
 
 
                                         RASSCF iterations: Energy and convergence statistics
                                         ----------------------------------------------------
 
      Iter CI   SX   CI       RASSCF       Energy    max ROT     max BLB   max BLB  Level Ln srch  Step   QN   Walltime
          iter iter root      energy       change     param      element    value   shift minimum  type update hh:mm:ss
 Nr of preliminary CI iterations:   4
        1   1   17    0  -453.68917422    0.00E+00   0.68E-01   34  39 1  0.22E-01*  0.21   0.00    SX    NO    0:00:13
        2   3   12    0  -453.69586857   -0.67E-02*  0.34E-01   32  38 1 -0.71E-02*  0.20   0.00    SX    NO    0:00:07
        3   3   11    0  -453.69690625   -0.10E-02*  0.18E-01   34  39 1  0.42E-02*  0.20   0.00    SX    NO    0:00:07
        4   4   11    0  -453.69723371   -0.33E-03*  0.10E-01   32  38 1 -0.19E-02*  0.20   0.00    SX    NO    0:00:06
        5   3   10    0  -453.69733420   -0.10E-03*  0.12E-01   36  40 1 -0.94E-03*  0.20   2.21    LS   YES    0:00:07
        6   4   10    0  -453.69736542   -0.31E-04* -0.31E-02   34  39 1  0.15E-02*  0.20   0.84    QN   YES    0:00:07
        7   4    9    0  -453.69739413   -0.29E-04* -0.17E-02   37  44 1  0.27E-03*  0.20   1.00    QN   YES    0:00:06
        8   3    8    0  -453.69739653   -0.24E-05* -0.25E-02   21  97 1  0.18E-03*  0.20   2.50    LS   YES    0:00:06
        9   5    8    0  -453.69739704   -0.51E-06* -0.68E-03   21  76 1 -0.30E-03*  0.20   0.65    QN   YES    0:00:06
       10   5    8    0  -453.69739820   -0.12E-05*  0.20E-03   34  39 1 -0.81E-04   0.20   1.05    QN   YES    0:00:06
       11   3    7    0  -453.69739834   -0.14E-06*  0.33E-03   21  76 1 -0.51E-04   0.20   1.29    QN   YES    0:00:06
       12   3    7    0  -453.69739839   -0.44E-07* -0.49E-04   31  40 1 -0.20E-04   0.20   0.75    QN   YES    0:00:06
       13   1    6    0  -453.69739840   -0.13E-07* -0.69E-04   34  39 1  0.12E-04   0.20   1.18    QN   YES    0:00:06
       14   1    6    0  -453.69739841   -0.36E-08   0.97E-04   37  41 1  0.61E-05   0.20   1.65    QN   YES    0:00:06
      Convergence after 14 iterations
       15   1    6    0  -453.69739841   -0.19E-08   0.97E-04   34  39 1 -0.34E-05   0.20   1.65    QN   YES    0:00:06
 
      ************************************************************************************************************************
                                                      Wave function printout:
                       occupation of active orbitals, and spin coupling of open shells (u,d: Spin up or down)
      ************************************************************************************************************************
 
      Note: transformation to natural orbitals
      has been made, which may change the order of the CSFs.
 
      printout of CI-coefficients larger than  0.05 for root  1
      energy=    -453.942519
      conf/sym  11111111     Coeff  Weight
             1  22222200   0.96197 0.92539
             2  22222ud0   0.11162 0.01246
             4  22222020  -0.09572 0.00916
            61  2u2222d0  -0.08804 0.00775
            62  2u222d20   0.05466 0.00299
            84  u222220d  -0.12301 0.01513
           105  22202202  -0.07846 0.00616
           171  20222220  -0.09065 0.00822
           195  02222202  -0.07728 0.00597
 
      printout of CI-coefficients larger than  0.05 for root  2
      energy=    -453.724966
      conf/sym  11111111     Coeff  Weight
             3  2222u2d0   0.95951 0.92067
             5  2222ud20  -0.12999 0.01690
             8  2222u20d  -0.05185 0.00269
            63  2u22d220   0.15790 0.02493
            86  u222d2ud  -0.06473 0.00419
            88  u222u2dd  -0.10898 0.01188
           107  2220u2d2  -0.07875 0.00620
           197  0222u2d2  -0.07783 0.00606
 
      printout of CI-coefficients larger than  0.05 for root  3
      energy=    -453.714400
      conf/sym  11111111     Coeff  Weight
             7  22222u0d   0.15306 0.02343
             8  2222u20d  -0.07685 0.00591
            44  22u2220d  -0.93936 0.88239
            45  22u22dud  -0.07089 0.00503
            47  22u22udd  -0.11840 0.01402
            49  22u2202d   0.08742 0.00764
           115  22ud2202   0.15236 0.02321
           165  u2d22202  -0.11295 0.01276
           219  2uu222dd  -0.06786 0.00460
           220  2uu22d2d   0.05227 0.00273
           293  20u2222d  -0.09135 0.00834
 
      printout of CI-coefficients larger than  0.05 for root  4
      energy=    -453.640284
      conf/sym  11111111     Coeff  Weight
             2  22222ud0  -0.28379 0.08053
             4  22222020  -0.05538 0.00307
             7  22222u0d  -0.53966 0.29123
             8  2222u20d  -0.26647 0.07100
            12  2222uudd   0.06527 0.00426
            24  222u220d  -0.66985 0.44871
            27  222u2udd  -0.05372 0.00289
            29  222u202d   0.07161 0.00513
            44  22u2220d  -0.05782 0.00334
            62  2u222d20  -0.07616 0.00580
            65  2u222dud  -0.09459 0.00895
            67  2u222udd  -0.10895 0.01187
           135  u22d2202  -0.15645 0.02448
           173  20222u2d  -0.07500 0.00563
           207  2u2u22dd  -0.06942 0.00482
           261  202u222d  -0.06227 0.00388
 
      printout of CI-coefficients larger than  0.05 for root  5
      energy=    -453.633219
      conf/sym  11111111     Coeff  Weight
             2  22222ud0   0.23532 0.05538
             4  22222020   0.06361 0.00405
             7  22222u0d  -0.76776 0.58946
             8  2222u20d   0.10434 0.01089
             9  222220ud  -0.05014 0.00251
            24  222u220d   0.46950 0.22043
            25  222u2dud   0.08130 0.00661
            29  222u202d  -0.05032 0.00253
            44  22u2220d  -0.13778 0.01898
            62  2u222d20   0.06194 0.00384
            65  2u222dud  -0.12609 0.01590
            67  2u222udd  -0.13752 0.01891
            93  u2222d02  -0.06066 0.00368
           135  u22d2202   0.10610 0.01126
           173  20222u2d  -0.10212 0.01043
 
      printout of CI-coefficients larger than  0.05 for root  6
      energy=    -453.614157
      conf/sym  11111111     Coeff  Weight
             2  22222ud0   0.37429 0.14009
             8  2222u20d   0.72930 0.53188
            10  2222udud  -0.15432 0.02381
            12  2222uudd  -0.22934 0.05260
            24  222u220d  -0.43296 0.18745
            62  2u222d20   0.10743 0.01154
            71  2u22ud2d   0.06169 0.00381
            94  u222d202   0.05611 0.00315
           135  u22d2202  -0.10198 0.01040
           174  2022u22d   0.06613 0.00437
 
      printout of CI-coefficients larger than  0.05 for root  7
      energy=    -453.612243
      conf/sym  11111111     Coeff  Weight
             1  22222200  -0.09600 0.00922
             2  22222ud0   0.75802 0.57460
             4  22222020   0.13361 0.01785
             7  22222u0d   0.05592 0.00313
             8  2222u20d  -0.48896 0.23908
            10  2222udud   0.08804 0.00775
            12  2222uudd   0.13024 0.01696
            24  222u220d  -0.18984 0.03604
            44  22u2220d   0.06482 0.00420
            62  2u222d20   0.21045 0.04429
            85  u2222dud  -0.05373 0.00289
            87  u2222udd  -0.08867 0.00786
           106  22202ud2  -0.06627 0.00439
           171  20222220  -0.07022 0.00493
           196  02222ud2  -0.05807 0.00337
 
      Natural orbitals and occupation numbers for root  1
      sym 1:   1.993525   1.974910   1.999899   1.993063   1.999825   1.957568   0.049172   0.032039
 
      Natural orbitals and occupation numbers for root  2
      sym 1:   1.973688   1.999899   1.999643   1.993452   1.004727   1.999705   0.995723   0.033163
 
      Natural orbitals and occupation numbers for root  3
      sym 1:   1.999922   1.994324   1.008340   1.999555   1.999066   1.954515   0.051065   0.993213
 
      Natural orbitals and occupation numbers for root  4
      sym 1:   1.981675   1.939611   1.999532   1.085085   1.996131   1.909743   0.138979   0.949243
 
      Natural orbitals and occupation numbers for root  5
      sym 1:   1.990640   1.920465   1.999419   1.963053   1.999004   1.033914   0.103797   0.989707
 
      Natural orbitals and occupation numbers for root  6
      sym 1:   1.990660   1.966467   1.999017   1.954283   1.276875   1.785633   0.249613   0.777451
 
      Natural orbitals and occupation numbers for root  7
      sym 1:   1.977469   1.960666   1.999365   1.985213   1.739069   1.278117   0.760561   0.299540
 
      ************************************************************************************************************************
      *                                                                                                                      *
      *                                                    Final results                                                     *
      *                                                                                                                      *
      ************************************************************************************************************************
 
 
++    Wave function specifications:
      -----------------------------
 
      Number of closed shell electrons          58
      Number of electrons in active shells      12
      Max number of holes in RAS1 space          0
      Max nr of electrons in RAS3 space          0
      Number of inactive orbitals               29
      Number of active orbitals                  8
      Number of secondary orbitals             172
      Spin quantum number                      0.0
      State symmetry                             1
--
 
++    Orbital specifications:
      -----------------------
 
      Symmetry species                           1
                                                 a
      Frozen orbitals                            0
      Inactive orbitals                         29
      Active orbitals                            8
      RAS1 orbitals                              0
      RAS2 orbitals                              8
      RAS3 orbitals                              0
      Secondary orbitals                       172
      Deleted orbitals                           3
      Number of basis functions                212
--
 
++    CI expansion specifications:
      ----------------------------
 
      Number of CSFs                           336
      Number of determinants                   406
      Number of root(s) required                 7
      CI roots used                              1     2     3     4     5     6     7
      weights                                0.143 0.143 0.143 0.143 0.143 0.143 0.143
      highest root included in the CI            7
      Root passed to geometry opt.               7
--
 
++    Final optimization conditions:
      ------------------------------
 
      Average CI energy                            -453.69739841
      RASSCF energy for state  7                   -453.61224294
      Super-CI energy                                -0.00000000
      RASSCF energy change                            0.00000000
      Max change in MO coefficients              -0.991E-04
      Max non-diagonal density matrix element     0.975E-04
      Maximum BLB matrix element                 -0.341E-05
      (orbital pair  34,  39 in symmetry   1)
      Norm of electronic gradient            0.168E+00
--
 
 
      Final state energy(ies):
      ------------------------
 
::    RASSCF root number  1 Total energy:   -453.94251905
::    RASSCF root number  2 Total energy:   -453.72496613
::    RASSCF root number  3 Total energy:   -453.71440018
::    RASSCF root number  4 Total energy:   -453.64028438
::    RASSCF root number  5 Total energy:   -453.63321893
::    RASSCF root number  6 Total energy:   -453.61415724
::    RASSCF root number  7 Total energy:   -453.61224294
 
++    Molecular orbitals:
      -------------------
 
      Pseudonatural active orbitals and approximate occupation numbers
 
 
 
 
      Molecular orbitals for symmetry species 1: a  
 
 
      Orbital                 1         2         3         4         5         6         7         8         9        10
      Energy           -20.5983  -20.5261  -15.6202  -15.5984  -11.3413  -11.3025  -11.2868  -11.2827  -11.2278   -1.4228
      Occ. No.           2.0000    2.0000    2.0000    2.0000    2.0000    2.0000    2.0000    2.0000    2.0000    2.0000
 
     1 C1     1s        -0.0002    0.0003    0.0001    0.0001   -0.0000   -0.0010    0.9999   -0.0001   -0.0052   -0.0002
     2 C1     2s        -0.0011    0.0008    0.0005    0.0003   -0.0001   -0.0018    0.0021   -0.0004   -0.0003    0.0288
     3 C1     3s        -0.0007   -0.0006    0.0002    0.0000   -0.0001   -0.0013   -0.0002   -0.0003   -0.0006    0.0102
     4 C1     4s        -0.0002   -0.0004    0.0000    0.0000   -0.0001   -0.0004    0.0013   -0.0001   -0.0002    0.0033
     5 C1     2px       -0.0001   -0.0018   -0.0000    0.0013   -0.0003   -0.0009    0.0012   -0.0001   -0.0001    0.0089
     6 C1     3px       -0.0001   -0.0011   -0.0001    0.0010   -0.0004   -0.0010    0.0009   -0.0002    0.0001    0.0149
     7 C1     4px       -0.0000    0.0003   -0.0000   -0.0000   -0.0001   -0.0002    0.0003   -0.0001    0.0001    0.0031
     8 C1     2py        0.0002    0.0023   -0.0001    0.0004   -0.0006   -0.0003    0.0010   -0.0001   -0.0007    0.0165
     9 C1     3py        0.0003    0.0014   -0.0002    0.0002   -0.0007   -0.0006    0.0010   -0.0001    0.0001    0.0167
    10 C1     4py        0.0001   -0.0004   -0.0001   -0.0001   -0.0001   -0.0003    0.0007   -0.0000    0.0003    0.0054
    11 C1     2pz        0.0000    0.0004   -0.0000    0.0003   -0.0003   -0.0002    0.0004    0.0001   -0.0002    0.0067
    12 C1     3pz        0.0001    0.0002   -0.0001    0.0003   -0.0004   -0.0002    0.0005    0.0001    0.0000    0.0075
    13 C1     4pz        0.0000   -0.0001   -0.0000   -0.0000   -0.0000   -0.0001    0.0002   -0.0000    0.0001    0.0022
    14 C1     3d2-       0.0000    0.0001   -0.0000    0.0000    0.0000   -0.0000   -0.0003    0.0000    0.0000   -0.0009
    15 C1     3d1-      -0.0000    0.0000   -0.0000    0.0000   -0.0000   -0.0000    0.0000    0.0000   -0.0000    0.0004
    16 C1     3d0        0.0000   -0.0000   -0.0000    0.0001    0.0000   -0.0000   -0.0003    0.0000    0.0001   -0.0012
    17 C1     3d1+      -0.0000    0.0000   -0.0000   -0.0001   -0.0000   -0.0000    0.0000    0.0000   -0.0000    0.0001
    18 C1     3d2+      -0.0000   -0.0000    0.0000   -0.0002   -0.0000    0.0000    0.0002    0.0000   -0.0001    0.0004
    19 C3     1s         0.0001    0.0001    0.0000    0.0005    0.0070    0.9996    0.0007    0.0000    0.0000   -0.0139
    20 C3     2s         0.0009    0.0003    0.0000    0.0024    0.0004   -0.0007   -0.0003    0.0007    0.0003    0.0047
    21 C3     3s         0.0006    0.0002    0.0000    0.0012   -0.0000   -0.0021   -0.0003    0.0004    0.0002   -0.0395
    22 C3     4s         0.0001    0.0000   -0.0000    0.0001    0.0000    0.0007   -0.0001   -0.0000   -0.0000   -0.0048
    23 C3     2px       -0.0004   -0.0002    0.0002   -0.0006    0.0000    0.0000    0.0007   -0.0001    0.0001    0.0030
    24 C3     3px       -0.0003   -0.0001    0.0002   -0.0000    0.0002   -0.0000    0.0008   -0.0002    0.0002    0.0084
    25 C3     4px        0.0001    0.0000    0.0000    0.0003   -0.0000   -0.0007    0.0002   -0.0001    0.0001   -0.0037
    26 C3     2py       -0.0007   -0.0001    0.0006   -0.0006    0.0001   -0.0005    0.0004   -0.0003    0.0000    0.0258
    27 C3     3py       -0.0009    0.0000    0.0005   -0.0000   -0.0006   -0.0006    0.0004   -0.0006    0.0002    0.0043
    28 C3     4py       -0.0002    0.0000   -0.0001    0.0002   -0.0003   -0.0005    0.0000   -0.0002    0.0001    0.0075
    29 C3     2pz       -0.0002    0.0003    0.0000    0.0001   -0.0001   -0.0001    0.0002    0.0001    0.0001    0.0144
    30 C3     3pz       -0.0003    0.0002   -0.0000    0.0003   -0.0004   -0.0002    0.0003   -0.0001    0.0002    0.0034
    31 C3     4pz       -0.0001   -0.0000   -0.0001    0.0001   -0.0001   -0.0000    0.0001   -0.0001    0.0001    0.0045
    32 C3     3d2-       0.0000    0.0000    0.0000    0.0000   -0.0001   -0.0001    0.0000   -0.0001    0.0000   -0.0018
    33 C3     3d1-       0.0000    0.0000    0.0001   -0.0000   -0.0000   -0.0001   -0.0000    0.0000    0.0000    0.0029
    34 C3     3d0       -0.0001   -0.0000   -0.0001    0.0000    0.0001    0.0001   -0.0000   -0.0000   -0.0000    0.0011
    35 C3     3d1+      -0.0000    0.0000   -0.0000   -0.0000    0.0000    0.0000    0.0000   -0.0000    0.0000    0.0012
    36 C3     3d2+       0.0001   -0.0000   -0.0000    0.0001    0.0000   -0.0000    0.0001   -0.0000   -0.0000   -0.0056
    37 C4     1s         0.0003   -0.0000    0.0002   -0.0002    1.0000   -0.0069   -0.0001    0.0002   -0.0000   -0.0393
    38 C4     2s         0.0010   -0.0001    0.0008   -0.0015    0.0024    0.0005   -0.0005    0.0002   -0.0001    0.3545
    39 C4     3s        -0.0003   -0.0000    0.0001   -0.0011   -0.0000    0.0001   -0.0004    0.0001   -0.0000   -0.0067
    40 C4     4s        -0.0003   -0.0000   -0.0000   -0.0003    0.0013    0.0000   -0.0001   -0.0001   -0.0000    0.0031
    41 C4     2px        0.0020   -0.0003   -0.0017    0.0003   -0.0004    0.0001   -0.0000    0.0003   -0.0002    0.0483
    42 C4     3px        0.0016   -0.0002   -0.0012    0.0000   -0.0003    0.0005   -0.0001    0.0008   -0.0003   -0.0504
    43 C4     4px       -0.0001    0.0000    0.0001   -0.0002   -0.0000    0.0003   -0.0000    0.0004   -0.0001    0.0120
    44 C4     2py        0.0022   -0.0004    0.0004    0.0009    0.0006   -0.0008    0.0000    0.0000   -0.0000    0.0915
    45 C4     3py        0.0015   -0.0004    0.0001    0.0009    0.0003   -0.0001    0.0003   -0.0004    0.0000   -0.0513
    46 C4     4py       -0.0003   -0.0000   -0.0001    0.0001    0.0004    0.0003    0.0002   -0.0003    0.0000    0.0215
    47 C4     2pz        0.0005    0.0000    0.0007    0.0002    0.0006   -0.0004    0.0001   -0.0000    0.0000    0.0279
    48 C4     3pz        0.0003    0.0001    0.0006    0.0003    0.0003   -0.0002    0.0002   -0.0004    0.0001   -0.0131
    49 C4     4pz       -0.0001    0.0001   -0.0001    0.0000    0.0002   -0.0000    0.0001   -0.0003    0.0000    0.0062
    50 C4     3d2-      -0.0001   -0.0000   -0.0001    0.0000    0.0004   -0.0000   -0.0000   -0.0000   -0.0000    0.0354
    51 C4     3d1-       0.0000   -0.0000    0.0000   -0.0000    0.0001   -0.0000   -0.0000    0.0000    0.0000    0.0107
    52 C4     3d0        0.0000    0.0000    0.0001    0.0000   -0.0004    0.0001    0.0000   -0.0001    0.0000   -0.0246
    53 C4     3d1+      -0.0001   -0.0000    0.0001   -0.0000   -0.0001    0.0000   -0.0000   -0.0001   -0.0000    0.0026
    54 C4     3d2+       0.0000    0.0000   -0.0002    0.0001    0.0002   -0.0000    0.0000    0.0001   -0.0000    0.0008
    55 C6     1s         0.0001   -0.0000    0.0004   -0.0001   -0.0001    0.0002   -0.0001    0.9996   -0.0000   -0.0092
    56 C6     2s         0.0005   -0.0003    0.0021   -0.0006    0.0004    0.0007   -0.0005   -0.0004   -0.0002    0.0110
    57 C6     3s         0.0004   -0.0002    0.0007   -0.0005    0.0001    0.0005   -0.0005   -0.0019   -0.0002   -0.0180
    58 C6     4s         0.0001   -0.0001   -0.0001   -0.0001   -0.0001    0.0001   -0.0002    0.0008   -0.0001   -0.0014
    59 C6     2px        0.0004   -0.0002    0.0002   -0.0001   -0.0002    0.0002   -0.0002   -0.0000   -0.0000    0.0108
    60 C6     3px        0.0003   -0.0002   -0.0002   -0.0001   -0.0004    0.0001   -0.0003   -0.0001   -0.0001   -0.0029
    61 C6     4px       -0.0000    0.0000   -0.0002   -0.0000   -0.0002   -0.0001   -0.0000    0.0004   -0.0000    0.0027
    62 C6     2py       -0.0001   -0.0001   -0.0005    0.0001    0.0000   -0.0002    0.0000   -0.0001    0.0000   -0.0090
    63 C6     3py       -0.0001   -0.0000    0.0001    0.0001    0.0000   -0.0002    0.0001    0.0003    0.0000    0.0048
    64 C6     4py       -0.0000    0.0000    0.0002   -0.0000   -0.0000    0.0000    0.0000   -0.0006   -0.0000   -0.0027
    65 C6     2pz       -0.0000    0.0001   -0.0001    0.0001    0.0001   -0.0001    0.0002    0.0001    0.0001   -0.0122
    66 C6     3pz       -0.0001    0.0001    0.0002    0.0001    0.0002   -0.0000    0.0002    0.0002    0.0001   -0.0024
    67 C6     4pz       -0.0000   -0.0000    0.0001   -0.0000    0.0001    0.0000    0.0000   -0.0003   -0.0000   -0.0012
    68 C6     3d2-      -0.0000   -0.0000   -0.0000    0.0000   -0.0000   -0.0000   -0.0000    0.0000    0.0000   -0.0026
    69 C6     3d1-       0.0000    0.0000   -0.0001    0.0000    0.0000    0.0000    0.0000   -0.0001   -0.0000    0.0025
    70 C6     3d0       -0.0000    0.0000    0.0001    0.0000   -0.0000   -0.0000    0.0000    0.0000    0.0000   -0.0012
    71 C6     3d1+      -0.0000   -0.0000   -0.0000   -0.0000   -0.0000   -0.0000   -0.0000    0.0000   -0.0000   -0.0015
    72 C6     3d2+      -0.0000   -0.0000    0.0001   -0.0000    0.0001   -0.0000   -0.0000    0.0001    0.0000   -0.0008
    73 C19    1s         0.0001    0.0002   -0.0000    0.0000   -0.0001    0.0002    0.0052   -0.0000    1.0000   -0.0005
    74 C19    2s         0.0004    0.0009   -0.0003    0.0003   -0.0004    0.0009    0.0008   -0.0001    0.0021    0.0019
    75 C19    3s         0.0004    0.0005   -0.0003    0.0003   -0.0004    0.0005    0.0003   -0.0001   -0.0004    0.0025
    76 C19    4s         0.0001    0.0000   -0.0001    0.0000   -0.0001    0.0000    0.0001   -0.0001    0.0012    0.0020
    77 C19    2px        0.0001    0.0007    0.0001   -0.0002    0.0001    0.0002   -0.0002    0.0001   -0.0000   -0.0029
    78 C19    3px        0.0001    0.0005    0.0001   -0.0002    0.0001    0.0003   -0.0003    0.0001   -0.0000   -0.0034
    79 C19    4px       -0.0000   -0.0001    0.0000   -0.0000    0.0000    0.0000   -0.0000   -0.0000    0.0001   -0.0002
    80 C19    2py        0.0002   -0.0000   -0.0001    0.0004   -0.0003    0.0001    0.0004   -0.0001   -0.0004    0.0039
    81 C19    3py        0.0001   -0.0002   -0.0001    0.0003   -0.0002    0.0000   -0.0002   -0.0001   -0.0001    0.0032
    82 C19    4py       -0.0000   -0.0001    0.0000   -0.0001    0.0000   -0.0001   -0.0001   -0.0000    0.0003    0.0007
    83 C19    2pz        0.0000    0.0002    0.0000    0.0000   -0.0000    0.0001    0.0000   -0.0001   -0.0001    0.0007
    84 C19    3pz        0.0000    0.0001    0.0000   -0.0000    0.0000    0.0001   -0.0001   -0.0001    0.0000    0.0002
    85 C19    4pz        0.0000   -0.0001    0.0000   -0.0000    0.0000   -0.0000   -0.0001   -0.0000    0.0001    0.0001
    86 C19    3d2-      -0.0000    0.0001   -0.0000   -0.0000   -0.0000    0.0000    0.0000   -0.0000   -0.0001   -0.0000
    87 C19    3d1-       0.0000    0.0000    0.0000    0.0000   -0.0000    0.0000   -0.0000   -0.0000   -0.0001   -0.0001
    88 C19    3d0       -0.0000   -0.0001   -0.0000   -0.0001    0.0000   -0.0000    0.0001    0.0000    0.0000    0.0002
    89 C19    3d1+       0.0000    0.0000   -0.0000    0.0000   -0.0000    0.0000   -0.0000    0.0000   -0.0000   -0.0001
    90 C19    3d2+      -0.0000    0.0001   -0.0000   -0.0000    0.0000   -0.0000   -0.0001    0.0000    0.0001   -0.0001
    91 N2     1s        -0.0001    0.0001    0.0000    0.9998    0.0001    0.0002   -0.0002   -0.0000    0.0001   -0.0012
    92 N2     2s        -0.0003    0.0006    0.0003    0.0002    0.0004    0.0022   -0.0002   -0.0001    0.0004    0.0225
    93 N2     3s        -0.0002    0.0004    0.0003   -0.0013    0.0003    0.0013   -0.0003   -0.0001    0.0003   -0.0035
    94 N2     4s        -0.0000    0.0001    0.0001    0.0005    0.0001    0.0004    0.0001   -0.0000    0.0001   -0.0017
    95 N2     2px       -0.0004    0.0004    0.0002    0.0001   -0.0001   -0.0003   -0.0001   -0.0003   -0.0003    0.0041
    96 N2     3px       -0.0005    0.0004    0.0002   -0.0001   -0.0003   -0.0005   -0.0000   -0.0005   -0.0002    0.0084
    97 N2     4px       -0.0000    0.0000   -0.0000   -0.0000   -0.0001    0.0000   -0.0002   -0.0001    0.0001    0.0016
    98 N2     2py       -0.0000   -0.0012    0.0000   -0.0004    0.0002    0.0010    0.0007    0.0001   -0.0002    0.0049
    99 N2     3py        0.0001   -0.0015   -0.0000    0.0004    0.0002    0.0009    0.0006    0.0001   -0.0002   -0.0033
   100 N2     4py        0.0001    0.0000   -0.0000    0.0006   -0.0000    0.0001   -0.0002   -0.0000    0.0001   -0.0014
   101 N2     2pz        0.0000   -0.0003    0.0000   -0.0001    0.0000    0.0002   -0.0000    0.0000   -0.0001    0.0006
   102 N2     3pz        0.0001   -0.0004    0.0000    0.0001    0.0001    0.0001    0.0001   -0.0000   -0.0001   -0.0016
   103 N2     4pz        0.0001    0.0000   -0.0000    0.0001    0.0000    0.0000   -0.0001    0.0000    0.0000   -0.0006
   104 N2     3d2-       0.0000    0.0001    0.0000   -0.0002    0.0000   -0.0000   -0.0001    0.0000   -0.0000   -0.0001
   105 N2     3d1-      -0.0000    0.0000   -0.0000   -0.0000    0.0000    0.0000   -0.0001    0.0000    0.0000    0.0004
   106 N2     3d0       -0.0000   -0.0000   -0.0000    0.0000   -0.0000    0.0000    0.0001   -0.0000   -0.0001   -0.0004
   107 N2     3d1+       0.0000    0.0000    0.0000   -0.0000   -0.0000   -0.0000   -0.0000    0.0000    0.0000    0.0004
   108 N2     3d2+       0.0000   -0.0001   -0.0000    0.0001   -0.0000   -0.0000    0.0001   -0.0000    0.0000   -0.0004
   109 N5     1s         0.0001   -0.0000    0.9998    0.0001   -0.0003   -0.0000    0.0000    0.0001    0.0000   -0.0179
   110 N5     2s         0.0008   -0.0003   -0.0003    0.0006   -0.0004   -0.0003    0.0003    0.0018    0.0000    0.1059
   111 N5     3s         0.0006   -0.0003   -0.0016    0.0004   -0.0004   -0.0001    0.0002    0.0011    0.0000   -0.0469
   112 N5     4s         0.0001   -0.0001    0.0005    0.0001    0.0000   -0.0000    0.0001    0.0004    0.0000   -0.0110
   113 N5     2px       -0.0003    0.0000   -0.0002    0.0001    0.0002   -0.0000   -0.0000   -0.0008   -0.0001    0.0294
   114 N5     3px       -0.0003    0.0001   -0.0001   -0.0001    0.0001    0.0001   -0.0000   -0.0006   -0.0001   -0.0166
   115 N5     4px       -0.0000    0.0000    0.0003   -0.0001    0.0002    0.0000    0.0000    0.0001   -0.0000    0.0058
   116 N5     2py       -0.0012    0.0004   -0.0008    0.0003   -0.0000   -0.0002    0.0004    0.0008    0.0000    0.0385
   117 N5     3py       -0.0014    0.0006   -0.0007    0.0004   -0.0002   -0.0003    0.0007    0.0010    0.0001    0.0189
   118 N5     4py       -0.0000    0.0000    0.0005    0.0001   -0.0002    0.0000    0.0002    0.0003    0.0000   -0.0036
   119 N5     2pz       -0.0006    0.0002   -0.0006    0.0000    0.0000   -0.0001    0.0001    0.0004   -0.0000    0.0115
   120 N5     3pz       -0.0007    0.0001   -0.0003    0.0001   -0.0002   -0.0002    0.0002    0.0004   -0.0000    0.0220
   121 N5     4pz        0.0000   -0.0001   -0.0001    0.0000   -0.0002    0.0000    0.0000    0.0001   -0.0000   -0.0032
   122 N5     3d2-      -0.0001    0.0000    0.0002   -0.0000    0.0000    0.0000    0.0000    0.0000    0.0000    0.0031
   123 N5     3d1-       0.0001   -0.0000    0.0000   -0.0000   -0.0002    0.0000   -0.0000   -0.0000    0.0000   -0.0013
   124 N5     3d0        0.0000   -0.0000    0.0000   -0.0000    0.0001   -0.0000   -0.0000    0.0001   -0.0000   -0.0030
   125 N5     3d1+      -0.0000    0.0000    0.0001   -0.0000    0.0001    0.0000    0.0000    0.0001   -0.0000   -0.0011
   126 N5     3d2+      -0.0000    0.0000    0.0000    0.0000    0.0001   -0.0000    0.0000   -0.0000    0.0000    0.0039
   127 O7     1s         0.0000    0.9997   -0.0000    0.0000    0.0000   -0.0000   -0.0002    0.0000    0.0001   -0.0012
   128 O7     2s         0.0001   -0.0014   -0.0003    0.0002    0.0000   -0.0002    0.0006    0.0001    0.0004    0.0264
   129 O7     3s         0.0000   -0.0014   -0.0002    0.0002    0.0000   -0.0001    0.0001    0.0001    0.0003   -0.0019
   130 O7     4s        -0.0000    0.0001   -0.0001    0.0000    0.0000   -0.0000    0.0001    0.0000    0.0001   -0.0009
   131 O7     2px        0.0001    0.0001   -0.0001   -0.0002    0.0000   -0.0000    0.0006    0.0001    0.0001    0.0040
   132 O7     3px        0.0001   -0.0005   -0.0001   -0.0003    0.0000    0.0001    0.0001    0.0001    0.0002   -0.0035
   133 O7     4px       -0.0000    0.0011    0.0000   -0.0001   -0.0000    0.0001    0.0001    0.0000   -0.0000   -0.0006
   134 O7     2py       -0.0000   -0.0002   -0.0002   -0.0003    0.0000    0.0001   -0.0004   -0.0000   -0.0002   -0.0020
   135 O7     3py        0.0000    0.0002   -0.0002   -0.0002    0.0000    0.0002   -0.0003   -0.0001   -0.0002    0.0006
   136 O7     4py        0.0000   -0.0008   -0.0000    0.0000    0.0000    0.0001   -0.0002   -0.0000    0.0000   -0.0002
   137 O7     2pz       -0.0000   -0.0000   -0.0002   -0.0001    0.0000    0.0000   -0.0001   -0.0000   -0.0000    0.0018
   138 O7     3pz       -0.0001   -0.0001   -0.0002   -0.0001    0.0001    0.0001   -0.0000   -0.0000   -0.0000    0.0002
   139 O7     4pz       -0.0000   -0.0000    0.0000   -0.0000    0.0000    0.0000    0.0000   -0.0000   -0.0000   -0.0001
   140 O7     3d2-       0.0000    0.0001   -0.0000   -0.0000   -0.0000    0.0000   -0.0002   -0.0000   -0.0000   -0.0006
   141 O7     3d1-       0.0000   -0.0000   -0.0000    0.0000   -0.0000    0.0000   -0.0000    0.0000    0.0000    0.0002
   142 O7     3d0       -0.0000    0.0000   -0.0000   -0.0000    0.0000    0.0000   -0.0001   -0.0000   -0.0000   -0.0004
   143 O7     3d1+       0.0000    0.0000   -0.0000   -0.0000   -0.0000    0.0000   -0.0000    0.0000    0.0000    0.0001
   144 O7     3d2+       0.0000   -0.0000    0.0000   -0.0001    0.0000   -0.0000    0.0001    0.0000   -0.0000    0.0001
   145 O8     1s         0.9997    0.0000    0.0000   -0.0000   -0.0003    0.0001    0.0000   -0.0000    0.0000   -0.0240
   146 O8     2s        -0.0013    0.0002    0.0001   -0.0002    0.0004    0.0006    0.0001   -0.0003    0.0001    0.6904
   147 O8     3s        -0.0013    0.0002    0.0001   -0.0001    0.0000    0.0004    0.0000   -0.0002    0.0001   -0.0348
   148 O8     4s         0.0001    0.0000    0.0000   -0.0000    0.0001    0.0001   -0.0000   -0.0000    0.0000   -0.0143
   149 O8     2px       -0.0002   -0.0000    0.0003    0.0000   -0.0005   -0.0002   -0.0001    0.0001   -0.0000   -0.0970
   150 O8     3px        0.0003    0.0000    0.0004    0.0000   -0.0001   -0.0001   -0.0001    0.0000   -0.0000    0.0311
   151 O8     4px       -0.0009    0.0000    0.0001   -0.0000   -0.0001    0.0001   -0.0000   -0.0000   -0.0000    0.0017
   152 O8     2py       -0.0002   -0.0000   -0.0001   -0.0001   -0.0005   -0.0003   -0.0001   -0.0000   -0.0000   -0.1093
   153 O8     3py        0.0004    0.0000   -0.0001   -0.0002   -0.0002   -0.0002   -0.0001   -0.0000   -0.0000    0.0330
   154 O8     4py       -0.0010    0.0000    0.0001   -0.0001   -0.0003    0.0000   -0.0000   -0.0000    0.0000    0.0001
   155 O8     2pz       -0.0001   -0.0000   -0.0002   -0.0000    0.0000   -0.0001   -0.0000   -0.0000   -0.0000   -0.0177
   156 O8     3pz        0.0001   -0.0001   -0.0002   -0.0001   -0.0001   -0.0000   -0.0001   -0.0000    0.0000    0.0067
   157 O8     4pz       -0.0002   -0.0000    0.0000   -0.0000   -0.0001    0.0000   -0.0000   -0.0000    0.0000   -0.0004
   158 O8     3d2-      -0.0001    0.0000   -0.0000   -0.0000    0.0002    0.0000    0.0000   -0.0000    0.0000    0.0185
   159 O8     3d1-       0.0000   -0.0000    0.0001   -0.0000   -0.0000    0.0000   -0.0000    0.0000   -0.0000    0.0037
   160 O8     3d0       -0.0000   -0.0000   -0.0000    0.0000   -0.0001   -0.0000   -0.0000   -0.0000    0.0000   -0.0102
   161 O8     3d1+      -0.0000   -0.0000   -0.0000   -0.0000    0.0001   -0.0000    0.0000   -0.0000    0.0000    0.0036
   162 O8     3d2+       0.0000   -0.0000   -0.0001    0.0000   -0.0000   -0.0000    0.0000   -0.0000    0.0000   -0.0022
   163 H9     1s        -0.0000    0.0001    0.0001    0.0000   -0.0001   -0.0002   -0.0001   -0.0001    0.0003    0.0051
   164 H9     2s        -0.0000    0.0001    0.0001   -0.0000   -0.0001   -0.0002   -0.0000   -0.0001   -0.0003    0.0035
   165 H9     2px       -0.0000   -0.0000   -0.0000    0.0000   -0.0000   -0.0000    0.0000   -0.0000   -0.0000    0.0003
   166 H9     2py       -0.0000   -0.0001   -0.0000   -0.0000   -0.0000   -0.0000    0.0001    0.0000    0.0000    0.0002
   167 H9     2pz        0.0000    0.0000    0.0000    0.0000   -0.0000   -0.0000    0.0000   -0.0000   -0.0001    0.0005
   168 H10    1s         0.0001    0.0001    0.0000    0.0001   -0.0001   -0.0003   -0.0001    0.0000    0.0003    0.0048
   169 H10    2s         0.0001    0.0000    0.0000    0.0000   -0.0001   -0.0002   -0.0000    0.0000   -0.0003    0.0033
   170 H10    2px        0.0000   -0.0000   -0.0000    0.0000   -0.0000   -0.0000    0.0000   -0.0000   -0.0001    0.0005
   171 H10    2py        0.0000   -0.0001    0.0000   -0.0000   -0.0000   -0.0000    0.0001   -0.0000    0.0000    0.0004
   172 H10    2pz       -0.0000   -0.0000   -0.0000    0.0000    0.0000    0.0000   -0.0000   -0.0000    0.0001   -0.0001
   173 H11    1s         0.0000   -0.0004   -0.0001    0.0003   -0.0002   -0.0002    0.0002   -0.0001    0.0001    0.0066
   174 H11    2s         0.0000   -0.0002   -0.0001    0.0003   -0.0001   -0.0002    0.0001   -0.0000   -0.0004    0.0042
   175 H11    2px       -0.0000   -0.0000    0.0000   -0.0000    0.0000    0.0000   -0.0000    0.0000    0.0001   -0.0006
   176 H11    2py       -0.0000   -0.0000   -0.0000   -0.0000   -0.0000   -0.0000    0.0001   -0.0000   -0.0001    0.0004
   177 H11    2pz        0.0000    0.0000   -0.0000   -0.0000    0.0000    0.0000    0.0000    0.0000    0.0000   -0.0001
   178 H12    1s         0.0002   -0.0009   -0.0002   -0.0002    0.0001    0.0004    0.0006    0.0002   -0.0002    0.0020
   179 H12    2s         0.0001   -0.0005   -0.0001   -0.0002    0.0000    0.0002    0.0003    0.0001   -0.0001   -0.0020
   180 H12    2px       -0.0000    0.0000    0.0000    0.0003    0.0000    0.0000   -0.0002   -0.0000   -0.0000   -0.0003
   181 H12    2py       -0.0000   -0.0000   -0.0000   -0.0004   -0.0000    0.0001    0.0000   -0.0000   -0.0000    0.0009
   182 H12    2pz       -0.0000   -0.0000    0.0000   -0.0001    0.0000    0.0000   -0.0000   -0.0000   -0.0000    0.0001
   183 H13    1s        -0.0003   -0.0001    0.0003   -0.0006   -0.0001    0.0007   -0.0005   -0.0004   -0.0001    0.0216
   184 H13    2s        -0.0002   -0.0001    0.0002   -0.0003   -0.0001    0.0000   -0.0004   -0.0002   -0.0001    0.0047
   185 H13    2px        0.0000    0.0000   -0.0000    0.0000   -0.0000   -0.0000    0.0000    0.0000   -0.0000   -0.0017
   186 H13    2py       -0.0001    0.0000   -0.0000    0.0000    0.0001   -0.0000   -0.0000   -0.0000   -0.0000    0.0020
   187 H13    2pz       -0.0000   -0.0000    0.0000   -0.0000    0.0000   -0.0000    0.0001    0.0000    0.0000   -0.0004
   188 H14    1s        -0.0003    0.0005    0.0001   -0.0004   -0.0003    0.0008   -0.0004   -0.0002    0.0001    0.0262
   189 H14    2s        -0.0002    0.0003    0.0001   -0.0001   -0.0002    0.0000   -0.0003   -0.0001    0.0000    0.0079
   190 H14    2px        0.0000   -0.0000   -0.0000    0.0000   -0.0000   -0.0000    0.0000    0.0000   -0.0000   -0.0011
   191 H14    2py       -0.0001   -0.0000   -0.0000    0.0000    0.0001   -0.0000    0.0001    0.0000    0.0000    0.0005
   192 H14    2pz       -0.0000    0.0000   -0.0000    0.0000    0.0000    0.0000   -0.0000   -0.0000    0.0000    0.0024
   193 H15    1s        -0.0010    0.0007   -0.0001    0.0003    0.0002   -0.0004    0.0001   -0.0005   -0.0000    0.0333
   194 H15    2s        -0.0006    0.0005   -0.0001    0.0002   -0.0000   -0.0002    0.0001   -0.0003   -0.0000   -0.0029
   195 H15    2px       -0.0000    0.0000   -0.0002    0.0000    0.0002   -0.0000    0.0000   -0.0001   -0.0000    0.0034
   196 H15    2py       -0.0000   -0.0001   -0.0003    0.0000    0.0000   -0.0000   -0.0001   -0.0000   -0.0000    0.0038
   197 H15    2pz       -0.0001   -0.0002   -0.0003   -0.0000   -0.0000   -0.0000   -0.0001   -0.0000   -0.0000    0.0023
   198 H16    1s        -0.0001    0.0002   -0.0003   -0.0001   -0.0001    0.0000   -0.0000    0.0010    0.0000    0.0123
   199 H16    2s        -0.0000    0.0001   -0.0001   -0.0001   -0.0000    0.0000   -0.0000    0.0001    0.0000   -0.0024
   200 H16    2px       -0.0000   -0.0000   -0.0000    0.0000    0.0000    0.0000   -0.0000   -0.0001    0.0000    0.0003
   201 H16    2py        0.0000   -0.0000    0.0000    0.0000    0.0000   -0.0000    0.0000   -0.0001    0.0000   -0.0013
   202 H16    2pz       -0.0000   -0.0000    0.0000    0.0000   -0.0000   -0.0000    0.0000   -0.0000   -0.0000   -0.0000
   203 H17    1s         0.0004   -0.0001   -0.0005    0.0000   -0.0003    0.0001   -0.0000    0.0007    0.0000    0.0053
   204 H17    2s         0.0003   -0.0001   -0.0002   -0.0000   -0.0002    0.0001   -0.0000   -0.0001    0.0000   -0.0009
   205 H17    2px        0.0000    0.0000   -0.0000    0.0000   -0.0000    0.0000    0.0000    0.0000    0.0000    0.0005
   206 H17    2py       -0.0000   -0.0000    0.0000    0.0000    0.0000   -0.0000    0.0000   -0.0000    0.0000   -0.0007
   207 H17    2pz        0.0000   -0.0000    0.0000   -0.0000   -0.0000    0.0000   -0.0000   -0.0000   -0.0000    0.0002
   208 H18    1s         0.0003   -0.0002   -0.0007   -0.0001   -0.0003   -0.0000   -0.0002    0.0005   -0.0001    0.0109
   209 H18    2s         0.0002   -0.0001   -0.0003   -0.0001   -0.0003   -0.0000   -0.0002   -0.0001   -0.0001    0.0027
   210 H18    2px        0.0000   -0.0000   -0.0000    0.0000   -0.0000   -0.0000    0.0000    0.0000   -0.0000    0.0006
   211 H18    2py       -0.0000   -0.0000    0.0000   -0.0000   -0.0000    0.0000   -0.0000   -0.0000   -0.0000    0.0000
   212 H18    2pz       -0.0000    0.0000    0.0001    0.0000    0.0001   -0.0000    0.0000   -0.0000    0.0000   -0.0012
 
 
      Orbital                11        12        13        14        15        16        17        18        19        20
      Energy            -1.3648   -1.2491   -1.2238   -1.0173   -0.9668   -0.9317   -0.8141   -0.7773   -0.7117   -0.6924
      Occ. No.           2.0000    2.0000    2.0000    2.0000    2.0000    2.0000    2.0000    2.0000    2.0000    2.0000
 
     1 C1     1s        -0.0392    0.0054   -0.0080   -0.0131    0.0091    0.0024    0.0105   -0.0110   -0.0046    0.0077
     2 C1     2s         0.3515   -0.0037    0.1175    0.2261   -0.1386   -0.0041   -0.2445    0.2845    0.1340   -0.2020
     3 C1     3s        -0.0061    0.0163   -0.0003   -0.0078    0.0139    0.0022    0.0028    0.0008   -0.0072    0.0121
     4 C1     4s         0.0025    0.0044    0.0001   -0.0032    0.0026    0.0017    0.0027   -0.0012   -0.0024    0.0053
     5 C1     2px       -0.0595    0.0355    0.1500    0.0551    0.0314   -0.0862   -0.0820    0.1291   -0.0814    0.0788
     6 C1     3px        0.0370   -0.0051   -0.0418   -0.0548    0.0281    0.0450   -0.0058   -0.0399    0.0298   -0.0385
     7 C1     4px       -0.0195    0.0076    0.0301   -0.0007    0.0079   -0.0069   -0.0089    0.0070   -0.0069    0.0040
     8 C1     2py        0.0795    0.0150   -0.0063   -0.1013    0.1101   -0.0555   -0.0261    0.0572    0.0687    0.0753
     9 C1     3py       -0.0476    0.0411    0.0335   -0.0165   -0.0345    0.0565    0.0342    0.0130   -0.0341   -0.0141
    10 C1     4py        0.0200    0.0058   -0.0015   -0.0202    0.0147   -0.0021    0.0011    0.0091    0.0008    0.0003
    11 C1     2pz        0.0125    0.0096    0.0122   -0.0231    0.0334   -0.0342   -0.0124    0.0352   -0.0025    0.0391
    12 C1     3pz       -0.0064    0.0116   -0.0008   -0.0074   -0.0121    0.0138    0.0141    0.0019   -0.0078   -0.0076
    13 C1     4pz        0.0037    0.0037    0.0028   -0.0047    0.0038   -0.0039    0.0020    0.0051   -0.0039    0.0020
    14 C1     3d2-      -0.0310    0.0078    0.0224    0.0070   -0.0049   -0.0012   -0.0017    0.0154    0.0063    0.0146
    15 C1     3d1-       0.0063   -0.0002    0.0013    0.0043   -0.0062    0.0029   -0.0020    0.0066    0.0043   -0.0008
    16 C1     3d0       -0.0262    0.0023   -0.0046   -0.0083    0.0032    0.0028    0.0091   -0.0077   -0.0033    0.0056
    17 C1     3d1+      -0.0006    0.0018    0.0092    0.0053   -0.0013   -0.0039   -0.0050    0.0070    0.0004    0.0033
    18 C1     3d2+       0.0095    0.0009    0.0165    0.0049    0.0101   -0.0163   -0.0088    0.0035   -0.0062    0.0019
    19 C3     1s        -0.0081   -0.0090   -0.0322    0.0427   -0.0010   -0.0283   -0.0024   -0.0022   -0.0044    0.0065
    20 C3     2s         0.0232    0.0441    0.1687   -0.3344    0.0034    0.3303    0.0487    0.1029    0.1043   -0.0475
    21 C3     3s        -0.0138   -0.0136   -0.0590    0.0809   -0.0025   -0.0370   -0.0008    0.0017   -0.0021    0.0208
    22 C3     4s        -0.0013   -0.0000   -0.0127    0.0196   -0.0014   -0.0085   -0.0007   -0.0015   -0.0016    0.0057
    23 C3     2px       -0.0228   -0.0388   -0.0523    0.0008    0.0244    0.0462    0.0540   -0.0223   -0.0233   -0.2462
    24 C3     3px       -0.0066    0.0005    0.0094   -0.0263    0.0207   -0.0019   -0.0057   -0.0010    0.0089    0.0277
    25 C3     4px       -0.0021    0.0065    0.0067   -0.0176    0.0072    0.0169    0.0026    0.0031    0.0006   -0.0075
    26 C3     2py       -0.0256   -0.0038   -0.1018   -0.0337   -0.0294    0.0320   -0.1619    0.1759   -0.1821   -0.0392
    27 C3     3py       -0.0116    0.0147   -0.0164    0.0038    0.0724   -0.0204   -0.0079   -0.0133    0.0464    0.0228
    28 C3     4py       -0.0074    0.0085   -0.0131   -0.0089    0.0040    0.0031   -0.0120    0.0070    0.0024    0.0013
    29 C3     2pz       -0.0108    0.0125   -0.0229   -0.0284   -0.0238    0.0090   -0.0533    0.0247   -0.1195    0.0320
    30 C3     3pz       -0.0085    0.0089   -0.0059    0.0002    0.0205   -0.0055    0.0055   -0.0002    0.0184    0.0019
    31 C3     4pz       -0.0026    0.0024   -0.0052   -0.0002    0.0016   -0.0038   -0.0038   -0.0019   -0.0026    0.0017
    32 C3     3d2-       0.0036   -0.0009    0.0162    0.0067    0.0126   -0.0057    0.0110   -0.0054    0.0217    0.0101
    33 C3     3d1-       0.0019    0.0022    0.0089   -0.0074   -0.0020    0.0015   -0.0044    0.0006   -0.0072    0.0125
    34 C3     3d0       -0.0020   -0.0021   -0.0095    0.0040   -0.0029    0.0007   -0.0033    0.0045   -0.0035   -0.0129
    35 C3     3d1+       0.0003   -0.0023    0.0036    0.0029    0.0049   -0.0003    0.0066   -0.0044    0.0051   -0.0043
    36 C3     3d2+      -0.0010    0.0011   -0.0110    0.0064   -0.0032   -0.0037   -0.0049    0.0100    0.0086   -0.0032
    37 C4     1s         0.0026   -0.0090    0.0048    0.0104    0.0103    0.0041    0.0170    0.0042    0.0055   -0.0010
    38 C4     2s         0.0058    0.1584    0.0298   -0.2258   -0.2180    0.0272   -0.3423   -0.1088   -0.2227    0.0764
    39 C4     3s         0.0081    0.0060    0.0198    0.0070    0.0021    0.0129    0.0275   -0.0036    0.0064    0.0081
    40 C4     4s         0.0024    0.0027    0.0056    0.0038    0.0018    0.0031    0.0087   -0.0022    0.0028    0.0003
    41 C4     2px       -0.0057   -0.1765    0.0390   -0.0018    0.0340    0.0957    0.0472    0.1331   -0.1962   -0.1315
    42 C4     3px        0.0150    0.0165    0.0055   -0.0086   -0.0805   -0.0539    0.0067   -0.0518    0.0663    0.0098
    43 C4     4px       -0.0001   -0.0363    0.0089   -0.0019   -0.0029    0.0047    0.0078    0.0052   -0.0123   -0.0129
    44 C4     2py       -0.0123   -0.0276   -0.0367    0.1360    0.0815   -0.0420   -0.0048   -0.1123    0.0043   -0.1033
    45 C4     3py        0.0050    0.0551   -0.0081   -0.0130    0.0332    0.0582   -0.0177    0.0473   -0.0076    0.0414
    46 C4     4py       -0.0043   -0.0028   -0.0064    0.0130    0.0138    0.0034   -0.0041   -0.0042   -0.0058   -0.0025
    47 C4     2pz       -0.0069    0.0332   -0.0285    0.0561    0.0236   -0.0472   -0.0336   -0.1024    0.0582   -0.0049
    48 C4     3pz       -0.0057    0.0145   -0.0071   -0.0033    0.0395    0.0402   -0.0143    0.0365   -0.0167    0.0176
    49 C4     4pz       -0.0024    0.0091   -0.0052    0.0057    0.0060    0.0006   -0.0052   -0.0040    0.0021    0.0026
    50 C4     3d2-      -0.0025   -0.0148   -0.0005    0.0087   -0.0010   -0.0134    0.0080   -0.0003   -0.0141    0.0069
    51 C4     3d1-      -0.0003   -0.0017    0.0027   -0.0084   -0.0011    0.0084   -0.0096    0.0026   -0.0037   -0.0003
    52 C4     3d0        0.0008   -0.0039    0.0013    0.0043    0.0067    0.0040    0.0045    0.0035    0.0076   -0.0019
    53 C4     3d1+      -0.0008   -0.0166    0.0023    0.0080    0.0082   -0.0005    0.0116    0.0064   -0.0090    0.0021
    54 C4     3d2+       0.0012    0.0234   -0.0073    0.0001   -0.0119   -0.0135   -0.0025   -0.0102    0.0083   -0.0006
    55 C6     1s         0.0011   -0.0330    0.0105   -0.0262   -0.0386   -0.0316    0.0087   -0.0025    0.0058   -0.0077
    56 C6     2s         0.0210    0.1529   -0.0201    0.1955    0.3092    0.2906   -0.1236   -0.0032   -0.0300    0.0761
    57 C6     3s         0.0114   -0.0539    0.0299   -0.0414   -0.0674   -0.0482    0.0188   -0.0084    0.0156   -0.0238
    58 C6     4s         0.0035   -0.0080    0.0073   -0.0084   -0.0151   -0.0095    0.0061   -0.0019    0.0030   -0.0073
    59 C6     2px        0.0047    0.0472   -0.0099    0.0143   -0.0107   -0.0214   -0.0369   -0.0995    0.1470   -0.1174
    60 C6     3px        0.0039   -0.0121    0.0067   -0.0069   -0.0144   -0.0050   -0.0010    0.0057   -0.0151    0.0157
    61 C6     4px        0.0007   -0.0013    0.0026   -0.0057   -0.0106   -0.0066   -0.0008   -0.0073    0.0063   -0.0072
    62 C6     2py       -0.0066   -0.0836    0.0113   -0.0228   -0.0053    0.0170   -0.1198   -0.0472   -0.0252    0.2433
    63 C6     3py       -0.0020    0.0127   -0.0113    0.0112    0.0075   -0.0028    0.0009    0.0020    0.0105   -0.0350
    64 C6     4py        0.0000   -0.0016   -0.0004    0.0075    0.0119    0.0113   -0.0103   -0.0034   -0.0006    0.0107
    65 C6     2pz       -0.0074   -0.0485    0.0069   -0.0107    0.0070    0.0122   -0.0478   -0.0094   -0.0254    0.0998
    66 C6     3pz       -0.0044    0.0037   -0.0058    0.0071    0.0120   -0.0002   -0.0002   -0.0050    0.0071   -0.0157
    67 C6     4pz        0.0004   -0.0005   -0.0005    0.0046    0.0070    0.0067   -0.0044   -0.0003   -0.0012    0.0051
    68 C6     3d2-      -0.0009   -0.0148    0.0030   -0.0032    0.0002    0.0027   -0.0059    0.0013   -0.0062    0.0206
    69 C6     3d1-       0.0007    0.0139   -0.0033    0.0045    0.0020   -0.0016    0.0091    0.0012    0.0061   -0.0183
    70 C6     3d0       -0.0003   -0.0050    0.0016   -0.0030   -0.0018    0.0000   -0.0000    0.0038   -0.0077    0.0088
    71 C6     3d1+      -0.0001   -0.0074    0.0020   -0.0021   -0.0002    0.0019    0.0007    0.0057   -0.0083    0.0102
    72 C6     3d2+      -0.0004   -0.0094    0.0022   -0.0032   -0.0026    0.0003   -0.0126   -0.0073   -0.0005    0.0151
    73 C19    1s        -0.0153    0.0007   -0.0101   -0.0358    0.0513   -0.0373   -0.0146    0.0078   -0.0002   -0.0084
    74 C19    2s        -0.0086   -0.0002   -0.0028    0.1753   -0.3075    0.2502    0.0946   -0.0458    0.0158    0.0769
    75 C19    3s        -0.0407    0.0076   -0.0304   -0.0729    0.0971   -0.0662   -0.0310    0.0227   -0.0022   -0.0143
    76 C19    4s        -0.0037    0.0036   -0.0043   -0.0152    0.0211   -0.0143   -0.0076    0.0069   -0.0015   -0.0037
    77 C19    2px       -0.0112    0.0059    0.0202    0.0382   -0.0208   -0.0132   -0.0161    0.0341   -0.0608   -0.0162
    78 C19    3px       -0.0032    0.0016   -0.0027    0.0129   -0.0054   -0.0044    0.0069    0.0029    0.0043    0.0060
    79 C19    4px        0.0063   -0.0007   -0.0003   -0.0005    0.0073   -0.0086   -0.0013   -0.0007   -0.0051   -0.0029
    80 C19    2py        0.0197    0.0043    0.0117    0.0370   -0.0263    0.0004   -0.0614    0.0527    0.0210   -0.1701
    81 C19    3py       -0.0085    0.0075   -0.0043   -0.0193    0.0247   -0.0133    0.0061   -0.0068   -0.0088    0.0206
    82 C19    4py        0.0062    0.0001    0.0006   -0.0069    0.0153   -0.0140   -0.0100    0.0085    0.0019   -0.0076
    83 C19    2pz        0.0045    0.0032    0.0078    0.0179   -0.0084    0.0038   -0.0222    0.0189   -0.0071   -0.0517
    84 C19    3pz       -0.0024    0.0038    0.0006   -0.0023    0.0089    0.0017   -0.0002   -0.0020   -0.0006    0.0072
    85 C19    4pz        0.0028    0.0002    0.0006   -0.0027    0.0062   -0.0052   -0.0034    0.0024   -0.0003   -0.0026
    86 C19    3d2-      -0.0015    0.0007    0.0060    0.0054   -0.0028   -0.0015   -0.0042    0.0045    0.0012   -0.0058
    87 C19    3d1-       0.0011   -0.0000    0.0013    0.0053   -0.0050    0.0019   -0.0030    0.0030   -0.0005   -0.0080
    88 C19    3d0        0.0012   -0.0000   -0.0002   -0.0045    0.0048   -0.0022    0.0016   -0.0019    0.0031    0.0047
    89 C19    3d1+      -0.0020    0.0005    0.0020    0.0020   -0.0014   -0.0006   -0.0011    0.0020   -0.0017   -0.0012
    90 C19    3d2+      -0.0061    0.0009   -0.0003   -0.0067    0.0069   -0.0034    0.0048   -0.0038   -0.0033    0.0130
    91 N2     1s        -0.0194   -0.0061   -0.0403   -0.0054   -0.0008    0.0019   -0.0021    0.0032    0.0016    0.0042
    92 N2     2s         0.1346    0.0774    0.5754    0.0865    0.1559   -0.1988    0.0343   -0.0996   -0.0148    0.1293
    93 N2     3s        -0.0491   -0.0126   -0.0729   -0.0045    0.0096   -0.0116   -0.0044    0.0050    0.0021    0.0204
    94 N2     4s        -0.0120   -0.0041   -0.0248   -0.0004   -0.0004   -0.0007   -0.0018    0.0024    0.0001    0.0024
    95 N2     2px       -0.0329    0.0124   -0.0135   -0.1002    0.0768    0.0756    0.2082   -0.3494   -0.0373   -0.0599
    96 N2     3px        0.0143    0.0125   -0.0079    0.0380    0.0308   -0.0436   -0.0805    0.0807    0.0073    0.0116
    97 N2     4px       -0.0056    0.0035    0.0019   -0.0028    0.0106   -0.0042   -0.0023   -0.0028   -0.0038    0.0010
    98 N2     2py        0.0196   -0.0054   -0.0250   -0.1265    0.0405    0.0680    0.0108    0.0726    0.3212    0.1770
    99 N2     3py        0.0064   -0.0217   -0.0471    0.0454    0.0105   -0.0576   -0.0305   -0.0189   -0.0586   -0.0411
   100 N2     4py       -0.0089   -0.0017   -0.0137   -0.0020    0.0018   -0.0043   -0.0074    0.0043   -0.0021   -0.0031
   101 N2     2pz       -0.0016   -0.0024   -0.0185   -0.0523    0.0169    0.0264    0.0234   -0.0352    0.0413    0.0541
   102 N2     3pz        0.0054   -0.0067   -0.0063    0.0120    0.0046   -0.0159   -0.0178    0.0068   -0.0055   -0.0142
   103 N2     4pz       -0.0032   -0.0004   -0.0023   -0.0016    0.0009   -0.0011   -0.0019    0.0008    0.0001   -0.0020
   104 N2     3d2-      -0.0004    0.0016    0.0098   -0.0017   -0.0022    0.0060   -0.0007    0.0090    0.0151    0.0043
   105 N2     3d1-      -0.0005    0.0011    0.0065   -0.0010    0.0001    0.0005    0.0017   -0.0021   -0.0010    0.0023
   106 N2     3d0       -0.0032   -0.0020   -0.0146   -0.0005   -0.0035    0.0029   -0.0010    0.0012   -0.0004   -0.0005
   107 N2     3d1+       0.0014    0.0007    0.0065    0.0018   -0.0006   -0.0010   -0.0037    0.0055    0.0022    0.0010
   108 N2     3d2+       0.0057    0.0001    0.0038    0.0088    0.0007   -0.0084   -0.0103    0.0132   -0.0009   -0.0045
   109 N5     1s        -0.0030   -0.0406    0.0064   -0.0009    0.0007   -0.0005    0.0005    0.0020    0.0013   -0.0020
   110 N5     2s         0.0315    0.5816   -0.1309    0.0264   -0.1109   -0.1897    0.2151    0.0552    0.0948   -0.1598
   111 N5     3s        -0.0059   -0.0764    0.0094   -0.0064   -0.0147   -0.0192    0.0107    0.0063    0.0096   -0.0135
   112 N5     4s        -0.0016   -0.0255    0.0043   -0.0032   -0.0036   -0.0023   -0.0002    0.0006    0.0001   -0.0009
   113 N5     2px        0.0031    0.0307    0.0140   -0.0797   -0.1412   -0.0653   -0.2888   -0.2862    0.1565    0.1582
   114 N5     3px        0.0117   -0.0101    0.0201    0.0207    0.0344    0.0403    0.0743    0.0490   -0.0252   -0.0391
   115 N5     4px        0.0019   -0.0025    0.0050   -0.0060   -0.0033    0.0025    0.0003    0.0003   -0.0028   -0.0044
   116 N5     2py       -0.0174    0.0043   -0.0164    0.0827    0.0908    0.0813   -0.1402   -0.1818    0.1520   -0.2300
   117 N5     3py       -0.0141   -0.0412   -0.0081   -0.0418   -0.0651   -0.0538    0.0355    0.0238   -0.0391    0.0349
   118 N5     4py       -0.0026   -0.0064   -0.0031   -0.0039   -0.0056   -0.0061   -0.0004    0.0009   -0.0027    0.0037
   119 N5     2pz       -0.0082   -0.0254   -0.0032    0.0561    0.0763    0.0688   -0.0210   -0.0269    0.0497   -0.1557
   120 N5     3pz       -0.0018   -0.0001   -0.0085   -0.0227   -0.0427   -0.0317    0.0111    0.0119   -0.0209    0.0298
   121 N5     4pz       -0.0000   -0.0021   -0.0022    0.0003   -0.0023   -0.0030    0.0005    0.0022   -0.0013    0.0029
   122 N5     3d2-       0.0001   -0.0036   -0.0006   -0.0020   -0.0056   -0.0093    0.0043   -0.0009   -0.0032    0.0065
   123 N5     3d1-       0.0014    0.0103   -0.0023    0.0024    0.0037    0.0011    0.0083    0.0075   -0.0012   -0.0045
   124 N5     3d0       -0.0003   -0.0104    0.0024   -0.0012    0.0007    0.0025    0.0011    0.0034   -0.0025    0.0015
   125 N5     3d1+      -0.0001   -0.0101    0.0012    0.0011    0.0025   -0.0003    0.0100    0.0079   -0.0064   -0.0012
   126 N5     3d2+      -0.0001    0.0070   -0.0011   -0.0066   -0.0115   -0.0080   -0.0111   -0.0096    0.0017    0.0116
   127 O7     1s        -0.0227    0.0020    0.0028   -0.0029    0.0030   -0.0015    0.0063   -0.0081   -0.0110    0.0091
   128 O7     2s         0.6862   -0.1105   -0.3134   -0.1712    0.1447   -0.0147    0.1513   -0.2483   -0.2191    0.1524
   129 O7     3s        -0.0256   -0.0018   -0.0131   -0.0179    0.0159   -0.0090    0.0208   -0.0295   -0.0355    0.0276
   130 O7     4s        -0.0129   -0.0004   -0.0009   -0.0033    0.0029   -0.0030    0.0032   -0.0059   -0.0070    0.0053
   131 O7     2px        0.1135   -0.0127   -0.0166    0.0081    0.0061   -0.0313   -0.1007    0.1356    0.1692   -0.0898
   132 O7     3px       -0.0321   -0.0010   -0.0021   -0.0064    0.0047   -0.0058    0.0110   -0.0163   -0.0165    0.0080
   133 O7     4px       -0.0032   -0.0016    0.0002   -0.0003   -0.0006   -0.0001   -0.0006   -0.0037   -0.0005    0.0000
   134 O7     2py       -0.0793    0.0258    0.0348   -0.0119    0.0251   -0.0532    0.0835   -0.0022   -0.1712    0.1707
   135 O7     3py        0.0279   -0.0007   -0.0046    0.0105   -0.0083   -0.0051   -0.0091    0.0069    0.0147   -0.0191
   136 O7     4py       -0.0003    0.0008   -0.0024    0.0008   -0.0009   -0.0002   -0.0002    0.0008    0.0032   -0.0035
   137 O7     2pz       -0.0036    0.0099   -0.0002   -0.0125    0.0087   -0.0224    0.0315    0.0271   -0.0394    0.0438
   138 O7     3pz        0.0023    0.0006   -0.0029   -0.0001   -0.0020   -0.0047    0.0002   -0.0003    0.0021   -0.0067
   139 O7     4pz       -0.0019   -0.0004   -0.0003    0.0000   -0.0007   -0.0005   -0.0006   -0.0002    0.0018   -0.0022
   140 O7     3d2-      -0.0170    0.0029    0.0055    0.0002    0.0000   -0.0016    0.0063   -0.0030   -0.0113    0.0094
   141 O7     3d1-       0.0026    0.0005   -0.0024   -0.0007   -0.0004    0.0004    0.0023   -0.0004   -0.0005   -0.0005
   142 O7     3d0       -0.0099    0.0017    0.0038    0.0011   -0.0008   -0.0006    0.0033   -0.0019   -0.0064    0.0041
   143 O7     3d1+      -0.0010    0.0009    0.0001   -0.0007    0.0007   -0.0016    0.0017    0.0015   -0.0021    0.0025
   144 O7     3d2+       0.0036   -0.0002    0.0022   -0.0002    0.0032   -0.0047   -0.0043    0.0061    0.0023    0.0026
   145 O8     1s         0.0010    0.0023   -0.0001    0.0027    0.0035   -0.0018    0.0136    0.0050    0.0175    0.0074
   146 O8     2s        -0.0640   -0.3067   -0.0038    0.1750    0.1276   -0.0746    0.3369    0.1158    0.2944    0.1302
   147 O8     3s        -0.0011   -0.0105   -0.0004    0.0137    0.0128   -0.0086    0.0436    0.0144    0.0502    0.0215
   148 O8     4s         0.0002   -0.0006    0.0000    0.0023    0.0018   -0.0022    0.0085    0.0026    0.0103    0.0048
   149 O8     2px        0.0088    0.0092    0.0091    0.0001    0.0259    0.0228    0.1512    0.1253    0.1654    0.1008
   150 O8     3px        0.0007    0.0050    0.0015   -0.0004   -0.0050    0.0028   -0.0219   -0.0161   -0.0175   -0.0065
   151 O8     4px        0.0005    0.0007    0.0001    0.0007   -0.0016   -0.0002   -0.0018   -0.0024   -0.0022   -0.0005
   152 O8     2py        0.0090    0.0345   -0.0037    0.0334    0.0222   -0.0348    0.1528    0.0281    0.2981    0.1331
   153 O8     3py       -0.0013   -0.0035    0.0017   -0.0123   -0.0109    0.0007   -0.0236   -0.0036   -0.0318   -0.0151
   154 O8     4py       -0.0003   -0.0025    0.0004   -0.0008   -0.0000    0.0004   -0.0022    0.0000   -0.0042   -0.0029
   155 O8     2pz        0.0025    0.0134   -0.0037    0.0119   -0.0004   -0.0214    0.0183   -0.0225    0.0805    0.0351
   156 O8     3pz        0.0006   -0.0015    0.0004   -0.0040   -0.0033   -0.0005   -0.0033    0.0044   -0.0092   -0.0053
   157 O8     4pz        0.0002   -0.0010    0.0001    0.0001    0.0007    0.0001   -0.0002    0.0009   -0.0011   -0.0014
   158 O8     3d2-      -0.0016   -0.0044   -0.0006    0.0003   -0.0014   -0.0009   -0.0098   -0.0062   -0.0140   -0.0072
   159 O8     3d1-      -0.0004   -0.0036    0.0007   -0.0003    0.0010    0.0025   -0.0005    0.0028   -0.0060   -0.0028
[...]
ATVX     1  Mu1.0002  Se1.059                       0.27986147     -0.00748325      0.01207402     -0.00009035
ATVX     1  Mu1.0001  Se1.060                       0.23969438      0.00940084     -0.01634336     -0.00015364
ATVX     1  Mu1.0002  Se1.060                       0.29343117     -0.00504297      0.00807848     -0.00004074
ATVX     1  Mu1.0001  Se1.061                       0.24771441      0.02040693     -0.03432012     -0.00070037
ATVX     1  Mu1.0001  Se1.062                       0.26077739     -0.01936035      0.03130058     -0.00060599
ATVX     1  Mu1.0001  Se1.063                       0.26741619      0.00693440     -0.01119956     -0.00007766
ATVX     1  Mu1.0001  Se1.064                       0.28926932      0.00257070     -0.00412588     -0.00001061
ATVX     1  Mu1.0001  Se1.065                       0.29665473     -0.01419015      0.02143516     -0.00030417
ATVX     1  Mu1.0001  Se1.067                       0.32824240      0.03203845     -0.04620075     -0.00148020
AIVX     1  Mu1.0001  In1.021 Se1.038               0.28996155      0.00105377     -0.00162067     -0.00000171
AIVX     1  Mu1.0001  In1.022 Se1.038               0.26306760      0.00115321     -0.00181824     -0.00000210
AIVX     1  Mu1.0001  In1.023 Se1.038               0.23745239      0.00032802     -0.00040138     -0.00000013
AIVX     1  Mu1.0001  In1.024 Se1.038               0.25384921      0.00009688      0.00036397      0.00000004
AIVX     1  Mu1.0001  In1.025 Se1.038               0.20638260     -0.00132760      0.00246361     -0.00000327
AIVX     1  Mu1.0001  In1.026 Se1.038               0.20470059     -0.00210549      0.00391581     -0.00000824
AIVX     1  Mu1.0001  In1.027 Se1.038               0.19067413      0.00132658     -0.00229467     -0.00000304
AIVX     1  Mu1.0001  In1.028 Se1.038               0.18729960     -0.00115099      0.00232121     -0.00000267
AIVX     1  Mu1.0001  In1.029 Se1.038               0.17486116     -0.00071357      0.00131167     -0.00000094
AIVX     1  Mu1.0001  In1.021 Se1.039               0.29760090     -0.00205156      0.00315992     -0.00000648
AIVX     1  Mu1.0001  In1.022 Se1.039               0.27070695     -0.00007239      0.00030215     -0.00000002
AIVX     1  Mu1.0001  In1.023 Se1.039               0.24509175      0.00073845     -0.00131569     -0.00000097
AIVX     1  Mu1.0001  In1.024 Se1.039               0.26148856      0.00032257      0.00001749      0.00000001
AIVX     1  Mu1.0001  In1.025 Se1.039               0.21402195     -0.00242829      0.00451487     -0.00001096
AIVX     1  Mu1.0001  In1.026 Se1.039               0.21233994     -0.00008190      0.00027371     -0.00000002
AIVX     1  Mu1.0001  In1.027 Se1.039               0.19831348     -0.00041680      0.00055166     -0.00000023
AIVX     1  Mu1.0001  In1.028 Se1.039               0.19493895      0.00017058      0.00001051      0.00000000
AIVX     1  Mu1.0001  In1.029 Se1.039               0.18250051     -0.00020855      0.00031373     -0.00000007
AIVX     1  Mu1.0001  In1.022 Se1.040               0.29433965     -0.00078577      0.00132981     -0.00000104
AIVX     1  Mu1.0001  In1.023 Se1.040               0.26872445     -0.00123450      0.00165549     -0.00000204
AIVX     1  Mu1.0001  In1.024 Se1.040               0.28512127     -0.00231545      0.00329133     -0.00000762
AIVX     1  Mu1.0001  In1.025 Se1.040               0.23765466      0.00269597     -0.00446497     -0.00001204
AIVX     1  Mu1.0001  In1.026 Se1.040               0.23597264      0.00036865     -0.00051704     -0.00000019
AIVX     1  Mu1.0001  In1.027 Se1.040               0.22194618     -0.00083057      0.00126473     -0.00000105
AIVX     1  Mu1.0001  In1.028 Se1.040               0.21857166      0.00129244     -0.00216129     -0.00000279
AIVX     1  Mu1.0001  In1.029 Se1.040               0.20613321     -0.00049322      0.00084872     -0.00000042
AIVX     1  Mu1.0001  In1.022 Se1.041               0.29528386      0.00077663     -0.00115516     -0.00000090
AIVX     1  Mu1.0001  In1.023 Se1.041               0.26966866     -0.00050462      0.00044092     -0.00000022
AIVX     1  Mu1.0001  In1.024 Se1.041               0.28606548     -0.00451948      0.00688941     -0.00003114
AIVX     1  Mu1.0001  In1.025 Se1.041               0.23859887     -0.00220461      0.00360937     -0.00000796
AIVX     1  Mu1.0001  In1.026 Se1.041               0.23691685     -0.00049197      0.00080627     -0.00000040
AIVX     1  Mu1.0001  In1.027 Se1.041               0.22289039      0.00168274     -0.00259847     -0.00000437
AIVX     1  Mu1.0001  In1.028 Se1.041               0.21951587     -0.00110002      0.00172261     -0.00000189
AIVX     1  Mu1.0001  In1.029 Se1.041               0.20707742      0.00058226     -0.00094391     -0.00000055
AIVX     1  Mu1.0001  In1.023 Se1.042               0.28316363     -0.00163398      0.00232429     -0.00000380
AIVX     1  Mu1.0001  In1.024 Se1.042               0.29956044     -0.00141791      0.00266906     -0.00000378
AIVX     1  Mu1.0001  In1.025 Se1.042               0.25209383      0.00400174     -0.00662556     -0.00002651
AIVX     1  Mu1.0001  In1.026 Se1.042               0.25041182      0.00200926     -0.00332919     -0.00000669
AIVX     1  Mu1.0001  In1.027 Se1.042               0.23638536     -0.00087854      0.00174701     -0.00000153
AIVX     1  Mu1.0001  In1.028 Se1.042               0.23301083      0.00095619     -0.00166083     -0.00000159
AIVX     1  Mu1.0001  In1.029 Se1.042               0.22057239      0.00005911     -0.00003122     -0.00000000
AIVX     1  Mu1.0001  In1.023 Se1.043               0.29761659      0.00030886     -0.00030969     -0.00000010
AIVX     1  Mu1.0001  In1.025 Se1.043               0.26654680     -0.00491529      0.00804023     -0.00003952
AIVX     1  Mu1.0001  In1.026 Se1.043               0.26486478      0.00056067     -0.00086029     -0.00000048
AIVX     1  Mu1.0001  In1.027 Se1.043               0.25083832     -0.00036412      0.00038159     -0.00000014
AIVX     1  Mu1.0001  In1.028 Se1.043               0.24746380      0.00082714     -0.00108280     -0.00000090
AIVX     1  Mu1.0001  In1.029 Se1.043               0.23502535      0.00003734     -0.00019381     -0.00000001
AIVX     1  Mu1.0001  In1.025 Se1.044               0.26937278      0.00464985     -0.00754396     -0.00003508
AIVX     1  Mu1.0001  In1.026 Se1.044               0.26769076      0.00036433     -0.00070628     -0.00000026
AIVX     1  Mu1.0001  In1.027 Se1.044               0.25366430      0.00078620     -0.00146255     -0.00000115
AIVX     1  Mu1.0001  In1.028 Se1.044               0.25028978      0.00068239     -0.00110172     -0.00000075
AIVX     1  Mu1.0001  In1.029 Se1.044               0.23785133      0.00021330     -0.00040124     -0.00000009
AIVX     1  Mu1.0001  In1.025 Se1.045               0.28380661      0.00121399     -0.00232292     -0.00000282
AIVX     1  Mu1.0001  In1.026 Se1.045               0.28212459      0.00040431     -0.00060444     -0.00000024
AIVX     1  Mu1.0001  In1.027 Se1.045               0.26809813      0.00180613     -0.00235755     -0.00000426
AIVX     1  Mu1.0001  In1.028 Se1.045               0.26472361     -0.00203417      0.00246927     -0.00000502
AIVX     1  Mu1.0001  In1.029 Se1.045               0.25228516      0.00215898     -0.00352323     -0.00000761
AIVX     1  Mu1.0001  In1.025 Se1.046               0.29508835      0.00042332     -0.00071835     -0.00000030
AIVX     1  Mu1.0001  In1.026 Se1.046               0.29340633     -0.00153758      0.00243853     -0.00000375
AIVX     1  Mu1.0001  In1.027 Se1.046               0.27937987     -0.00111189      0.00180794     -0.00000201
AIVX     1  Mu1.0001  In1.028 Se1.046               0.27600535      0.00117839     -0.00208314     -0.00000245
AIVX     1  Mu1.0001  In1.029 Se1.046               0.26356690      0.00064517     -0.00108953     -0.00000070
AIVX     1  Mu1.0001  In1.027 Se1.047               0.28662386      0.00045260     -0.00010738     -0.00000005
AIVX     1  Mu1.0001  In1.028 Se1.047               0.28324933     -0.00109561      0.00116425     -0.00000128
AIVX     1  Mu1.0001  In1.029 Se1.047               0.27081089     -0.00027375      0.00049076     -0.00000013
--
 
   (Skipping property calculation,
    use PROP keyword to activate)
--
 
  Total CASPT2 energies:
::    CASPT2 Root  1     Total energy:   -455.37354255
::    CASPT2 Root  2     Total energy:   -455.15476959
::    CASPT2 Root  3     Total energy:   -455.16174805
::    CASPT2 Root  4     Total energy:   -455.12522905
::    CASPT2 Root  5     Total energy:   -455.10563804
::    CASPT2 Root  6     Total energy:   -455.09931788
::    CASPT2 Root  7     Total energy:   -455.12170962
 
++ Multi-State CASPT2 section:
********************************************************************************
  MULTI-STATE CASPT2 SECTION
--------------------------------------------------------------------------------
 
  Output diagonal energies have been shifted. Add   -455.000000000000     
 
  Effective Hamiltonian matrix (Symmetric):
 
                1               2               3               4               5
   1        -0.37354255
   2         0.00016627     -0.15476959
   3         0.00048402     -0.00040349     -0.16174805
   4        -0.01114387      0.00072985     -0.00130599     -0.12522905
   5         0.01007274      0.00036612      0.00133364      0.01454647     -0.10563804
   6         0.01214180     -0.00039346      0.00061191     -0.00525526      0.00183930
   7         0.01938860     -0.00048264     -0.00018220      0.00564838     -0.00862044
 
                6               7
   6        -0.09931788
   7        -0.01783682     -0.12170962
 
       Total MS-CASPT2 energies:
::    MS-CASPT2 Root  1     Total energy:   -455.37666525
::    MS-CASPT2 Root  2     Total energy:   -455.16188749
::    MS-CASPT2 Root  3     Total energy:   -455.15478437
::    MS-CASPT2 Root  4     Total energy:   -455.13614980
::    MS-CASPT2 Root  5     Total energy:   -455.12773210
::    MS-CASPT2 Root  6     Total energy:   -455.09753263
::    MS-CASPT2 Root  7     Total energy:   -455.08720314
 
       Eigenvectors:
            0.99355044     -0.00344925      0.00517935      0.10028220      0.05068747
           -0.00109536      0.05235262      0.99789610     -0.03511699     -0.00713950
           -0.00162707      0.99662677     -0.05036084      0.06023924     -0.01820392
            0.04727672      0.04905559     -0.03025372     -0.70623447      0.50510467
           -0.04171786     -0.03752164      0.00559686      0.44466136     -0.13051332
           -0.04755290     -0.00669042      0.01112576      0.09835221      0.50895567
           -0.08134449     -0.01110432      0.02387354      0.52812641      0.68253066
 
           -0.00011450      0.01389404
            0.01327060     -0.00104838
            0.00583493      0.01421372
            0.48043080     -0.09864872
            0.84957453      0.24553227
           -0.21479166      0.82627217
           -0.03261516     -0.49685055
 
--
 
  THE ORIGINAL CI ARRAYS ARE NOW MIXED AS LINEAR
  COMBINATIONS, GIVEN BY THE EIGENVECTORS.
  A NEW JOBIPH FILE NAMED 'JOBMIX' IS PREPARED.
********************************************************************************
 
++ Mixed CI coefficients:
  The CI coefficients for the MIXED state nr.   1
--------------------------------------------------------------------------------
 CI COEFFICIENTS LARGER THAN  0.50D-01
  Occupation of active orbitals, and spin coupling
  of open shells. (u,d: Spin up or down).
  SGUGA info is (Midvert:IsyUp:UpperWalk/LowerWalk)
        Conf  SGUGA info        Occupation    Coefficient         Weight
           1  ( 1:1:   1/   1)   22222200        0.968289       0.937583
           4  ( 1:1:   4/   1)   22222020       -0.113571       0.012898
          61  ( 2:1:   1/   3)   2u2222d0       -0.092150       0.008492
          84  ( 2:1:   4/   4)   u222220d       -0.123057       0.015143
         105  ( 3:1:   5/   1)   22202202       -0.079153       0.006265
         171  ( 3:1:   1/   8)   20222220       -0.080509       0.006482
         195  ( 3:1:   5/  10)   02222202       -0.077025       0.005933
 
  The CI coefficients for the MIXED state nr.   2
--------------------------------------------------------------------------------
 CI COEFFICIENTS LARGER THAN  0.50D-01
  Occupation of active orbitals, and spin coupling
  of open shells. (u,d: Spin up or down).
  SGUGA info is (Midvert:IsyUp:UpperWalk/LowerWalk)
        Conf  SGUGA info        Occupation    Coefficient         Weight
           7  ( 1:1:   7/   1)   22222u0d        0.154628       0.023910
           8  ( 1:1:   8/   1)   2222u20d       -0.095685       0.009156
          24  ( 2:1:   4/   1)   222u220d       -0.062956       0.003963
          44  ( 2:1:   4/   2)   22u2220d       -0.934933       0.874100
          45  ( 2:1:   5/   2)   22u22dud       -0.070643       0.004991
          47  ( 2:1:   7/   2)   22u22udd       -0.117661       0.013844
          49  ( 2:1:   9/   2)   22u2202d        0.087100       0.007586
         115  ( 3:1:   5/   2)   22ud2202        0.151802       0.023044
         165  ( 3:1:   5/   7)   u2d22202       -0.112442       0.012643
         219  ( 4:1:   1/   4)   2uu222dd       -0.067451       0.004550
         220  ( 4:1:   2/   4)   2uu22d2d        0.052013       0.002705
         293  ( 5:1:   1/  15)   20u2222d       -0.090878       0.008259
 
  The CI coefficients for the MIXED state nr.   3
--------------------------------------------------------------------------------
 CI COEFFICIENTS LARGER THAN  0.50D-01
  Occupation of active orbitals, and spin coupling
  of open shells. (u,d: Spin up or down).
  SGUGA info is (Midvert:IsyUp:UpperWalk/LowerWalk)
        Conf  SGUGA info        Occupation    Coefficient         Weight
           2  ( 1:1:   2/   1)   22222ud0        0.055375       0.003066
           3  ( 1:1:   3/   1)   2222u2d0        0.957810       0.917400
           5  ( 1:1:   5/   1)   2222ud20       -0.129708       0.016824
          63  ( 2:1:   3/   3)   2u22d220        0.157564       0.024826
          86  ( 2:1:   6/   4)   u222d2ud       -0.064671       0.004182
          88  ( 2:1:   8/   4)   u222u2dd       -0.108724       0.011821
         107  ( 3:1:   7/   1)   2220u2d2       -0.078579       0.006175
         197  ( 3:1:   7/  10)   0222u2d2       -0.077689       0.006036
 
  The CI coefficients for the MIXED state nr.   4
--------------------------------------------------------------------------------
 CI COEFFICIENTS LARGER THAN  0.50D-01
  Occupation of active orbitals, and spin coupling
  of open shells. (u,d: Spin up or down).
  SGUGA info is (Midvert:IsyUp:UpperWalk/LowerWalk)
        Conf  SGUGA info        Occupation    Coefficient         Weight
           2  ( 1:1:   2/   1)   22222ud0        0.753425       0.567649
           3  ( 1:1:   3/   1)   2222u2d0       -0.053336       0.002845
           4  ( 1:1:   4/   1)   22222020        0.133315       0.017773
           7  ( 1:1:   7/   1)   22222u0d        0.073182       0.005356
          24  ( 2:1:   4/   1)   222u220d        0.539472       0.291030
          29  ( 2:1:   9/   1)   222u202d       -0.057090       0.003259
          62  ( 2:1:   2/   3)   2u222d20        0.208459       0.043455
          85  ( 2:1:   5/   4)   u2222dud       -0.051527       0.002655
          87  ( 2:1:   7/   4)   u2222udd       -0.085758       0.007354
         106  ( 3:1:   6/   1)   22202ud2       -0.056470       0.003189
         135  ( 3:1:   5/   4)   u22d2202        0.125858       0.015840
         171  ( 3:1:   1/   8)   20222220       -0.078333       0.006136
         196  ( 3:1:   6/  10)   02222ud2       -0.064476       0.004157
         207  ( 4:1:   1/   2)   2u2u22dd        0.058819       0.003460
         261  ( 5:1:   1/   7)   202u222d        0.051518       0.002654
 
  The CI coefficients for the MIXED state nr.   5
--------------------------------------------------------------------------------
 CI COEFFICIENTS LARGER THAN  0.50D-01
  Occupation of active orbitals, and spin coupling
  of open shells. (u,d: Spin up or down).
  SGUGA info is (Midvert:IsyUp:UpperWalk/LowerWalk)
        Conf  SGUGA info        Occupation    Coefficient         Weight
           2  ( 1:1:   2/   1)   22222ud0        0.539052       0.290577
           4  ( 1:1:   4/   1)   22222020        0.074890       0.005609
           7  ( 1:1:   7/   1)   22222u0d       -0.155129       0.024065
           8  ( 1:1:   8/   1)   2222u20d       -0.109763       0.012048
          24  ( 2:1:   4/   1)   222u220d       -0.748409       0.560115
          27  ( 2:1:   7/   1)   222u2udd       -0.071469       0.005108
          29  ( 2:1:   9/   1)   222u202d        0.079424       0.006308
          62  ( 2:1:   2/   3)   2u222d20        0.154423       0.023847
          87  ( 2:1:   7/   4)   u2222udd       -0.060130       0.003616
         106  ( 3:1:   6/   1)   22202ud2       -0.053951       0.002911
         135  ( 3:1:   5/   4)   u22d2202       -0.175407       0.030768
         171  ( 3:1:   1/   8)   20222220       -0.053795       0.002894
         207  ( 4:1:   1/   2)   2u2u22dd       -0.063928       0.004087
         261  ( 5:1:   1/   7)   202u222d       -0.068158       0.004646
 
  The CI coefficients for the MIXED state nr.   6
--------------------------------------------------------------------------------
 CI COEFFICIENTS LARGER THAN  0.50D-01
  Occupation of active orbitals, and spin coupling
  of open shells. (u,d: Spin up or down).
  SGUGA info is (Midvert:IsyUp:UpperWalk/LowerWalk)
        Conf  SGUGA info        Occupation    Coefficient         Weight
           7  ( 1:1:   7/   1)   22222u0d       -0.905214       0.819412
           8  ( 1:1:   8/   1)   2222u20d       -0.181210       0.032837
          12  ( 1:1:  12/   1)   2222uudd        0.053756       0.002890
          24  ( 2:1:   4/   1)   222u220d        0.176192       0.031044
          25  ( 2:1:   5/   1)   222u2dud        0.076369       0.005832
          44  ( 2:1:   4/   2)   22u2220d       -0.141998       0.020163
          65  ( 2:1:   5/   3)   2u222dud       -0.150153       0.022546
          67  ( 2:1:   7/   3)   2u222udd       -0.168737       0.028472
          93  ( 2:1:  13/   4)   u2222d02       -0.073639       0.005423
         173  ( 3:1:   3/   8)   20222u2d       -0.122543       0.015017
 
  The CI coefficients for the MIXED state nr.   7
--------------------------------------------------------------------------------
 CI COEFFICIENTS LARGER THAN  0.50D-01
  Occupation of active orbitals, and spin coupling
  of open shells. (u,d: Spin up or down).
  SGUGA info is (Midvert:IsyUp:UpperWalk/LowerWalk)
        Conf  SGUGA info        Occupation    Coefficient         Weight
           7  ( 1:1:   7/   1)   22222u0d       -0.188976       0.035712
           8  ( 1:1:   8/   1)   2222u20d        0.896193       0.803162
          10  ( 1:1:  10/   1)   2222udud       -0.180015       0.032405
          12  ( 1:1:  12/   1)   2222uudd       -0.267127       0.071357
          24  ( 2:1:   4/   1)   222u220d       -0.082087       0.006738
          44  ( 2:1:   4/   2)   22u2220d       -0.114522       0.013115
          71  ( 2:1:  11/   3)   2u22ud2d        0.070876       0.005023
          94  ( 2:1:  14/   4)   u222d202        0.070400       0.004956
         174  ( 3:1:   4/   8)   2022u22d        0.080946       0.006552
 
--
 
--- Stop Module: caspt2 at Tue Jun 10 21:00:33 2025 /rc=_RC_ALL_IS_WELL_ ---
*** files: xmldump
    saved to directory /home/pcaah4/diamide_project
--- Module caspt2 spent 6 minutes 55 seconds ---

.##################.
.# Happy landing! #.
.##################.

    Timing: Wall=682.48 User=593.44 System=79.03
******************************************************
*** WorkDir at /srv/COMMUNAL_SCRATCH/12459 cleaned ***
******************************************************
