   This run of MOLCAS is using the pymolcas driver

                             OPE
                             OPE          NMOL  CASOP  ENMOLC A   SO
                 OPE        NMOLC        AS  OP EN  MO LC     AS  OP
                OPENM       OL CA        SO  PE NM  OL CA     SOP EN
                OP EN      MO   LC       AS  OP ENMOL  CASO   PENMOL
                OP  EN     MO   LC       AS  OP EN     MO     LC ASO
               OP   E  NMOL  C  AS       OP  EN MO     LC     AS  OP
               OP  E   NMO   LC AS        OPEN  MO     LCASOP EN   M
               O  PEN   MO  LCA  SO
            OPE   NMO   L   CAS    OP
        OPENMOL  CASOP     ENMOL   CASOPE
     OPENMOLCA   SOPENMOLCASOPEN   MOLCASOPE
    OPENMOLCAS   OP           EN   MOL    CAS
    OPENMOLCAS       OP  ENM        O     LCA
    OPENMOLCAS    OPEN  MOLCASO     P  E  NMO
    OPENMOLCAS     OP               E  N  MOL
    OPENMOLCA   SO           PENM   O  L  CAS    OPEN    MO    LCAS
    OPENMOLCA   SOP           ENM   O  L  CAS   OP  EN  MOLC  AS   O
    OPENMOLCA   SOPE           NM      O  LCA   S      OP  EN MO
    OPENMOLC                AS         O  PEN   M      OL  CA  SOPE
    OPENMO        LCASOPE  NMOL        C  ASO   P      ENMOLC     AS
    OPE     NMO      LCA  SO     P     E   NM   OL  CA SO  PE N   MO
          OPENMOLCA            SOPE   NMO        LCAS  O    P  ENMO
     OPENMOLCASOPENMOLCASOPENMOLCASOPENMOLCA
        OPENMOLCASOPENMOLCASOPENMOLCASOPE
            OPENMOLCASOPENMOLCASOPENM
               OPENMOLCASOPENMOLCA        version: v23.06
                   OPENMOLCASO
                       OPE                tag:

 OpenMolcas is free software; you can redistribute it and/or modify it
 under the terms of the GNU Lesser General Public License version 2.1.
 OpenMolcas is distributed in the hope that it will be useful, but it
 is provided "as is" and without any express or implied warranties.
 For more details see the full text of the license in the file
 LICENSE or in <http://www.gnu.org/licenses/>.

                 Copyright (C) The OpenMolcas Authors
           For the author list and the recommended citation,
                   consult the file CONTRIBUTORS.md

           *************************************************
           * pymolcas version py2.24                       *
           *   build 4567b286dd94b1984b333a4ddf893180      *
           *   (after the EMIL interpreter by V. Veryazov) *
           *************************************************

configuration info
------------------
Host name: loginchem01.nottingham.ac.uk (Linux)
C Compiler ID: Intel
C flags: -std=gnu99 -gcc-sys -qopenmp
Fortran Compiler ID: Intel
Fortran flags: -fpp -i8 -heap-arrays -qopenmp
Definitions: _MOLCAS_;_I8_;_LINUX_
Parallel: OFF (GA=OFF)


   --------------------------------------------------------------------------------------------------
  |
  |              Project: orca_geometry_optimisation_60_30_BP86_def2-SVP_def2J_scf_cas1_ras12i11_cas8
  |       Submitted from: /home/pcaah4/diamide_project
  |         Scratch area: /srv/COMMUNAL_SCRATCH/12505
  |      Save outputs to: /home/pcaah4/diamide_project
  |               Molcas: /software/chemistry/openmolcas/openmolcas-23.06-openmp
  |
  | Scratch area is empty
  |
  |       MOLCAS_DRIVER = /software/chemistry/openmolcas/openmolcas-23.06-openmp/sbin/pymolcas
  | MOLCAS_KEEP_WORKDIR = NO
  |       MOLCAS_NPROCS = 1
  |       MOLCAS_SOURCE = /software/chemistry/openmolcas/openmolcas-23.06-openmp
  |    MOLCAS_STRUCTURE = 0
  |
   --------------------------------------------------------------------------------------------------

++ ---------   Input file   ---------

&SEWARD
TITLE
orca_geometry_optimisation_60_30_BP86_def2-SVP_def2J_scf_cas1_ras12i11
MULTIPOLES
2
SDIPOLE
ANGMOM
0 0 0
BASIS SET
C.ANO-S...4S3P1D.
C1           -0.090247   -0.074994   -0.002280 /Angstrom
C3            2.051089    1.167469    0.095796 /Angstrom
C4            1.799753    2.049342    1.339681 /Angstrom
C6            1.114511    2.042302    3.711578 /Angstrom
C19          -0.738466   -1.442989   -0.197775 /Angstrom
END OF BASIS
BASIS SET
N.ANO-S...4S3P1D.
N2            1.292836   -0.073424    0.018517 /Angstrom
N5            1.448259    1.366364    2.473468 /Angstrom
END OF BASIS
BASIS SET
O.ANO-S...4S3P1D.
O7           -0.739883    0.959618    0.113698 /Angstrom
O8            2.007287    3.258263    1.292343 /Angstrom
END OF BASIS
BASIS SET
H.ANO-S...2S1P.
H9           -1.128555   -1.511033   -1.234194 /Angstrom
H10          -1.608363   -1.522614    0.481578 /Angstrom
H11          -0.055077   -2.297506   -0.022043 /Angstrom
H12           1.791803   -0.945939   -0.159386 /Angstrom
H13           3.131266    0.918433    0.067135 /Angstrom
H14           1.837249    1.828819   -0.770220 /Angstrom
H15           1.216935    0.377473    2.362945 /Angstrom
H16           1.400430    3.104736    3.591262 /Angstrom
H17           0.025956    1.991842    3.931562 /Angstrom
H18           1.670787    1.613552    4.571806 /Angstrom
END OF BASIS
END OF INPUT

&RASSCF
TITLE
orca_geometry_optimisation_60_30_BP86_def2-SVP_def2J_scf_cas1_ras12i11
LUMORB
SPIN
1
SYMMETRY
1
NACTEL
12  0  0
INACTIVE
29
DELETED  ! delete Rydberg orbitals from an initial CAS(12,11) if done
3
FROZEN
0
RAS2
8
ITERATIONS
64 25
CIROOT
7 7
1 2 3 4 5 6 7
1 1 1 1 1 1 1
LEVSHFT
0.3
CIMX
20
FILEorb = /home/pcaah4/diamide_project/cas/ras12i11/ras_orb/orca_geometry_optimisation_60_30_BP86_def2-SVP_def2J_scf_cas1_ras12i11.RasOrb
ALTEr
0
END OF INPUT

&RASSI
NROF JOBIPH
    1 7
    1 2 3 5 4 6 7
TOFILE
TRDI
TDMN
1.0D-6
END OF INPUT

&CASPT2
TITLE
orca_geometry_optimisation_60_30_BP86_def2-SVP_def2J_scf_cas1_ras12i11
MULTISTATE
7 1 2 3 4 5 6 7
SHIFT
0.35
MAXITER
50
END OF INPUT

-- ----------------------------------

--- Start Module: seward at Tue Jun 10 22:38:26 2025 ---
 
()()()()()()()()()()()()()()()()()()()()()()()()()()()()()()()()()()()()()()()()()()()()()()()()()()

                                              &SEWARD

                                   only a single process is used
                       available to each process: 2.0 GB of memory, 1 thread
                                            pid: 3143947
()()()()()()()()()()()()()()()()()()()()()()()()()()()()()()()()()()()()()()()()()()()()()()()()()()
 
               SEWARD will generate:
                  Multipole Moment integrals up to order  2
                  Kinetic Energy integrals
                  Nuclear Attraction integrals (point charge)
                  One-Electron Hamiltonian integrals
                  Velocity integrals
                  Orbital angular momentum around ( 0.0000  0.0000  0.0000 )
                  Velocity quadrupole around ( 1.6946  1.9475  1.8838 )
                  Two-Electron Repulsion integrals
 
 Title:
             orca_geometry_optimisation_60_30_BP86_def2-SVP_def2J_scf_cas1_ras12i11     
 
 
                   Integrals are discarded if absolute value <: 0.10E-13
                   Integral cutoff threshold is set to       <: 0.10E-15
 
++    Symmetry information:
      ---------------------
 
                    Character Table for C1 
 
                             E  
                    a        1  x, y, xy, Rz, z, xz, Ry, yz, Rx, I
--
 
 
++    Basis set information:
      ----------------------
 
 
      Basis set label: C.ANO-S...4S3P1D......
 
      Electronic valence basis set:
      ------------------
      Associated Effective Charge   6.000000 au
      Associated Actual Charge      6.000000 au
      Nuclear Model: Point charge
 
      Shell  nPrim  nBasis  Cartesian Spherical Contaminant
         s      10       4        X                  
         p       6       3        X                  
         d       3       1                 X         
 
 
      Basis set label: N.ANO-S...4S3P1D......
 
      Electronic valence basis set:
      ------------------
      Associated Effective Charge   7.000000 au
      Associated Actual Charge      7.000000 au
      Nuclear Model: Point charge
 
      Shell  nPrim  nBasis  Cartesian Spherical Contaminant
         s      10       4        X                  
         p       6       3        X                  
         d       3       1                 X         
 
 
      Basis set label: O.ANO-S...4S3P1D......
 
      Electronic valence basis set:
      ------------------
      Associated Effective Charge   8.000000 au
      Associated Actual Charge      8.000000 au
      Nuclear Model: Point charge
 
      Shell  nPrim  nBasis  Cartesian Spherical Contaminant
         s      10       4        X                  
         p       6       3        X                  
         d       3       1                 X         
 
 
      Basis set label: H.ANO-S...2S1P......
 
      Electronic valence basis set:
      ------------------
      Associated Effective Charge   1.000000 au
      Associated Actual Charge      1.000000 au
      Nuclear Model: Point charge
 
      Shell  nPrim  nBasis  Cartesian Spherical Contaminant
         s       7       2        X                  
         p       3       1        X                  
--
 
 
++    Molecular structure info:
      -------------------------
 
                    ************************************************ 
                    **** Cartesian Coordinates / Bohr, Angstrom **** 
                    ************************************************ 
 
     Center  Label                x              y              z                     x              y              z
        1      C1              -0.170542      -0.141718      -0.004309             -0.090247      -0.074994      -0.002280
        2      C3               3.875996       2.206197       0.181028              2.051089       1.167469       0.095796
        3      C4               3.401040       3.872695       2.531630              1.799753       2.049342       1.339681
        4      C6               2.106121       3.859391       7.013866              1.114511       2.042302       3.711578
        5      C19             -1.395498      -2.726854      -0.373741             -0.738466      -1.442989      -0.197775
        6      N2               2.443106      -0.138751       0.034992              1.292836      -0.073424       0.018517
        7      N5               2.736813       2.582054       4.674177              1.448259       1.366364       2.473468
        8      O7              -1.398176       1.813415       0.214858             -0.739883       0.959618       0.113698
        9      O8               3.793223       6.157225       2.442174              2.007287       3.258263       1.292343
       10      H9              -2.132660      -2.855439      -2.332289             -1.128555      -1.511033      -1.234194
       11      H10             -3.039366      -2.877323       0.910051             -1.608363      -1.522614       0.481578
       12      H11             -0.104080      -4.341657      -0.041655             -0.055077      -2.297506      -0.022043
       13      H12              3.386017      -1.787566      -0.301196              1.791803      -0.945939      -0.159386
       14      H13              5.917235       1.735587       0.126867              3.131266       0.918433       0.067135
       15      H14              3.471897       3.455967      -1.455505              1.837249       1.828819      -0.770220
       16      H15              2.299674       0.713321       4.465319              1.216935       0.377473       2.362945
       17      H16              2.646429       5.867101       6.786502              1.400430       3.104736       3.591262
       18      H17              0.049050       3.764036       7.429575              0.025956       1.991842       3.931562
       19      H18              3.157330       3.049171       8.639461              1.670787       1.613552       4.571806
 
                    ************************************************* 
                    **** InterNuclear Distances / Bohr, Angstrom **** 
                    ************************************************* 
 
     Atom centers         Bohr        Angstrom
   13 H12       6 N2      1.928910        1.020735
   16 H15       7 N5      1.930512        1.021583
   11 H10       5 C19     2.091186        1.106608
   17 H16       4 C6      2.091536        1.106793
   12 H11       5 C19     2.094190        1.108197
   14 H13       2 C3      2.095486        1.108884
   10 H9        5 C19     2.096629        1.109488
   15 H14       2 C3      2.098443        1.110448
   19 H18       4 C6      2.098585        1.110523
   18 H17       4 C6      2.100821        1.111706
    8 O7        1 C1      2.318979        1.227151
    9 O8        3 C4      2.319673        1.227518
    7 N5        3 C4      2.587945        1.369482
    6 N2        1 C1      2.613945        1.383240
    7 N5        4 C6      2.739253        1.449550
    6 N2        2 C3      2.751960        1.456274
    5 C19       1 C1      2.884428        1.526374
    3 C4        2 C3      2.920296        1.545354
   11 H10      10 H9      3.366802        1.781635
   15 H14      14 H13     3.382792        1.790097
   12 H11      10 H9      3.401615        1.800057
   18 H17      17 H16     3.403352        1.800976
   19 H18      17 H16     3.411042        1.805045
   19 H18      18 H17     3.411196        1.805127
   12 H11      11 H10     3.415540        1.807426
   16 H15       3 C4      3.864428        2.044967
   17 H16       7 N5      3.906612        2.067290
   13 H12       1 C1      3.930149        2.079745
   14 H13       6 N2      3.948564        2.089490
   15 H14       3 C4      4.009480        2.121725
   19 H18       7 N5      4.014787        2.124534
   15 H14       6 N2      4.025170        2.130028
   18 H17       7 N5      4.026583        2.130776
   13 H12       2 C3      4.052500        2.144491
   16 H15       4 C6      4.053433        2.144984
   11 H10       1 C1      4.068137        2.152765
   10 H9        1 C1      4.078440        2.158218
   14 H13       3 C4      4.084282        2.161309
   12 H11       1 C1      4.200631        2.222878
    8 O7        6 N2      4.312627        2.282144
   13 H12      12 H11     4.332612        2.292719
    9 O8        7 N5      4.345076        2.299315
   14 H13      13 H12     4.359232        2.306806
   17 H16       9 O8      4.502498        2.382619
   16 H15       6 N2      4.513801        2.388600
    9 O8        2 C3      4.553049        2.409370
    8 O7        5 C19     4.578264        2.422713
    6 N2        5 C19     4.647604        2.459406
    7 N5        2 C3      4.650526        2.460953
    4 C6        3 C4      4.665558        2.468907
    2 C3        1 C1      4.682043        2.477631
   15 H14       9 O8      4.753099        2.515231
   17 H16       3 C4      4.759309        2.518518
   16 H15       2 C3      4.802980        2.541628
   18 H17      16 H15     4.812379        2.546601
    6 N2        3 C4      4.821052        2.551191
   19 H18      16 H15     4.859551        2.571564
   13 H12       5 C19     4.873440        2.578913
   12 H11       6 N2      4.915125        2.600972
   11 H10       8 O7      5.017950        2.655385
   16 H15       1 C1      5.177898        2.740026
    8 O7        2 C3      5.288886        2.798758
   15 H14       1 C1      5.321341        2.815933
   10 H9        8 O7      5.368949        2.841126
   15 H14      13 H12     5.369771        2.841560
    7 N5        6 N2      5.386194        2.850251
    9 O8        4 C6      5.387645        2.851019
   15 H14       8 O7      5.404230        2.859796
   14 H13       9 O8      5.424293        2.870412
   16 H15      13 H12     5.491287        2.905864
   14 H13       7 N5      5.613343        2.970453
   17 H16      16 H15     5.663001        2.996731
--
 
 
            Nuclear Potential Energy            463.92182555 au
 
 
      Basis set specifications :
      Symmetry species         a  
      Basis functions          212
 
 
      Input file to MOLDEN was generated!
 
--- Stop Module: seward at Tue Jun 10 22:40:17 2025 /rc=_RC_ALL_IS_WELL_ ---
*** files: orca_geometry_optimisation_60_30_BP86_def2-SVP_def2J_scf_cas1_ras12i11_cas8.GssOrb
           orca_geometry_optimisation_60_30_BP86_def2-SVP_def2J_scf_cas1_ras12i11_cas8.guessorb.molden xmldump
    saved to directory /home/pcaah4/diamide_project
--- Module seward spent 1 minute 51 seconds ---

*** symbolic link created: INPORB -> orca_geometry_optimisation_60_30_BP86_def2-SVP_def2J_scf_cas1_ras12i11_cas8.GssOrb
--- Start Module: rasscf at Tue Jun 10 22:40:18 2025 ---
 
()()()()()()()()()()()()()()()()()()()()()()()()()()()()()()()()()()()()()()()()()()()()()()()()()()

                                              &RASSCF

                                   only a single process is used
                       available to each process: 2.0 GB of memory, 1 thread
                                            pid: 3143995
()()()()()()()()()()()()()()()()()()()()()()()()()()()()()()()()()()()()()()()()()()()()()()()()()()
 
 
      Header of the ONEINT file:
      --------------------------
      orca_geometry_optimisation_60_30_BP86_def2-SVP_def2J_scf_cas1_ras12i11
      Integrals generated by Gateway/Seward, Tue Jun 10 22:38:27 2025
 
 
      OrdInt status: non-squared
 
 
      Cartesian coordinates in Angstrom:
      -----------------------------------------------------
      No.  Label        X            Y            Z        
      -----------------------------------------------------
       1   C1        -0.09024700  -0.07499400  -0.00228000
       2   C3         2.05108900   1.16746900   0.09579600
       3   C4         1.79975300   2.04934200   1.33968100
       4   C6         1.11451100   2.04230200   3.71157800
       5   C19       -0.73846600  -1.44298900  -0.19777500
       6   N2         1.29283600  -0.07342400   0.01851700
       7   N5         1.44825900   1.36636400   2.47346800
       8   O7        -0.73988300   0.95961800   0.11369800
       9   O8         2.00728700   3.25826300   1.29234300
      10   H9        -1.12855500  -1.51103300  -1.23419400
      11   H10       -1.60836300  -1.52261400   0.48157800
      12   H11       -0.05507700  -2.29750600  -0.02204300
      13   H12        1.79180300  -0.94593900  -0.15938600
      14   H13        3.13126600   0.91843300   0.06713500
      15   H14        1.83724900   1.82881900  -0.77022000
      16   H15        1.21693500   0.37747300   2.36294500
      17   H16        1.40043000   3.10473600   3.59126200
      18   H17        0.02595600   1.99184200   3.93156200
      19   H18        1.67078700   1.61355200   4.57180600
      -----------------------------------------------------
      Nuclear repulsion energy =  463.92182555
 
++    Wave function specifications:
      -----------------------------
 
      Number of closed shell electrons          58
      Number of electrons in active shells      12
      Max number of holes in RAS1 space          0
      Max nr of electrons in RAS3 space          0
      Number of inactive orbitals               29
      Number of active orbitals                  8
      Number of secondary orbitals             172
      Spin quantum number                      0.0
      State symmetry                             1
--
 
++    Orbital specifications:
      -----------------------
 
      Symmetry species                           1
                                                 a
      Frozen orbitals                            0
      Inactive orbitals                         29
      Active orbitals                            8
      RAS1 orbitals                              0
      RAS2 orbitals                              8
      RAS3 orbitals                              0
      Secondary orbitals                       172
      Deleted orbitals                           3
      Number of basis functions                212
--
 
++    CI expansion specifications:
      ----------------------------
 
      Number of CSFs                           336
      Number of determinants                   406
      Number of root(s) required                 7
      Root chosen for geometry opt.              7
      CI roots used                              1     2     3     4     5     6     7
      weights                                0.143 0.143 0.143 0.143 0.143 0.143 0.143
      highest root included in the CI            7
      max. size of the explicit Hamiltonian    200
--
 
++    Optimization specifications:
      ----------------------------
 
      RASSCF algorithm: Conventional
      Maximum number of macro iterations        64
      Maximum number of SX iterations           25
      Threshold for RASSCF energy            0.100E-07
      Threshold for max MO rotation          0.100E+00
      Threshold for max BLB element          0.100E-03
      Level shift parameter                  0.300E+00
      Make Quasi-Newton update
--
 
      The MO-coefficients are taken from the file:
      /home/pcaah4/diamide_project/cas/ras12i11/ras_orb/orca_geometry_optimisation_60_30_BP86_def2-SVP_def2J_scf_cas1_ras12i11.RasOrb                                                                                                                                 
      Title: RASSCF average (pseudo-natural) orbitals                                      
 
      Total molecular charge    0.00
 
      ************************************************************************************************************************
      *                                                                                                                      *
      *                                            Wave function control section                                             *
      *                                                                                                                      *
      ************************************************************************************************************************
 
 
                                         RASSCF iterations: Energy and convergence statistics
                                         ----------------------------------------------------
 
      Iter CI   SX   CI       RASSCF       Energy    max ROT     max BLB   max BLB  Level Ln srch  Step   QN   Walltime
          iter iter root      energy       change     param      element    value   shift minimum  type update hh:mm:ss
 Nr of preliminary CI iterations:   4
        1   1   17    0  -453.68918516    0.00E+00   0.53E-01   24  72 1 -0.16E-01*  0.15   0.00    SX    NO    0:00:13
        2   5   21    0  -453.70304842   -0.14E-01* -0.32E-01   33  39 1  0.70E-02*  0.13   0.00    SX    NO    0:00:07
        3   3   11    0  -453.70503199   -0.20E-02* -0.18E-01   24  72 1 -0.34E-02*  0.14   0.00    SX    NO    0:00:07
        4   7   11    0  -453.70603111   -0.10E-02* -0.10E-01   35  38 1 -0.19E-02*  0.14   0.00    SX    NO    0:00:06
        5   5   11    0  -453.70627336   -0.24E-03* -0.19E-01   35  38 1 -0.13E-02*  0.15   1.36    QN   YES    0:00:06
        6   6   10    0  -453.70645182   -0.18E-03* -0.25E-02   20  99 1 -0.13E-02*  0.15   0.84    QN   YES    0:00:06
        7   5    9    0  -453.70645562   -0.38E-05*  0.53E-03   20  99 1  0.13E-02*  0.15   0.48    SX   YES    0:00:06
        8   7    9    0  -453.70647324   -0.18E-04* -0.55E-03   32  40 1  0.57E-03*  0.15   0.79    QN   YES    0:00:07
        9   3    9    0  -453.70647508   -0.18E-05* -0.43E-03   20  99 1  0.24E-03*  0.15   0.85    QN   YES    0:00:06
       10   4    8    0  -453.70647584   -0.76E-06* -0.64E-03   32  40 1 -0.11E-03*  0.15   2.50    LS   YES    0:00:06
       11   4    9    0  -453.70647525    0.58E-06* -0.35E-03   32  40 1 -0.37E-03*  0.15   0.22    LS   YES    0:00:07
       12   5    8    0  -453.70647582   -0.57E-06* -0.26E-03   32  40 1 -0.23E-03*  0.15   1.41    QN   YES    0:00:07
       13   3    7    0  -453.70647611   -0.28E-06* -0.11E-03   32  40 1 -0.48E-04   0.15   1.25    QN   YES    0:00:06
       14   1    7    0  -453.70647614   -0.31E-07* -0.10E-03   32  40 1  0.22E-04   0.15   1.20    QN   YES    0:00:06
       15   3    6    0  -453.70647615   -0.14E-07* -0.63E-04   20  99 1 -0.55E-05   0.15   1.14    QN   YES    0:00:07
       16   1    5    0  -453.70647616   -0.32E-08  -0.16E-04   32  40 1  0.50E-05   0.15   1.15    QN   YES    0:00:06
      Convergence after 16 iterations
       17   1    5    0  -453.70647616   -0.40E-09  -0.16E-04   32  40 1 -0.83E-06   0.15   1.15    QN   YES    0:00:06
 
      ************************************************************************************************************************
                                                      Wave function printout:
                       occupation of active orbitals, and spin coupling of open shells (u,d: Spin up or down)
      ************************************************************************************************************************
 
      Note: transformation to natural orbitals
      has been made, which may change the order of the CSFs.
 
      printout of CI-coefficients larger than  0.05 for root  1
      energy=    -453.957749
      conf/sym  11111111     Coeff  Weight
             1  22222200  -0.95550 0.91298
             2  22222ud0  -0.11651 0.01357
             4  22222020   0.09170 0.00841
            41  22u222d0   0.09779 0.00956
            61  2u2222d0  -0.08490 0.00721
            62  2u222d20   0.06866 0.00471
            84  u222220d  -0.11059 0.01223
           105  22202202   0.08500 0.00722
           135  u22d2202  -0.06041 0.00365
           171  20222220   0.09039 0.00817
           195  02222202   0.07868 0.00619
 
      printout of CI-coefficients larger than  0.05 for root  2
      energy=    -453.745095
      conf/sym  11111111     Coeff  Weight
             3  2222u2d0  -0.92036 0.84706
             5  2222ud20   0.12299 0.01513
             8  2222u20d   0.06991 0.00489
            43  22u2d220   0.05955 0.00355
            44  22u2220d   0.24223 0.05868
            63  2u22d220   0.15707 0.02467
            86  u222d2ud  -0.05770 0.00333
            88  u222u2dd  -0.09509 0.00904
           107  2220u2d2   0.08363 0.00699
           137  u22du2d2  -0.05887 0.00347
           197  0222u2d2   0.07623 0.00581
 
      printout of CI-coefficients larger than  0.05 for root  3
      energy=    -453.744669
      conf/sym  11111111     Coeff  Weight
             3  2222u2d0   0.24814 0.06157
             7  22222u0d  -0.06552 0.00429
            24  222u220d  -0.06808 0.00464
            44  22u2220d   0.91009 0.82826
            45  22u22dud   0.05682 0.00323
            47  22u22udd   0.08371 0.00701
            49  22u2202d  -0.08956 0.00802
           115  22ud2202   0.16300 0.02657
           142  220222ud  -0.08226 0.00677
           165  u2d22202  -0.12513 0.01566
           219  2uu222dd  -0.08016 0.00643
           220  2uu22d2d   0.05434 0.00295
           293  20u2222d   0.08470 0.00717
 
      printout of CI-coefficients larger than  0.05 for root  4
      energy=    -453.642907
      conf/sym  11111111     Coeff  Weight
             7  22222u0d  -0.22849 0.05221
             8  2222u20d   0.48365 0.23392
            10  2222udud  -0.05919 0.00350
            12  2222uudd  -0.08264 0.00683
            24  222u220d   0.77026 0.59329
            25  222u2dud   0.05642 0.00318
            27  222u2udd   0.08965 0.00804
            29  222u202d  -0.07929 0.00629
            41  22u222d0   0.06936 0.00481
            48  22u2u2dd  -0.05154 0.00266
            84  u222220d   0.08148 0.00664
           135  u22d2202  -0.17899 0.03204
           195  02222202   0.05907 0.00349
           207  2u2u22dd  -0.07072 0.00500
           208  2u2u2d2d   0.05194 0.00270
           261  202u222d   0.07254 0.00526
 
      printout of CI-coefficients larger than  0.05 for root  5
      energy=    -453.626996
      conf/sym  11111111     Coeff  Weight
             1  22222200  -0.06698 0.00449
             2  22222ud0   0.66650 0.44422
             4  22222020   0.11987 0.01437
             7  22222u0d  -0.61201 0.37455
             8  2222u20d  -0.21092 0.04449
            12  2222uudd   0.05777 0.00334
            41  22u222d0   0.07598 0.00577
            45  22u22dud  -0.07896 0.00624
            61  2u2222d0  -0.06193 0.00384
            62  2u222d20  -0.17640 0.03112
            65  2u222dud   0.09608 0.00923
            67  2u222udd   0.08632 0.00745
            87  u2222udd   0.08668 0.00751
           106  22202ud2  -0.06154 0.00379
           171  20222220  -0.06883 0.00474
           173  20222u2d  -0.07054 0.00498
           196  02222ud2  -0.05703 0.00325
 
      printout of CI-coefficients larger than  0.05 for root  6
      energy=    -453.621259
      conf/sym  11111111     Coeff  Weight
             1  22222200  -0.06548 0.00429
             2  22222ud0   0.59918 0.35901
             4  22222020   0.09231 0.00852
             7  22222u0d   0.68396 0.46781
            24  222u220d   0.20515 0.04209
            41  22u222d0   0.06802 0.00463
            44  22u2220d   0.06521 0.00425
            45  22u22dud   0.11233 0.01262
            62  2u222d20  -0.15965 0.02549
            65  2u222dud  -0.11495 0.01321
            67  2u222udd  -0.13335 0.01778
           106  22202ud2  -0.05345 0.00286
           171  20222220  -0.05630 0.00317
           173  20222u2d   0.09275 0.00860
 
      printout of CI-coefficients larger than  0.05 for root  7
      energy=    -453.606658
      conf/sym  11111111     Coeff  Weight
             2  22222ud0  -0.18132 0.03288
             3  2222u2d0  -0.05931 0.00352
             8  2222u20d  -0.74291 0.55191
            10  2222udud   0.15066 0.02270
            12  2222uudd   0.22314 0.04979
            24  222u220d   0.48053 0.23091
            44  22u2220d   0.06638 0.00441
            46  22u2d2ud  -0.14020 0.01966
            48  22u2u2dd   0.16907 0.02858
           135  u22d2202  -0.10225 0.01045
           174  2022u22d  -0.05918 0.00350
 
      Natural orbitals and occupation numbers for root  1
      sym 1:   1.962075   1.953045   1.999556   1.996042   1.999787   1.995923   0.051513   0.042058
 
      Natural orbitals and occupation numbers for root  2
      sym 1:   1.958701   1.986523   1.933069   1.996031   1.067065   1.999561   0.947329   0.111720
 
      Natural orbitals and occupation numbers for root  3
      sym 1:   1.999585   1.995685   1.067406   1.987899   1.932659   1.949960   0.121564   0.945242
 
      Natural orbitals and occupation numbers for root  4
      sym 1:   1.981168   1.992812   1.983067   1.096009   1.963357   1.935340   0.085228   0.963019
 
      Natural orbitals and occupation numbers for root  5
      sym 1:   1.976272   1.943744   1.988276   1.995490   1.974523   1.041346   0.977074   0.103275
 
      Natural orbitals and occupation numbers for root  6
      sym 1:   1.989807   1.932322   1.981751   1.966631   1.998533   1.032424   0.123426   0.975107
 
      Natural orbitals and occupation numbers for root  7
      sym 1:   1.992265   1.978601   1.971276   1.931242   1.159529   1.900237   0.151339   0.915510
 
      ************************************************************************************************************************
      *                                                                                                                      *
      *                                                    Final results                                                     *
      *                                                                                                                      *
      ************************************************************************************************************************
 
 
++    Wave function specifications:
      -----------------------------
 
      Number of closed shell electrons          58
      Number of electrons in active shells      12
      Max number of holes in RAS1 space          0
      Max nr of electrons in RAS3 space          0
      Number of inactive orbitals               29
      Number of active orbitals                  8
      Number of secondary orbitals             172
      Spin quantum number                      0.0
      State symmetry                             1
--
 
++    Orbital specifications:
      -----------------------
 
      Symmetry species                           1
                                                 a
      Frozen orbitals                            0
      Inactive orbitals                         29
      Active orbitals                            8
      RAS1 orbitals                              0
      RAS2 orbitals                              8
      RAS3 orbitals                              0
      Secondary orbitals                       172
      Deleted orbitals                           3
      Number of basis functions                212
--
 
++    CI expansion specifications:
      ----------------------------
 
      Number of CSFs                           336
      Number of determinants                   406
      Number of root(s) required                 7
      CI roots used                              1     2     3     4     5     6     7
      weights                                0.143 0.143 0.143 0.143 0.143 0.143 0.143
      highest root included in the CI            7
      Root passed to geometry opt.               7
--
 
++    Final optimization conditions:
      ------------------------------
 
      Average CI energy                            -453.70647616
      RASSCF energy for state  7                   -453.60665805
      Super-CI energy                                -0.00000000
      RASSCF energy change                            0.00000000
      Max change in MO coefficients               0.236E-04
      Max non-diagonal density matrix element    -0.155E-04
      Maximum BLB matrix element                 -0.825E-06
      (orbital pair  32,  40 in symmetry   1)
      Norm of electronic gradient            0.249E+00
--
 
 
      Final state energy(ies):
      ------------------------
 
::    RASSCF root number  1 Total energy:   -453.95774856
::    RASSCF root number  2 Total energy:   -453.74509535
::    RASSCF root number  3 Total energy:   -453.74466855
::    RASSCF root number  4 Total energy:   -453.64290747
::    RASSCF root number  5 Total energy:   -453.62699598
::    RASSCF root number  6 Total energy:   -453.62125912
::    RASSCF root number  7 Total energy:   -453.60665805
 
++    Molecular orbitals:
      -------------------
 
      Pseudonatural active orbitals and approximate occupation numbers
 
 
 
 
      Molecular orbitals for symmetry species 1: a  
 
 
      Orbital                 1         2         3         4         5         6         7         8         9        10
      Energy           -20.5968  -20.5162  -15.6327  -15.5947  -11.3377  -11.2939  -11.2887  -11.2769  -11.2266   -1.4222
      Occ. No.           2.0000    2.0000    2.0000    2.0000    2.0000    2.0000    2.0000    2.0000    2.0000    2.0000
 
     1 C1     1s        -0.0001    0.0003    0.0000    0.0002   -0.0001   -0.0007   -0.0000    0.9999   -0.0060    0.0003
     2 C1     2s        -0.0007    0.0005   -0.0000    0.0009   -0.0005   -0.0010   -0.0002    0.0023   -0.0002    0.0335
     3 C1     3s        -0.0004   -0.0007   -0.0002    0.0003   -0.0004   -0.0008   -0.0002   -0.0000   -0.0005    0.0135
     4 C1     4s        -0.0001   -0.0004   -0.0001    0.0001   -0.0001   -0.0003   -0.0001    0.0014   -0.0002    0.0042
     5 C1     2px       -0.0001   -0.0010    0.0002    0.0017    0.0001   -0.0001   -0.0001    0.0018   -0.0003    0.0085
     6 C1     3px       -0.0001   -0.0006    0.0002    0.0013   -0.0000   -0.0004   -0.0000    0.0018    0.0003    0.0078
     7 C1     4px        0.0000    0.0001    0.0000   -0.0000   -0.0001   -0.0002    0.0000    0.0007    0.0003    0.0010
     8 C1     2py        0.0002    0.0031    0.0001    0.0001   -0.0003    0.0001   -0.0003    0.0007   -0.0007    0.0202
     9 C1     3py        0.0002    0.0023   -0.0000    0.0000   -0.0003   -0.0003   -0.0005    0.0008    0.0002    0.0195
    10 C1     4py       -0.0000   -0.0003   -0.0000   -0.0000   -0.0000   -0.0003   -0.0001    0.0007    0.0003    0.0050
    11 C1     2pz       -0.0000    0.0004   -0.0000    0.0001   -0.0001    0.0001   -0.0001    0.0002    0.0000    0.0025
    12 C1     3pz       -0.0000    0.0003   -0.0001    0.0001   -0.0001    0.0001   -0.0002    0.0006    0.0002    0.0026
    13 C1     4pz        0.0000   -0.0000   -0.0000    0.0000   -0.0000    0.0000   -0.0001    0.0002    0.0001    0.0009
    14 C1     3d2-      -0.0000    0.0001   -0.0000    0.0001   -0.0000    0.0000    0.0000   -0.0003    0.0001   -0.0007
    15 C1     3d1-       0.0000    0.0000   -0.0000    0.0000    0.0000   -0.0000   -0.0000    0.0001   -0.0000    0.0001
    16 C1     3d0       -0.0000   -0.0000   -0.0000    0.0001   -0.0000   -0.0001    0.0000   -0.0003    0.0001   -0.0016
    17 C1     3d1+      -0.0000    0.0000   -0.0000   -0.0000   -0.0000   -0.0000   -0.0000   -0.0000    0.0000    0.0001
    18 C1     3d2+      -0.0000    0.0001   -0.0000   -0.0002    0.0000    0.0000   -0.0000   -0.0000   -0.0001    0.0005
    19 C3     1s         0.0001    0.0002   -0.0001    0.0004    0.0063    0.9995   -0.0002    0.0006    0.0000   -0.0121
    20 C3     2s         0.0009    0.0013   -0.0003    0.0022   -0.0003   -0.0013    0.0005   -0.0003    0.0002    0.0118
    21 C3     3s         0.0006    0.0008   -0.0002    0.0010   -0.0004   -0.0026    0.0003   -0.0003    0.0001   -0.0342
    22 C3     4s         0.0001    0.0001   -0.0001    0.0001   -0.0000    0.0007    0.0000   -0.0002   -0.0000   -0.0046
    23 C3     2px        0.0002    0.0000   -0.0002   -0.0005   -0.0001    0.0002   -0.0002    0.0006    0.0004    0.0043
    24 C3     3px        0.0002    0.0002   -0.0002    0.0000   -0.0001    0.0001   -0.0003    0.0009    0.0005    0.0102
    25 C3     4px        0.0000    0.0001    0.0001    0.0002   -0.0001   -0.0005   -0.0000    0.0003    0.0001   -0.0008
    26 C3     2py       -0.0013   -0.0003    0.0010   -0.0006    0.0006   -0.0006   -0.0001    0.0004   -0.0003    0.0236
    27 C3     3py       -0.0014   -0.0002    0.0011    0.0000    0.0002   -0.0004   -0.0004    0.0004   -0.0003    0.0047
    28 C3     4py       -0.0001    0.0000    0.0000    0.0002   -0.0001   -0.0005   -0.0002    0.0000    0.0000    0.0024
    29 C3     2pz        0.0004   -0.0001   -0.0001    0.0002   -0.0001   -0.0001    0.0002    0.0001    0.0002    0.0046
    30 C3     3pz        0.0002   -0.0001   -0.0000    0.0003   -0.0005   -0.0002    0.0001    0.0003    0.0003   -0.0113
    31 C3     4pz       -0.0002   -0.0000   -0.0000    0.0001   -0.0001    0.0003   -0.0001    0.0001    0.0000    0.0072
    32 C3     3d2-       0.0000    0.0000    0.0000   -0.0000   -0.0001   -0.0001   -0.0000    0.0000    0.0000   -0.0012
    33 C3     3d1-      -0.0000   -0.0000   -0.0000    0.0000    0.0001   -0.0001    0.0001   -0.0000    0.0000    0.0053
    34 C3     3d0        0.0001    0.0000    0.0000    0.0001   -0.0000   -0.0001    0.0000   -0.0000   -0.0000   -0.0020
    35 C3     3d1+      -0.0001    0.0000   -0.0000    0.0000    0.0001    0.0000   -0.0000    0.0000   -0.0000    0.0022
    36 C3     3d2+       0.0000   -0.0000   -0.0001    0.0000    0.0000    0.0001   -0.0000    0.0000    0.0000   -0.0015
    37 C4     1s         0.0004    0.0000    0.0002   -0.0002    1.0000   -0.0063    0.0002   -0.0001    0.0000   -0.0399
    38 C4     2s         0.0012    0.0001    0.0007   -0.0011    0.0026    0.0008    0.0001   -0.0008    0.0000    0.3515
    39 C4     3s        -0.0004    0.0001    0.0002   -0.0008    0.0001    0.0002   -0.0000   -0.0007   -0.0000   -0.0093
    40 C4     4s        -0.0004    0.0000    0.0000   -0.0002    0.0013    0.0000   -0.0001   -0.0002   -0.0000    0.0021
    41 C4     2px        0.0005   -0.0003   -0.0006   -0.0000   -0.0001    0.0002    0.0001   -0.0004   -0.0002    0.0237
    42 C4     3px        0.0005   -0.0004   -0.0006   -0.0001   -0.0005    0.0002    0.0002   -0.0006   -0.0003   -0.0076
    43 C4     4px       -0.0000   -0.0001   -0.0000   -0.0001   -0.0001    0.0001    0.0001   -0.0002   -0.0000    0.0051
    44 C4     2py        0.0034   -0.0002   -0.0007    0.0003    0.0002   -0.0006    0.0002   -0.0000    0.0001    0.1067
    45 C4     3py        0.0024   -0.0001   -0.0006    0.0003   -0.0001    0.0000   -0.0001    0.0001    0.0001   -0.0670
    46 C4     4py       -0.0003    0.0001   -0.0000    0.0000    0.0003    0.0003   -0.0002    0.0001    0.0000    0.0272
    47 C4     2pz       -0.0001   -0.0000    0.0017    0.0001    0.0013   -0.0012   -0.0001    0.0002   -0.0001    0.0211
    48 C4     3pz       -0.0002   -0.0002    0.0013   -0.0001    0.0010   -0.0009   -0.0008    0.0002   -0.0001    0.0022
    49 C4     4pz       -0.0001   -0.0001   -0.0001   -0.0001    0.0006   -0.0000   -0.0005   -0.0000   -0.0000    0.0041
    50 C4     3d2-      -0.0000   -0.0000   -0.0001    0.0001    0.0002   -0.0000    0.0000   -0.0000    0.0000    0.0147
    51 C4     3d1-       0.0000   -0.0000    0.0002   -0.0000   -0.0002    0.0001   -0.0000   -0.0000    0.0000   -0.0061
    52 C4     3d0        0.0002    0.0000   -0.0000   -0.0000   -0.0001    0.0000    0.0001    0.0000    0.0000   -0.0169
    53 C4     3d1+      -0.0000   -0.0000    0.0000   -0.0001   -0.0001    0.0000   -0.0001   -0.0000    0.0000   -0.0043
    54 C4     3d2+       0.0001   -0.0000    0.0001    0.0000   -0.0006    0.0001   -0.0000    0.0000    0.0000   -0.0387
    55 C6     1s         0.0001    0.0000    0.0004   -0.0001   -0.0002    0.0004    0.9996   -0.0000   -0.0001   -0.0079
    56 C6     2s         0.0004    0.0002    0.0018   -0.0004    0.0001    0.0006   -0.0004   -0.0001   -0.0004    0.0224
    57 C6     3s         0.0003    0.0001    0.0006   -0.0003   -0.0002    0.0005   -0.0020   -0.0002   -0.0003   -0.0112
    58 C6     4s         0.0001   -0.0000   -0.0000   -0.0001   -0.0002    0.0001    0.0008   -0.0001   -0.0001   -0.0001
    59 C6     2px        0.0003   -0.0002    0.0003   -0.0000   -0.0001    0.0001    0.0000   -0.0000   -0.0001   -0.0020
    60 C6     3px        0.0002   -0.0001    0.0001   -0.0000   -0.0001    0.0000   -0.0000   -0.0000   -0.0001   -0.0072
    61 C6     4px       -0.0000    0.0001   -0.0000    0.0000   -0.0001   -0.0000    0.0002    0.0000    0.0000    0.0014
    62 C6     2py        0.0001   -0.0002   -0.0004   -0.0001   -0.0001   -0.0001   -0.0002   -0.0002   -0.0000   -0.0018
    63 C6     3py        0.0000   -0.0001   -0.0001   -0.0001   -0.0002   -0.0001    0.0002   -0.0002   -0.0000    0.0038
    64 C6     4py       -0.0001    0.0000    0.0001    0.0000   -0.0001    0.0000   -0.0003    0.0000   -0.0000   -0.0008
    65 C6     2pz       -0.0003    0.0000   -0.0004    0.0001    0.0004   -0.0003    0.0000    0.0002    0.0001   -0.0224
    66 C6     3pz       -0.0002    0.0000    0.0002    0.0001    0.0006   -0.0002    0.0002    0.0003    0.0001   -0.0000
    67 C6     4pz        0.0000    0.0000    0.0002   -0.0000    0.0001    0.0001   -0.0007    0.0000    0.0000   -0.0028
    68 C6     3d2-       0.0000    0.0000    0.0000   -0.0000    0.0000   -0.0000    0.0000   -0.0000    0.0000   -0.0003
    69 C6     3d1-       0.0000    0.0000   -0.0001    0.0000   -0.0000    0.0000   -0.0001   -0.0000    0.0000    0.0028
    70 C6     3d0        0.0000    0.0000   -0.0000    0.0000    0.0000    0.0000   -0.0000    0.0000   -0.0000    0.0028
    71 C6     3d1+      -0.0000    0.0000    0.0001    0.0000   -0.0000   -0.0000    0.0000    0.0000   -0.0000   -0.0020
    72 C6     3d2+      -0.0000    0.0000    0.0001   -0.0000    0.0000   -0.0000    0.0000    0.0000    0.0000   -0.0003
    73 C19    1s         0.0000    0.0002    0.0000   -0.0000    0.0000    0.0001   -0.0000    0.0059    0.9999    0.0001
    74 C19    2s         0.0001    0.0011    0.0002    0.0000    0.0001    0.0006   -0.0002    0.0003    0.0019    0.0061
    75 C19    3s         0.0000    0.0007    0.0002    0.0001    0.0000    0.0003   -0.0002    0.0001   -0.0005    0.0056
    76 C19    4s        -0.0000    0.0001    0.0000    0.0000   -0.0000   -0.0000   -0.0001    0.0001    0.0012    0.0027
    77 C19    2px        0.0001    0.0007    0.0002   -0.0002    0.0001    0.0002   -0.0000   -0.0002   -0.0001   -0.0011
    78 C19    3px        0.0001    0.0005    0.0001   -0.0002    0.0001    0.0002   -0.0000   -0.0004   -0.0001   -0.0012
    79 C19    4px       -0.0000   -0.0002   -0.0000   -0.0000   -0.0000    0.0000   -0.0000   -0.0001    0.0002    0.0005
    80 C19    2py       -0.0000   -0.0001    0.0001    0.0004    0.0000    0.0002   -0.0001    0.0004   -0.0004    0.0052
    81 C19    3py       -0.0001   -0.0002    0.0001    0.0003    0.0000    0.0001   -0.0001    0.0000   -0.0000    0.0037
    82 C19    4py       -0.0000   -0.0001   -0.0000   -0.0001    0.0000   -0.0001    0.0000   -0.0000    0.0003   -0.0001
    83 C19    2pz       -0.0000    0.0001    0.0001   -0.0001    0.0000   -0.0001   -0.0000   -0.0002   -0.0002    0.0015
    84 C19    3pz       -0.0000    0.0001    0.0002   -0.0002    0.0000   -0.0001    0.0000   -0.0003   -0.0001    0.0009
    85 C19    4pz        0.0000   -0.0001    0.0000   -0.0000    0.0000   -0.0000    0.0000   -0.0000    0.0000   -0.0002
    86 C19    3d2-       0.0000    0.0001    0.0000   -0.0000    0.0000    0.0001   -0.0000   -0.0000   -0.0001    0.0003
    87 C19    3d1-       0.0000   -0.0000    0.0000    0.0000    0.0000    0.0000   -0.0000   -0.0000   -0.0000    0.0000
    88 C19    3d0        0.0000   -0.0001   -0.0000   -0.0001   -0.0000   -0.0000    0.0000    0.0001    0.0001    0.0001
    89 C19    3d1+       0.0000    0.0000    0.0000    0.0000    0.0000    0.0000    0.0000    0.0000   -0.0000   -0.0002
    90 C19    3d2+      -0.0000    0.0001   -0.0000   -0.0000   -0.0000   -0.0000   -0.0000   -0.0001    0.0001   -0.0001
    91 N2     1s        -0.0000    0.0000   -0.0001    0.9998    0.0000    0.0001    0.0000   -0.0003    0.0001   -0.0010
    92 N2     2s        -0.0003    0.0000    0.0000   -0.0001    0.0002    0.0016    0.0001   -0.0007    0.0003    0.0296
    93 N2     3s        -0.0001    0.0001    0.0000   -0.0015    0.0002    0.0009    0.0001   -0.0007    0.0003   -0.0029
    94 N2     4s         0.0000    0.0000    0.0000    0.0004    0.0000    0.0003    0.0000   -0.0000    0.0001   -0.0017
    95 N2     2px       -0.0006   -0.0000    0.0003    0.0002    0.0002    0.0004   -0.0001   -0.0002   -0.0005    0.0092
    96 N2     3px       -0.0008   -0.0002    0.0004    0.0000    0.0002   -0.0000   -0.0002   -0.0002   -0.0004    0.0105
    97 N2     4px       -0.0001   -0.0000    0.0001   -0.0001   -0.0000   -0.0001   -0.0000   -0.0003    0.0001   -0.0002
    98 N2     2py        0.0001   -0.0016    0.0003   -0.0006    0.0004    0.0008    0.0000    0.0007   -0.0001   -0.0024
    99 N2     3py        0.0002   -0.0019    0.0004    0.0003    0.0004    0.0007    0.0001    0.0009    0.0000   -0.0155
   100 N2     4py        0.0000    0.0000    0.0000    0.0006   -0.0000    0.0002    0.0000    0.0000    0.0001   -0.0020
   101 N2     2pz        0.0001   -0.0002   -0.0001   -0.0001    0.0000    0.0001    0.0002   -0.0001   -0.0000    0.0010
   102 N2     3pz        0.0002   -0.0003   -0.0002    0.0002    0.0001    0.0001    0.0003    0.0001    0.0000   -0.0026
   103 N2     4pz        0.0001   -0.0000   -0.0000    0.0000    0.0000    0.0000    0.0001    0.0000    0.0000   -0.0008
   104 N2     3d2-       0.0000    0.0001    0.0000   -0.0002    0.0000   -0.0000    0.0000   -0.0001   -0.0000    0.0001
   105 N2     3d1-      -0.0000    0.0000   -0.0000    0.0000    0.0000    0.0000    0.0000   -0.0000    0.0000    0.0006
   106 N2     3d0        0.0000   -0.0000    0.0000    0.0001   -0.0000    0.0001   -0.0000    0.0001   -0.0001   -0.0006
   107 N2     3d1+      -0.0000    0.0000   -0.0000   -0.0000    0.0000    0.0000    0.0000    0.0000    0.0000    0.0008
   108 N2     3d2+       0.0000   -0.0000    0.0000    0.0000   -0.0000   -0.0000   -0.0000    0.0000    0.0000   -0.0001
   109 N5     1s         0.0002   -0.0001    0.9999    0.0001   -0.0003    0.0000    0.0001   -0.0000    0.0000   -0.0180
   110 N5     2s         0.0011   -0.0006    0.0002   -0.0001   -0.0004    0.0000    0.0018   -0.0001    0.0003    0.1127
   111 N5     3s         0.0008   -0.0005   -0.0012   -0.0000   -0.0005    0.0001    0.0010   -0.0001    0.0002   -0.0469
   112 N5     4s         0.0002   -0.0001    0.0005    0.0000    0.0000    0.0000    0.0004   -0.0000    0.0000   -0.0110
   113 N5     2px       -0.0001    0.0003   -0.0003    0.0000    0.0002    0.0001   -0.0004    0.0002    0.0001    0.0148
   114 N5     3px       -0.0001    0.0005   -0.0001    0.0000   -0.0001    0.0001   -0.0004    0.0004    0.0001    0.0028
   115 N5     4px        0.0000    0.0001   -0.0001   -0.0000    0.0000   -0.0000   -0.0000    0.0001    0.0001    0.0020
   116 N5     2py       -0.0014    0.0002   -0.0011    0.0004    0.0001   -0.0001    0.0003    0.0001    0.0000    0.0461
   117 N5     3py       -0.0016    0.0002   -0.0008    0.0005   -0.0001   -0.0001    0.0006    0.0003    0.0002    0.0044
   118 N5     4py        0.0000   -0.0000    0.0004    0.0001   -0.0000    0.0001    0.0003    0.0001    0.0001   -0.0025
   119 N5     2pz       -0.0006    0.0001   -0.0005    0.0003   -0.0001   -0.0003    0.0010    0.0002    0.0002   -0.0011
   120 N5     3pz       -0.0006    0.0001   -0.0006    0.0003   -0.0003   -0.0003    0.0009    0.0002    0.0004    0.0288
   121 N5     4pz        0.0001   -0.0000   -0.0002    0.0000   -0.0004    0.0001    0.0001    0.0000    0.0001   -0.0061
   122 N5     3d2-       0.0000   -0.0000    0.0001    0.0000   -0.0000    0.0000    0.0000    0.0000    0.0000    0.0016
   123 N5     3d1-       0.0001    0.0000   -0.0000   -0.0000   -0.0001    0.0000    0.0000   -0.0000    0.0000   -0.0054
   124 N5     3d0        0.0001   -0.0000   -0.0001   -0.0000   -0.0001    0.0000   -0.0001   -0.0000   -0.0000    0.0001
   125 N5     3d1+      -0.0000    0.0000    0.0000   -0.0000    0.0000   -0.0000    0.0001    0.0000    0.0000   -0.0022
   126 N5     3d2+      -0.0000    0.0000   -0.0001    0.0000    0.0001   -0.0000    0.0000   -0.0000   -0.0000   -0.0019
   127 O7     1s        -0.0000    0.9997   -0.0000    0.0000    0.0000   -0.0000    0.0000   -0.0002    0.0001   -0.0015
   128 O7     2s        -0.0000   -0.0014   -0.0001    0.0000    0.0002   -0.0001    0.0001    0.0006    0.0003    0.0209
   129 O7     3s        -0.0000   -0.0014   -0.0001   -0.0000    0.0002   -0.0000    0.0000   -0.0000    0.0002   -0.0032
   130 O7     4s        -0.0000    0.0001   -0.0000   -0.0001    0.0001    0.0000    0.0000   -0.0000    0.0001   -0.0007
   131 O7     2px       -0.0000    0.0002   -0.0002   -0.0004    0.0000   -0.0000   -0.0001    0.0003    0.0001    0.0076
   132 O7     3px       -0.0001   -0.0003   -0.0002   -0.0005   -0.0000    0.0000   -0.0001   -0.0002    0.0001    0.0050
   133 O7     4px       -0.0000    0.0008   -0.0000   -0.0001   -0.0000   -0.0000   -0.0001   -0.0000   -0.0000    0.0022
   134 O7     2py       -0.0000   -0.0003   -0.0000   -0.0002   -0.0001    0.0000    0.0000   -0.0008   -0.0002   -0.0023
   135 O7     3py       -0.0001    0.0004   -0.0001   -0.0002   -0.0002   -0.0000    0.0000   -0.0006   -0.0002    0.0045
   136 O7     4py       -0.0001   -0.0011   -0.0000    0.0000   -0.0001   -0.0000   -0.0000   -0.0003    0.0000    0.0014
   137 O7     2pz        0.0000   -0.0000   -0.0001   -0.0000   -0.0001   -0.0000   -0.0000   -0.0003   -0.0000    0.0023
   138 O7     3pz        0.0000    0.0001   -0.0002   -0.0000   -0.0001   -0.0000   -0.0001   -0.0002   -0.0001    0.0036
   139 O7     4pz        0.0000   -0.0001   -0.0000    0.0000   -0.0001   -0.0000   -0.0000   -0.0000   -0.0000    0.0012
   140 O7     3d2-       0.0000    0.0001    0.0000    0.0000   -0.0000    0.0000    0.0000   -0.0002   -0.0000   -0.0008
   141 O7     3d1-       0.0000    0.0000   -0.0000    0.0000   -0.0000   -0.0000   -0.0000    0.0000    0.0000    0.0001
   142 O7     3d0        0.0000   -0.0000    0.0000   -0.0000   -0.0000   -0.0000    0.0000   -0.0001   -0.0000   -0.0006
   143 O7     3d1+       0.0000    0.0000   -0.0000    0.0000    0.0000    0.0000   -0.0000   -0.0000    0.0000    0.0000
   144 O7     3d2+      -0.0000    0.0000   -0.0000   -0.0001    0.0000    0.0000    0.0000   -0.0001   -0.0000   -0.0001
   145 O8     1s         0.9997    0.0000    0.0000   -0.0000   -0.0003    0.0001   -0.0001    0.0000   -0.0000   -0.0241
   146 O8     2s        -0.0015    0.0002    0.0002   -0.0000    0.0003    0.0003   -0.0003    0.0002   -0.0000    0.6894
   147 O8     3s        -0.0014    0.0001    0.0001   -0.0000   -0.0001    0.0002   -0.0002    0.0001   -0.0000   -0.0343
   148 O8     4s         0.0001    0.0000    0.0000   -0.0000    0.0000    0.0001   -0.0001    0.0000   -0.0000   -0.0137
   149 O8     2px       -0.0001    0.0000    0.0001   -0.0000    0.0002   -0.0000    0.0000    0.0001    0.0000   -0.0201
   150 O8     3px        0.0000    0.0001    0.0002    0.0000    0.0001   -0.0000    0.0000    0.0001    0.0001    0.0057
   151 O8     4px       -0.0003    0.0000    0.0001    0.0000   -0.0000    0.0000   -0.0000    0.0000    0.0000   -0.0008
   152 O8     2py       -0.0003   -0.0001    0.0000   -0.0000   -0.0007   -0.0002    0.0001   -0.0001   -0.0000   -0.1471
   153 O8     3py        0.0005   -0.0001    0.0001   -0.0001   -0.0002   -0.0002    0.0000   -0.0001   -0.0000    0.0445
   154 O8     4py       -0.0014    0.0000    0.0001   -0.0000   -0.0003    0.0000   -0.0000    0.0000   -0.0000    0.0006
   155 O8     2pz        0.0000    0.0000   -0.0003   -0.0000    0.0001    0.0001   -0.0001   -0.0000   -0.0000    0.0144
   156 O8     3pz        0.0000    0.0000   -0.0003   -0.0000   -0.0001    0.0001   -0.0000   -0.0000   -0.0000   -0.0044
   157 O8     4pz        0.0001    0.0000   -0.0000   -0.0000   -0.0001    0.0000    0.0000   -0.0000    0.0000   -0.0018
   158 O8     3d2-      -0.0000    0.0000    0.0000    0.0000    0.0000    0.0000   -0.0000    0.0000   -0.0000    0.0060
   159 O8     3d1-       0.0000   -0.0000    0.0001    0.0000   -0.0001    0.0000    0.0000    0.0000   -0.0000   -0.0028
   160 O8     3d0        0.0001   -0.0000    0.0000   -0.0000   -0.0001   -0.0000    0.0000   -0.0000    0.0000   -0.0110
   161 O8     3d1+      -0.0000    0.0000   -0.0000    0.0000    0.0000   -0.0000   -0.0000    0.0000   -0.0000   -0.0004
   162 O8     3d2+       0.0000   -0.0000   -0.0000    0.0000   -0.0001   -0.0000   -0.0000   -0.0000   -0.0000   -0.0179
   163 H9     1s        -0.0000    0.0003    0.0002   -0.0000   -0.0001   -0.0002   -0.0001   -0.0000    0.0003    0.0047
   164 H9     2s         0.0000    0.0002    0.0001   -0.0001   -0.0000   -0.0001   -0.0001    0.0000   -0.0003    0.0032
   165 H9     2px       -0.0000   -0.0000   -0.0000    0.0000   -0.0000   -0.0000   -0.0000    0.0000   -0.0000    0.0005
   166 H9     2py        0.0000   -0.0000   -0.0000   -0.0000   -0.0000   -0.0000   -0.0000    0.0001    0.0000    0.0000
   167 H9     2pz       -0.0000    0.0000    0.0000    0.0000   -0.0000   -0.0000   -0.0000    0.0000   -0.0001    0.0005
   168 H10    1s         0.0001    0.0001    0.0001    0.0002    0.0000   -0.0001    0.0000    0.0003    0.0004    0.0011
   169 H10    2s         0.0001    0.0001    0.0001    0.0002    0.0000   -0.0001    0.0000    0.0002   -0.0002    0.0009
   170 H10    2px        0.0000   -0.0000    0.0000    0.0001    0.0000   -0.0000    0.0000    0.0001   -0.0000    0.0002
   171 H10    2py       -0.0000   -0.0001    0.0000   -0.0000    0.0000   -0.0000    0.0000    0.0000    0.0000   -0.0000
   172 H10    2pz       -0.0000   -0.0000   -0.0000    0.0000   -0.0000    0.0000    0.0000   -0.0001    0.0001   -0.0001
   173 H11    1s        -0.0001   -0.0003   -0.0000    0.0004   -0.0001    0.0000   -0.0001    0.0004    0.0002    0.0064
   174 H11    2s        -0.0000   -0.0002    0.0000    0.0003   -0.0001   -0.0000   -0.0001    0.0002   -0.0003    0.0040
   175 H11    2px        0.0000   -0.0000    0.0000   -0.0000    0.0000    0.0000    0.0000   -0.0000    0.0001   -0.0007
   176 H11    2py       -0.0000   -0.0000   -0.0000   -0.0000   -0.0000    0.0000   -0.0000    0.0001   -0.0001    0.0006
   177 H11    2pz        0.0000    0.0000    0.0000    0.0000    0.0000    0.0000   -0.0000   -0.0000    0.0000   -0.0003
   178 H12    1s         0.0003   -0.0010    0.0004   -0.0004    0.0003   -0.0002   -0.0001    0.0007   -0.0002   -0.0055
   179 H12    2s         0.0002   -0.0006    0.0003   -0.0002    0.0002   -0.0000   -0.0001    0.0004   -0.0001   -0.0067
   180 H12    2px       -0.0000    0.0000   -0.0000    0.0003   -0.0000    0.0000    0.0000   -0.0002    0.0000   -0.0001
   181 H12    2py        0.0000   -0.0000    0.0000   -0.0004    0.0000   -0.0000   -0.0000    0.0000   -0.0000    0.0006
   182 H12    2pz       -0.0000   -0.0000    0.0000   -0.0001    0.0000   -0.0000   -0.0000   -0.0000   -0.0000    0.0002
   183 H13    1s        -0.0005   -0.0001    0.0006   -0.0004    0.0003    0.0006   -0.0001   -0.0003   -0.0004    0.0121
   184 H13    2s        -0.0003   -0.0001    0.0003   -0.0002    0.0002   -0.0001   -0.0000   -0.0002   -0.0002    0.0014
   185 H13    2px        0.0001   -0.0000   -0.0001   -0.0000   -0.0000    0.0000    0.0000   -0.0000    0.0000   -0.0010
   186 H13    2py       -0.0000    0.0000   -0.0000    0.0000    0.0000   -0.0000    0.0000   -0.0000    0.0000    0.0005
   187 H13    2pz       -0.0000    0.0000   -0.0000   -0.0000    0.0001    0.0000   -0.0000    0.0000   -0.0000    0.0015
   188 H14    1s         0.0005   -0.0002   -0.0004   -0.0007   -0.0002    0.0011   -0.0002   -0.0006    0.0003    0.0161
   189 H14    2s         0.0003   -0.0001   -0.0002   -0.0003   -0.0002    0.0002   -0.0001   -0.0004    0.0002    0.0010
   190 H14    2px        0.0000    0.0001   -0.0000    0.0001    0.0000   -0.0000    0.0000    0.0000   -0.0000   -0.0002
   191 H14    2py       -0.0000    0.0000    0.0000    0.0001   -0.0000   -0.0001    0.0000    0.0001   -0.0000   -0.0000
   192 H14    2pz        0.0000   -0.0000   -0.0000    0.0000    0.0000    0.0001   -0.0000   -0.0000    0.0000    0.0014
   193 H15    1s        -0.0014    0.0006   -0.0012    0.0003   -0.0001   -0.0003   -0.0005   -0.0004   -0.0003    0.0453
   194 H15    2s        -0.0008    0.0003   -0.0008    0.0002   -0.0002   -0.0002   -0.0002   -0.0002   -0.0002    0.0026
   195 H15    2px       -0.0000    0.0000   -0.0001    0.0000    0.0001    0.0000   -0.0000   -0.0000    0.0000    0.0018
   196 H15    2py       -0.0001    0.0000   -0.0005    0.0001    0.0001   -0.0000   -0.0000   -0.0000   -0.0000    0.0063
   197 H15    2pz       -0.0000    0.0000   -0.0001   -0.0001   -0.0001   -0.0000    0.0000   -0.0000    0.0000   -0.0002
   198 H16    1s        -0.0002    0.0001   -0.0002    0.0001   -0.0001    0.0000    0.0011    0.0001    0.0001    0.0111
   199 H16    2s        -0.0000    0.0001   -0.0000    0.0000    0.0000    0.0000    0.0002    0.0001    0.0001   -0.0032
   200 H16    2px       -0.0000    0.0000   -0.0000   -0.0000    0.0000   -0.0000   -0.0000   -0.0000    0.0000    0.0005
   201 H16    2py        0.0000   -0.0000   -0.0000   -0.0000    0.0000   -0.0000   -0.0001   -0.0000   -0.0000   -0.0008
   202 H16    2pz        0.0000    0.0000   -0.0000    0.0000   -0.0000   -0.0000   -0.0000   -0.0000    0.0000   -0.0007
   203 H17    1s         0.0005   -0.0002   -0.0004    0.0000   -0.0003    0.0000    0.0007   -0.0001   -0.0001    0.0035
   204 H17    2s         0.0003   -0.0001   -0.0001    0.0000   -0.0003    0.0000   -0.0000   -0.0000   -0.0000   -0.0028
   205 H17    2px        0.0000   -0.0000   -0.0000    0.0000   -0.0001    0.0000    0.0000   -0.0000   -0.0000    0.0006
   206 H17    2py       -0.0000   -0.0000    0.0000    0.0000    0.0000    0.0000   -0.0000    0.0000   -0.0000   -0.0005
   207 H17    2pz       -0.0000   -0.0000    0.0000   -0.0000    0.0000    0.0000   -0.0001   -0.0000   -0.0000   -0.0004
   208 H18    1s         0.0002   -0.0001   -0.0006   -0.0001   -0.0004    0.0001    0.0006   -0.0003   -0.0000    0.0118
   209 H18    2s         0.0001   -0.0001   -0.0003   -0.0000   -0.0003    0.0001   -0.0001   -0.0002   -0.0000    0.0032
   210 H18    2px       -0.0000    0.0000   -0.0000    0.0000    0.0000   -0.0000    0.0000    0.0000   -0.0000   -0.0005
   211 H18    2py        0.0000    0.0000   -0.0000    0.0000   -0.0000    0.0000   -0.0000   -0.0000    0.0000    0.0005
   212 H18    2pz       -0.0000    0.0000    0.0001    0.0000    0.0000   -0.0000   -0.0000    0.0000   -0.0000   -0.0013
 
 
      Orbital                11        12        13        14        15        16        17        18        19        20
      Energy            -1.3585   -1.2581   -1.2175   -1.0138   -0.9682   -0.9266   -0.8140   -0.7813   -0.7117   -0.6912
      Occ. No.           2.0000    2.0000    2.0000    2.0000    2.0000    2.0000    2.0000    2.0000    2.0000    2.0000
 
     1 C1     1s        -0.0395    0.0031    0.0050   -0.0134    0.0078    0.0032    0.0063   -0.0131   -0.0025    0.0040
     2 C1     2s         0.3634    0.0108   -0.0838    0.2042   -0.1625    0.0040   -0.1226    0.3602    0.0380   -0.1030
     3 C1     3s        -0.0053    0.0149    0.0011   -0.0151    0.0063    0.0086    0.0037    0.0029   -0.0093    0.0043
     4 C1     4s         0.0018    0.0045    0.0010   -0.0056    0.0022    0.0031    0.0021   -0.0021   -0.0023    0.0026
     5 C1     2px       -0.0434    0.0408   -0.1217    0.0301    0.0516   -0.1115   -0.0743    0.1532    0.0003    0.0194
     6 C1     3px        0.0079   -0.0054    0.0594   -0.0476    0.0157    0.0144    0.0169   -0.0324   -0.0119   -0.0149
     7 C1     4px       -0.0150    0.0082   -0.0217   -0.0045    0.0113   -0.0158   -0.0056    0.0107   -0.0025   -0.0003
     8 C1     2py        0.0952    0.0002    0.0444   -0.1164    0.1162   -0.0214    0.0004    0.0110    0.0659    0.0396
     9 C1     3py       -0.0677    0.0364   -0.0453   -0.0074   -0.0207    0.0677   -0.0015   -0.0151   -0.0252   -0.0150
    10 C1     4py        0.0216    0.0014    0.0073   -0.0201    0.0200    0.0016   -0.0009    0.0012    0.0023   -0.0007
    11 C1     2pz        0.0021    0.0034    0.0113   -0.0201    0.0241   -0.0118   -0.0009    0.0019   -0.0052    0.0160
    12 C1     3pz       -0.0132    0.0084    0.0025    0.0003    0.0090   -0.0018   -0.0011   -0.0050   -0.0033   -0.0022
    13 C1     4pz        0.0008    0.0023    0.0027   -0.0028    0.0056   -0.0026    0.0006   -0.0005   -0.0032    0.0029
    14 C1     3d2-      -0.0302    0.0058   -0.0141    0.0040   -0.0091    0.0095   -0.0004    0.0115    0.0128    0.0056
    15 C1     3d1-       0.0065   -0.0007    0.0022    0.0010   -0.0024    0.0017   -0.0004    0.0014    0.0006   -0.0011
    16 C1     3d0       -0.0268    0.0005    0.0035   -0.0088    0.0047    0.0025    0.0055   -0.0124   -0.0015    0.0029
    17 C1     3d1+      -0.0032    0.0013   -0.0013    0.0006   -0.0019    0.0010   -0.0004    0.0036   -0.0009    0.0038
    18 C1     3d2+      -0.0097    0.0073   -0.0266    0.0077    0.0065   -0.0148   -0.0071    0.0129    0.0020    0.0034
    19 C3     1s        -0.0107   -0.0104    0.0315    0.0372   -0.0054   -0.0264   -0.0069   -0.0017   -0.0052    0.0065
    20 C3     2s         0.0311    0.0734   -0.1782   -0.3206    0.0426    0.3726    0.0936    0.0650    0.0912   -0.0484
    21 C3     3s        -0.0205   -0.0173    0.0588    0.0662   -0.0108   -0.0273   -0.0089   -0.0049   -0.0057    0.0224
    22 C3     4s        -0.0031   -0.0026    0.0140    0.0173   -0.0035   -0.0084   -0.0029   -0.0026   -0.0018    0.0060
    23 C3     2px       -0.0343   -0.0116    0.0478   -0.0276    0.0048    0.0453    0.0338   -0.0682   -0.0625   -0.1278
    24 C3     3px       -0.0133    0.0163   -0.0174   -0.0366    0.0256    0.0107   -0.0003    0.0058    0.0150    0.0141
    25 C3     4px       -0.0032    0.0047   -0.0029   -0.0135    0.0066    0.0136    0.0039   -0.0027   -0.0023   -0.0039
    26 C3     2py       -0.0165   -0.0308    0.1018   -0.0125   -0.0220    0.0531   -0.0812    0.1874   -0.1682   -0.1051
    27 C3     3py        0.0087    0.0041    0.0098    0.0258    0.0485   -0.0124   -0.0061    0.0073    0.0329    0.0260
    28 C3     4py       -0.0034    0.0054    0.0101   -0.0051    0.0028    0.0087   -0.0074    0.0123    0.0022   -0.0013
    29 C3     2pz       -0.0072    0.0271    0.0142   -0.0531   -0.0398   -0.0013   -0.0765    0.0282   -0.1845    0.1890
    30 C3     3pz       -0.0122   -0.0021    0.0190    0.0140    0.0160   -0.0158    0.0076   -0.0056    0.0265   -0.0142
    31 C3     4pz       -0.0033   -0.0018    0.0098    0.0076   -0.0033   -0.0149   -0.0073   -0.0026   -0.0054    0.0064
    32 C3     3d2-       0.0055    0.0050   -0.0176    0.0028    0.0066   -0.0065    0.0018   -0.0007    0.0177    0.0148
    33 C3     3d1-       0.0007    0.0013   -0.0036   -0.0080   -0.0040    0.0033   -0.0071    0.0012   -0.0165    0.0085
    34 C3     3d0       -0.0018    0.0019    0.0093   -0.0048   -0.0094    0.0023   -0.0101    0.0119   -0.0138    0.0021
    35 C3     3d1+       0.0001   -0.0023   -0.0007    0.0036    0.0028   -0.0004    0.0024   -0.0017    0.0049   -0.0088
    36 C3     3d2+      -0.0015    0.0003    0.0111    0.0016   -0.0044   -0.0000   -0.0042    0.0093    0.0051   -0.0040
    37 C4     1s         0.0028   -0.0070   -0.0043    0.0136    0.0099    0.0006    0.0175    0.0004    0.0060   -0.0000
    38 C4     2s         0.0109    0.1445   -0.0178   -0.2345   -0.1763    0.0589   -0.3617   -0.0167   -0.2355    0.0204
    39 C4     3s         0.0110    0.0055   -0.0137    0.0196    0.0051    0.0038    0.0222   -0.0072    0.0077    0.0089
    40 C4     4s         0.0031    0.0014   -0.0035    0.0073    0.0019    0.0003    0.0070   -0.0030    0.0037    0.0002
    41 C4     2px        0.0057   -0.0420   -0.0194   -0.0121   -0.0072    0.0351    0.0089    0.0312   -0.0705   -0.0450
    42 C4     3px        0.0139    0.0059   -0.0052   -0.0031   -0.0334   -0.0135   -0.0109   -0.0081    0.0236    0.0053
    43 C4     4px        0.0028   -0.0079   -0.0045   -0.0022   -0.0035    0.0030    0.0020    0.0009   -0.0035   -0.0055
    44 C4     2py       -0.0203   -0.1031    0.0017    0.1110    0.0852    0.0036    0.0250   -0.0189   -0.0453   -0.2271
    45 C4     3py        0.0017    0.0718    0.0031   -0.0403    0.0036    0.0386   -0.0052    0.0077    0.0153    0.0724
    46 C4     4py       -0.0064   -0.0181    0.0003    0.0095    0.0123    0.0043   -0.0001   -0.0012   -0.0088   -0.0141
    47 C4     2pz       -0.0012    0.1156    0.0734    0.0754   -0.0009   -0.0974   -0.1212   -0.1254    0.1912    0.0465
    48 C4     3pz        0.0057    0.0201    0.0073    0.0154    0.0811    0.0945    0.0131    0.0767   -0.0675    0.0188
    49 C4     4pz        0.0013    0.0277    0.0111    0.0112    0.0083    0.0015   -0.0105   -0.0014    0.0072    0.0099
    50 C4     3d2-      -0.0007    0.0006    0.0021    0.0012   -0.0037   -0.0062   -0.0019   -0.0002   -0.0017   -0.0000
    51 C4     3d1-       0.0007   -0.0150   -0.0090   -0.0036    0.0117    0.0196    0.0017    0.0085   -0.0074   -0.0055
    52 C4     3d0        0.0018    0.0227    0.0042   -0.0110   -0.0057    0.0048   -0.0187   -0.0029    0.0185    0.0004
    53 C4     3d1+       0.0006   -0.0099   -0.0038    0.0062    0.0057   -0.0010    0.0070    0.0020    0.0003    0.0009
    54 C4     3d2+       0.0021    0.0081    0.0032    0.0037    0.0046    0.0024    0.0037   -0.0008    0.0140   -0.0003
    55 C6     1s         0.0024   -0.0295   -0.0163   -0.0305   -0.0389   -0.0257    0.0075   -0.0018    0.0070   -0.0066
    56 C6     2s         0.0217    0.1635    0.0367    0.2184    0.3150    0.2818   -0.1036    0.0204   -0.0498    0.0830
    57 C6     3s         0.0146   -0.0419   -0.0416   -0.0511   -0.0676   -0.0328    0.0165   -0.0049    0.0201   -0.0199
    58 C6     4s         0.0042   -0.0059   -0.0091   -0.0102   -0.0151   -0.0067    0.0053   -0.0015    0.0049   -0.0068
    59 C6     2px        0.0075    0.0207    0.0071    0.0168    0.0002   -0.0009   -0.0167   -0.0250    0.0799   -0.0829
    60 C6     3px        0.0068   -0.0066   -0.0044    0.0042   -0.0031    0.0039   -0.0037    0.0024   -0.0056    0.0122
    61 C6     4px       -0.0006   -0.0000   -0.0006   -0.0034   -0.0033   -0.0037    0.0005   -0.0021    0.0027   -0.0043
    62 C6     2py       -0.0015   -0.0457   -0.0110   -0.0190   -0.0100    0.0098   -0.1434   -0.0486    0.0540    0.1498
    63 C6     3py       -0.0000    0.0063    0.0072    0.0020   -0.0033   -0.0076    0.0047    0.0034   -0.0013   -0.0234
    64 C6     4py        0.0000   -0.0023   -0.0010    0.0045    0.0065    0.0055   -0.0114   -0.0040    0.0024    0.0052
    65 C6     2pz       -0.0057   -0.0931   -0.0255   -0.0189    0.0140    0.0342   -0.0336    0.0437   -0.1824    0.2513
    66 C6     3pz       -0.0046    0.0137    0.0159    0.0172    0.0228    0.0016   -0.0037   -0.0040    0.0276   -0.0380
    67 C6     4pz       -0.0008    0.0008    0.0020    0.0097    0.0172    0.0130   -0.0051    0.0034   -0.0084    0.0134
    68 C6     3d2-      -0.0004   -0.0039   -0.0012   -0.0015   -0.0003    0.0007   -0.0059   -0.0018    0.0011    0.0076
    69 C6     3d1-       0.0003    0.0169    0.0056    0.0052    0.0019   -0.0033    0.0161    0.0019    0.0080   -0.0255
    70 C6     3d0        0.0001    0.0134    0.0052    0.0037    0.0004   -0.0032    0.0002   -0.0049    0.0139   -0.0204
    71 C6     3d1+      -0.0002   -0.0074   -0.0029   -0.0023   -0.0011    0.0014    0.0028    0.0039   -0.0119    0.0117
    72 C6     3d2+      -0.0002   -0.0029   -0.0014   -0.0033   -0.0020   -0.0004   -0.0036    0.0004   -0.0059    0.0070
    73 C19    1s        -0.0147   -0.0010    0.0066   -0.0353    0.0516   -0.0356   -0.0098    0.0110   -0.0022   -0.0051
    74 C19    2s        -0.0066   -0.0041   -0.0055    0.1726   -0.3090    0.2738    0.0454   -0.0870    0.0392    0.0381
    75 C19    3s        -0.0397   -0.0003    0.0201   -0.0736    0.0983   -0.0566   -0.0247    0.0251   -0.0033   -0.0103
    76 C19    4s        -0.0045    0.0017    0.0033   -0.0159    0.0218   -0.0129   -0.0058    0.0073   -0.0019   -0.0026
    77 C19    2px       -0.0078    0.0050   -0.0227    0.0436   -0.0258   -0.0074   -0.0279    0.0529   -0.0467   -0.0463
    78 C19    3px       -0.0068    0.0009    0.0006    0.0043    0.0053   -0.0019    0.0031   -0.0055    0.0033    0.0074
    79 C19    4px        0.0080    0.0003   -0.0000   -0.0029    0.0109   -0.0119   -0.0030    0.0033   -0.0048   -0.0030
    80 C19    2py        0.0191    0.0046    0.0001    0.0292   -0.0238   -0.0022   -0.0275    0.0664   -0.0261   -0.0806
    81 C19    3py       -0.0102    0.0057    0.0081   -0.0193    0.0264   -0.0160    0.0021   -0.0096   -0.0044    0.0097
    82 C19    4py        0.0041   -0.0000    0.0005   -0.0068    0.0144   -0.0143   -0.0045    0.0119    0.0001   -0.0031
    83 C19    2pz        0.0082    0.0046   -0.0074    0.0090   -0.0141    0.0113    0.0022    0.0148   -0.0140   -0.0041
    84 C19    3pz        0.0052    0.0056   -0.0055    0.0014   -0.0067    0.0091    0.0072    0.0058   -0.0004    0.0051
    85 C19    4pz        0.0012    0.0010    0.0005   -0.0018    0.0022   -0.0026    0.0009    0.0031   -0.0009    0.0002
    86 C19    3d2-       0.0012    0.0014   -0.0051    0.0083   -0.0071    0.0007   -0.0033    0.0083   -0.0015   -0.0061
    87 C19    3d1-       0.0010    0.0000    0.0003    0.0014   -0.0018    0.0008   -0.0002    0.0011   -0.0010   -0.0014
    88 C19    3d0        0.0011   -0.0001    0.0007   -0.0056    0.0063   -0.0026    0.0014   -0.0036    0.0037    0.0040
    89 C19    3d1+      -0.0010    0.0001   -0.0007    0.0014   -0.0008   -0.0005   -0.0011    0.0018   -0.0009   -0.0012
    90 C19    3d2+      -0.0064    0.0013   -0.0032   -0.0036    0.0053   -0.0029    0.0006   -0.0026    0.0014    0.0046
    91 N2     1s        -0.0188   -0.0100    0.0360   -0.0068   -0.0015    0.0048   -0.0014    0.0051    0.0018    0.0020
    92 N2     2s         0.1651    0.1320   -0.5751    0.1129    0.1334   -0.1978   -0.0156   -0.1006    0.0059    0.0655
    93 N2     3s        -0.0444   -0.0188    0.0577   -0.0095    0.0052   -0.0002   -0.0058    0.0099    0.0041    0.0110
    94 N2     4s        -0.0116   -0.0064    0.0214   -0.0026   -0.0012    0.0022   -0.0016    0.0030    0.0000    0.0015
    95 N2     2px       -0.0247    0.0028    0.0139   -0.1063    0.0732    0.0720    0.1392   -0.3764   -0.0324    0.0245
    96 N2     3px        0.0287   -0.0031    0.0080    0.0417    0.0087   -0.0408   -0.0488    0.1029   -0.0039   -0.0037
    97 N2     4px       -0.0038    0.0016   -0.0031   -0.0005    0.0073   -0.0053   -0.0023    0.0008   -0.0039   -0.0007
    98 N2     2py        0.0296   -0.0003    0.0125   -0.1107    0.0465    0.0705    0.0280    0.1624    0.3255    0.1380
    99 N2     3py       -0.0014   -0.0243    0.0585    0.0429    0.0079   -0.0693   -0.0159   -0.0235   -0.0591   -0.0210
   100 N2     4py       -0.0080   -0.0044    0.0149   -0.0018    0.0008   -0.0049   -0.0052    0.0087   -0.0001    0.0001
   101 N2     2pz       -0.0056    0.0003    0.0131   -0.0366   -0.0117    0.0017    0.0056    0.0405   -0.0320    0.0905
   102 N2     3pz       -0.0045   -0.0094    0.0076   -0.0079   -0.0066   -0.0162    0.0061   -0.0057   -0.0016   -0.0209
   103 N2     4pz       -0.0030   -0.0020    0.0047   -0.0044   -0.0025   -0.0023    0.0009    0.0017    0.0018   -0.0037
   104 N2     3d2-      -0.0026    0.0024   -0.0071   -0.0044   -0.0015    0.0094    0.0041    0.0032    0.0139    0.0045
   105 N2     3d1-       0.0000    0.0011   -0.0027   -0.0005   -0.0001   -0.0013   -0.0005   -0.0031   -0.0056    0.0037
   106 N2     3d0       -0.0035   -0.0029    0.0146   -0.0009   -0.0029    0.0026    0.0012   -0.0005   -0.0022    0.0006
   107 N2     3d1+      -0.0000    0.0001   -0.0005   -0.0001   -0.0014    0.0007   -0.0012    0.0028    0.0001    0.0022
   108 N2     3d2+       0.0046    0.0006   -0.0033    0.0093   -0.0026   -0.0074   -0.0080    0.0188    0.0012   -0.0032
   109 N5     1s        -0.0022   -0.0408   -0.0107   -0.0026    0.0030    0.0013   -0.0032   -0.0007    0.0039   -0.0019
   110 N5     2s         0.0105    0.5613    0.1885   -0.0069   -0.1139   -0.1876    0.1666   -0.0155    0.1337   -0.1308
   111 N5     3s        -0.0038   -0.0792   -0.0202   -0.0154   -0.0045   -0.0109   -0.0021   -0.0032    0.0185   -0.0102
   112 N5     4s        -0.0003   -0.0256   -0.0078   -0.0046   -0.0011   -0.0004   -0.0021   -0.0002    0.0016   -0.0007
   113 N5     2px       -0.0055    0.0055   -0.0096   -0.0506   -0.0436   -0.0131   -0.1168   -0.0543    0.0400    0.0698
   114 N5     3px       -0.0095    0.0137   -0.0042   -0.0008    0.0224    0.0107    0.0372    0.0028   -0.0112   -0.0121
   115 N5     4px       -0.0024   -0.0005   -0.0014   -0.0044    0.0027    0.0014    0.0004   -0.0011   -0.0012   -0.0017
   116 N5     2py       -0.0116    0.0013    0.0128    0.0274    0.0243    0.0333   -0.3539   -0.1933    0.2739   -0.1444
   117 N5     3py       -0.0150   -0.0463   -0.0063   -0.0203   -0.0361   -0.0482    0.0760    0.0174   -0.0534    0.0044
   118 N5     4py       -0.0038   -0.0128    0.0002   -0.0061   -0.0011   -0.0051   -0.0079   -0.0019   -0.0003   -0.0004
   119 N5     2pz       -0.0208   -0.0321    0.0310    0.1402    0.1762    0.0812    0.1755    0.0601    0.0136   -0.3321
   120 N5     3pz       -0.0279   -0.0148    0.0283   -0.0609   -0.0642   -0.0710   -0.0438   -0.0153   -0.0229    0.0568
   121 N5     4pz       -0.0046   -0.0010    0.0058   -0.0004    0.0012   -0.0062   -0.0018   -0.0006   -0.0017    0.0068
   122 N5     3d2-       0.0000    0.0031    0.0012   -0.0029   -0.0044   -0.0046    0.0021    0.0010   -0.0035    0.0047
   123 N5     3d1-      -0.0001   -0.0012    0.0001    0.0078    0.0119    0.0073    0.0159    0.0069   -0.0008   -0.0123
   124 N5     3d0        0.0011    0.0139    0.0028   -0.0010    0.0001    0.0037   -0.0105   -0.0032    0.0062    0.0005
   125 N5     3d1+      -0.0002   -0.0098   -0.0030   -0.0002    0.0003   -0.0006    0.0039    0.0020   -0.0024    0.0014
   126 N5     3d2+       0.0002   -0.0077   -0.0034   -0.0012    0.0011    0.0055   -0.0067   -0.0012    0.0003    0.0005
   127 O7     1s        -0.0238    0.0021   -0.0049   -0.0018    0.0028   -0.0014    0.0026   -0.0099   -0.0047    0.0032
   128 O7     2s         0.6660   -0.1215    0.3186   -0.1550    0.1400   -0.0302    0.0814   -0.2967   -0.1185    0.0547
   129 O7     3s        -0.0294   -0.0007    0.0044   -0.0130    0.0145   -0.0065    0.0096   -0.0353   -0.0159    0.0098
   130 O7     4s        -0.0124    0.0009   -0.0015   -0.0022    0.0026   -0.0016    0.0017   -0.0068   -0.0033    0.0019
   131 O7     2px        0.0837   -0.0018   -0.0000   -0.0019    0.0152   -0.0243   -0.0453    0.1368    0.0660   -0.0107
   132 O7     3px       -0.0214    0.0080   -0.0081   -0.0072    0.0054    0.0087    0.0027   -0.0191   -0.0090   -0.0007
   133 O7     4px       -0.0007    0.0018   -0.0016   -0.0016    0.0004    0.0032    0.0001   -0.0022   -0.0004   -0.0003
   134 O7     2py       -0.1149    0.0222   -0.0507   -0.0118    0.0190   -0.0171    0.0129   -0.0947   -0.0712    0.0520
   135 O7     3py        0.0396    0.0007    0.0004    0.0063   -0.0101    0.0027   -0.0057    0.0190    0.0066   -0.0063
   136 O7     4py        0.0008    0.0012    0.0005   -0.0013   -0.0003    0.0016   -0.0004    0.0018    0.0010   -0.0004
   137 O7     2pz       -0.0180    0.0052   -0.0051   -0.0099    0.0034    0.0009   -0.0010   -0.0169   -0.0132    0.0062
   138 O7     3pz        0.0039    0.0021   -0.0000   -0.0013   -0.0021    0.0042   -0.0024    0.0005    0.0009   -0.0020
   139 O7     4pz       -0.0004    0.0006    0.0000   -0.0005   -0.0001    0.0015   -0.0009   -0.0002    0.0003   -0.0003
   140 O7     3d2-      -0.0168    0.0020   -0.0042    0.0007   -0.0021    0.0021    0.0025   -0.0087   -0.0046    0.0014
   141 O7     3d1-       0.0030   -0.0005    0.0015    0.0000   -0.0003    0.0006   -0.0000    0.0004    0.0010   -0.0008
   142 O7     3d0       -0.0100    0.0015   -0.0044    0.0017   -0.0011   -0.0005    0.0006   -0.0029   -0.0024    0.0009
   143 O7     3d1+      -0.0021    0.0006   -0.0002   -0.0003   -0.0001    0.0002    0.0003   -0.0011   -0.0010    0.0005
   144 O7     3d2+      -0.0066    0.0018   -0.0052   -0.0003    0.0028   -0.0039   -0.0016    0.0020   -0.0004    0.0026
   145 O8     1s         0.0008    0.0027    0.0007    0.0031    0.0027   -0.0024    0.0135    0.0006    0.0151    0.0146
   146 O8     2s        -0.0615   -0.3063   -0.0201    0.1763    0.0984   -0.0876    0.3487    0.0197    0.2509    0.2486
   147 O8     3s        -0.0011   -0.0083   -0.0000    0.0137    0.0095   -0.0096    0.0428    0.0014    0.0430    0.0414
   148 O8     4s         0.0003    0.0004   -0.0003    0.0018    0.0012   -0.0019    0.0082    0.0002    0.0087    0.0089
   149 O8     2px        0.0017    0.0030   -0.0033   -0.0051    0.0043    0.0064    0.0384    0.0223    0.0242    0.0596
   150 O8     3px       -0.0020   -0.0018    0.0015    0.0028    0.0015   -0.0030   -0.0041   -0.0047   -0.0014   -0.0042
   151 O8     4px       -0.0008   -0.0008    0.0008    0.0014    0.0002   -0.0014   -0.0001   -0.0014    0.0001   -0.0006
   152 O8     2py        0.0134    0.0355    0.0016    0.0316    0.0235   -0.0251    0.2178    0.0148    0.2915    0.3260
[...]
AIVX     1  Mu1.0001  In1.027 Se1.045               0.09331324     -0.00095107      0.00201257     -0.00000191
AIVX     1  Mu1.0001  In1.028 Se1.045               0.11643588     -0.00012851      0.00059513     -0.00000008
AIVX     1  Mu1.0001  In1.029 Se1.045               0.10302410      0.00127617     -0.00278969     -0.00000356
AIVX     1  Mu1.0001  In1.021 Se1.046               0.29864561     -0.00111900      0.00202595     -0.00000227
AIVX     1  Mu1.0001  In1.022 Se1.046               0.18592031      0.00215539     -0.00403475     -0.00000870
AIVX     1  Mu1.0001  In1.023 Se1.046               0.27547952     -0.00066315      0.00120936     -0.00000080
AIVX     1  Mu1.0001  In1.024 Se1.046               0.26352476      0.00010979     -0.00020640     -0.00000002
AIVX     1  Mu1.0001  In1.025 Se1.046               0.24341119     -0.00162099      0.00267574     -0.00000434
AIVX     1  Mu1.0001  In1.026 Se1.046               0.23870878      0.00021793     -0.00039636     -0.00000009
AIVX     1  Mu1.0001  In1.027 Se1.046               0.11383765      0.00298505     -0.00616666     -0.00001841
AIVX     1  Mu1.0001  In1.028 Se1.046               0.13696029     -0.00005754      0.00020925     -0.00000001
AIVX     1  Mu1.0001  In1.029 Se1.046               0.12354850      0.00122654     -0.00244454     -0.00000300
AIVX     1  Mu1.0001  In1.022 Se1.047               0.19704394      0.00035112     -0.00076509     -0.00000027
AIVX     1  Mu1.0001  In1.023 Se1.047               0.28660314      0.00048599     -0.00086938     -0.00000042
AIVX     1  Mu1.0001  In1.024 Se1.047               0.27464838      0.00032546     -0.00053786     -0.00000018
AIVX     1  Mu1.0001  In1.025 Se1.047               0.25453481     -0.00051218      0.00097901     -0.00000050
AIVX     1  Mu1.0001  In1.026 Se1.047               0.24983240     -0.00095430      0.00158269     -0.00000151
AIVX     1  Mu1.0001  In1.027 Se1.047               0.12496127      0.00098655     -0.00192638     -0.00000190
AIVX     1  Mu1.0001  In1.028 Se1.047               0.14808391      0.00064310     -0.00162773     -0.00000105
AIVX     1  Mu1.0001  In1.029 Se1.047               0.13467213     -0.00008558      0.00027390     -0.00000002
AIVX     1  Mu1.0001  In1.022 Se1.048               0.21682244     -0.00023728      0.00011726     -0.00000003
AIVX     1  Mu1.0001  In1.024 Se1.048               0.29442688      0.00055857      0.00006122      0.00000003
AIVX     1  Mu1.0001  In1.025 Se1.048               0.27431331      0.00101998     -0.00244959     -0.00000250
AIVX     1  Mu1.0001  In1.026 Se1.048               0.26961090      0.00060353     -0.00111733     -0.00000067
AIVX     1  Mu1.0001  In1.027 Se1.048               0.14473977     -0.00003690     -0.00060592      0.00000002
AIVX     1  Mu1.0001  In1.028 Se1.048               0.16786241     -0.00022142      0.00096445     -0.00000021
AIVX     1  Mu1.0001  In1.029 Se1.048               0.15445063      0.00062771     -0.00126541     -0.00000079
AIVX     1  Mu1.0001  In1.022 Se1.049               0.22207555     -0.00254188      0.00453219     -0.00001152
AIVX     1  Mu1.0001  In1.024 Se1.049               0.29967999     -0.00129222      0.00171115     -0.00000221
AIVX     1  Mu1.0001  In1.025 Se1.049               0.27956643     -0.00058377      0.00128667     -0.00000075
AIVX     1  Mu1.0001  In1.026 Se1.049               0.27486402     -0.00137859      0.00234614     -0.00000323
AIVX     1  Mu1.0001  In1.027 Se1.049               0.14999288     -0.00100955      0.00221079     -0.00000223
AIVX     1  Mu1.0001  In1.028 Se1.049               0.17311552      0.00020122     -0.00089470     -0.00000018
AIVX     1  Mu1.0001  In1.029 Se1.049               0.15970374      0.00020575     -0.00050376     -0.00000010
AIVX     1  Mu1.0001  In1.022 Se1.050               0.23685814      0.00179322     -0.00299367     -0.00000537
AIVX     1  Mu1.0001  In1.025 Se1.050               0.29434902     -0.00134354      0.00201002     -0.00000270
AIVX     1  Mu1.0001  In1.026 Se1.050               0.28964661     -0.00006281      0.00030707     -0.00000002
AIVX     1  Mu1.0001  In1.027 Se1.050               0.16477548      0.00066633     -0.00130128     -0.00000087
AIVX     1  Mu1.0001  In1.028 Se1.050               0.18789812      0.00120829     -0.00289444     -0.00000350
AIVX     1  Mu1.0001  In1.029 Se1.050               0.17448634      0.00071619     -0.00130591     -0.00000094
AIVX     1  Mu1.0001  In1.022 Se1.051               0.23134570     -0.00185741      0.00342333     -0.00000636
AIVX     1  Mu1.0001  In1.025 Se1.051               0.28883658     -0.00030839      0.00120124     -0.00000037
AIVX     1  Mu1.0001  In1.026 Se1.051               0.28413417     -0.00303028      0.00489997     -0.00001485
AIVX     1  Mu1.0001  In1.027 Se1.051               0.15926304     -0.00027194      0.00114202     -0.00000031
AIVX     1  Mu1.0001  In1.028 Se1.051               0.18238568     -0.00044642      0.00066910     -0.00000030
AIVX     1  Mu1.0001  In1.029 Se1.051               0.16897390     -0.00125621      0.00233830     -0.00000294
AIVX     1  Mu1.0001  In1.022 Se1.052               0.26871032     -0.00019912      0.00019781     -0.00000004
AIVX     1  Mu1.0001  In1.027 Se1.052               0.19662766      0.00194391     -0.00295406     -0.00000574
AIVX     1  Mu1.0001  In1.028 Se1.052               0.21975030     -0.00040908      0.00051949     -0.00000021
AIVX     1  Mu1.0001  In1.029 Se1.052               0.20633851     -0.00076065      0.00140274     -0.00000107
AIVX     1  Mu1.0001  In1.022 Se1.053               0.28813010     -0.00131677      0.00179174     -0.00000236
AIVX     1  Mu1.0001  In1.027 Se1.053               0.21604744     -0.00083868      0.00104072     -0.00000087
AIVX     1  Mu1.0001  In1.028 Se1.053               0.23917008      0.00019779     -0.00049097     -0.00000010
AIVX     1  Mu1.0001  In1.029 Se1.053               0.22575829     -0.00187285      0.00324957     -0.00000609
AIVX     1  Mu1.0001  In1.027 Se1.054               0.22880590      0.00014748     -0.00017230     -0.00000003
AIVX     1  Mu1.0001  In1.028 Se1.054               0.25192854     -0.00008548      0.00038323     -0.00000003
AIVX     1  Mu1.0001  In1.029 Se1.054               0.23851676      0.00031041     -0.00063766     -0.00000020
AIVX     1  Mu1.0001  In1.027 Se1.055               0.24904376     -0.00000446      0.00044994     -0.00000000
AIVX     1  Mu1.0001  In1.028 Se1.055               0.27216640     -0.00172928      0.00306256     -0.00000530
AIVX     1  Mu1.0001  In1.029 Se1.055               0.25875462     -0.00147197      0.00208726     -0.00000307
AIVX     1  Mu1.0001  In1.027 Se1.056               0.24075068     -0.00111237      0.00218017     -0.00000243
AIVX     1  Mu1.0001  In1.028 Se1.056               0.26387332     -0.00160292      0.00285983     -0.00000458
AIVX     1  Mu1.0001  In1.029 Se1.056               0.25046154      0.00090963     -0.00158245     -0.00000144
AIVX     1  Mu1.0001  In1.027 Se1.057               0.27674159      0.00182500     -0.00233299     -0.00000426
AIVX     1  Mu1.0001  In1.028 Se1.057               0.29986422      0.00099688     -0.00178306     -0.00000178
AIVX     1  Mu1.0001  In1.029 Se1.057               0.28645244     -0.00022943      0.00010221     -0.00000002
AIVX     1  Mu1.0001  In1.027 Se1.058               0.27463431     -0.00028459      0.00014198     -0.00000004
AIVX     1  Mu1.0001  In1.028 Se1.058               0.29775695     -0.00015303      0.00007260     -0.00000001
AIVX     1  Mu1.0001  In1.029 Se1.058               0.28434517     -0.00127120      0.00223203     -0.00000284
AIVX     1  Mu1.0001  In1.027 Se1.059               0.29450310     -0.00133439      0.00188900     -0.00000252
--
 
   (Skipping property calculation,
    use PROP keyword to activate)
--
 
  Total CASPT2 energies:
::    CASPT2 Root  1     Total energy:   -455.37951030
::    CASPT2 Root  2     Total energy:   -455.16764950
::    CASPT2 Root  3     Total energy:   -455.17511297
::    CASPT2 Root  4     Total energy:   -455.12878866
::    CASPT2 Root  5     Total energy:   -455.12070941
::    CASPT2 Root  6     Total energy:   -455.10544900
::    CASPT2 Root  7     Total energy:   -455.08073452
 
++ Multi-State CASPT2 section:
********************************************************************************
  MULTI-STATE CASPT2 SECTION
--------------------------------------------------------------------------------
 
  Output diagonal energies have been shifted. Add   -455.000000000000     
 
  Effective Hamiltonian matrix (Symmetric):
 
                1               2               3               4               5
   1        -0.37951030
   2        -0.00023038     -0.16764950
   3         0.00010538     -0.00249119     -0.17511297
   4         0.01017905     -0.00091768     -0.00029754     -0.12878866
   5        -0.01701629      0.00134017      0.00080209      0.00093383     -0.12070941
   6        -0.01231985     -0.00180658     -0.00119548     -0.00171704     -0.02087681
   7         0.01291114      0.00060630     -0.00003497     -0.01065694      0.00959157
 
                6               7
   6        -0.10544900
   7         0.00572777     -0.08073452
 
       Total MS-CASPT2 energies:
::    MS-CASPT2 Root  1     Total energy:   -455.38238222
::    MS-CASPT2 Root  2     Total energy:   -455.17592429
::    MS-CASPT2 Root  3     Total energy:   -455.16695321
::    MS-CASPT2 Root  4     Total energy:   -455.13542582
::    MS-CASPT2 Root  5     Total energy:   -455.13032644
::    MS-CASPT2 Root  6     Total energy:   -455.09067095
::    MS-CASPT2 Root  7     Total energy:   -455.07627144
 
       Eigenvectors:
            0.99424167      0.00067917     -0.00036781     -0.09943876      0.03281779
            0.00099772      0.29550611      0.95459340      0.00350401     -0.02363850
           -0.00054452      0.95494901     -0.29625734      0.00044437     -0.00687347
           -0.04180939      0.01261898      0.02083075     -0.14022169      0.96864719
            0.07054216     -0.01338107     -0.01396874      0.79628383      0.11764406
            0.05027027      0.02024276      0.01840805      0.54420311      0.14279861
           -0.04723232     -0.00008046     -0.00387203     -0.20053021      0.16064875
 
           -0.00276939      0.02258681
           -0.02779619      0.00910492
           -0.01600222      0.00041087
           -0.05604696     -0.19125389
           -0.56662394      0.16024625
            0.82122474      0.07593241
            0.01869767      0.96508244
 
--
 
  THE ORIGINAL CI ARRAYS ARE NOW MIXED AS LINEAR
  COMBINATIONS, GIVEN BY THE EIGENVECTORS.
  A NEW JOBIPH FILE NAMED 'JOBMIX' IS PREPARED.
********************************************************************************
 
++ Mixed CI coefficients:
  The CI coefficients for the MIXED state nr.   1
--------------------------------------------------------------------------------
 CI COEFFICIENTS LARGER THAN  0.50D-01
  Occupation of active orbitals, and spin coupling
  of open shells. (u,d: Spin up or down).
  SGUGA info is (Midvert:IsyUp:UpperWalk/LowerWalk)
        Conf  SGUGA info        Occupation    Coefficient         Weight
           1  ( 1:1:   1/   1)   22222200       -0.961309       0.924115
           4  ( 1:1:   4/   1)   22222020        0.106835       0.011414
          41  ( 2:1:   1/   2)   22u222d0        0.104223       0.010862
          61  ( 2:1:   1/   3)   2u2222d0       -0.093702       0.008780
          84  ( 2:1:   4/   4)   u222220d       -0.116974       0.013683
         105  ( 3:1:   5/   1)   22202202        0.088172       0.007774
         135  ( 3:1:   5/   4)   u22d2202       -0.050190       0.002519
         171  ( 3:1:   1/   8)   20222220        0.081357       0.006619
         195  ( 3:1:   5/  10)   02222202        0.075560       0.005709
 
  The CI coefficients for the MIXED state nr.   2
--------------------------------------------------------------------------------
 CI COEFFICIENTS LARGER THAN  0.50D-01
  Occupation of active orbitals, and spin coupling
  of open shells. (u,d: Spin up or down).
  SGUGA info is (Midvert:IsyUp:UpperWalk/LowerWalk)
        Conf  SGUGA info        Occupation    Coefficient         Weight
          24  ( 2:1:   4/   1)   222u220d       -0.056974       0.003246
          44  ( 2:1:   4/   2)   22u2220d        0.942795       0.888862
          45  ( 2:1:   5/   2)   22u22dud        0.062086       0.003855
          47  ( 2:1:   7/   2)   22u22udd        0.085739       0.007351
          49  ( 2:1:   9/   2)   22u2202d       -0.092833       0.008618
         115  ( 3:1:   5/   2)   22ud2202        0.168148       0.028274
         142  ( 3:1:   2/   5)   220222ud       -0.085040       0.007232
         165  ( 3:1:   5/   7)   u2d22202       -0.129609       0.016798
         219  ( 4:1:   1/   4)   2uu222dd       -0.082730       0.006844
         220  ( 4:1:   2/   4)   2uu22d2d        0.056365       0.003177
         293  ( 5:1:   1/  15)   20u2222d        0.087784       0.007706
 
  The CI coefficients for the MIXED state nr.   3
--------------------------------------------------------------------------------
 CI COEFFICIENTS LARGER THAN  0.50D-01
  Occupation of active orbitals, and spin coupling
  of open shells. (u,d: Spin up or down).
  SGUGA info is (Midvert:IsyUp:UpperWalk/LowerWalk)
        Conf  SGUGA info        Occupation    Coefficient         Weight
           3  ( 1:1:   3/   1)   2222u2d0       -0.951029       0.904456
           5  ( 1:1:   5/   1)   2222ud20        0.127123       0.016160
           8  ( 1:1:   8/   1)   2222u20d        0.076893       0.005912
          43  ( 2:1:   3/   2)   22u2d220        0.061336       0.003762
          63  ( 2:1:   3/   3)   2u22d220        0.162273       0.026332
          86  ( 2:1:   6/   4)   u222d2ud       -0.059563       0.003548
          88  ( 2:1:   8/   4)   u222u2dd       -0.098359       0.009675
         107  ( 3:1:   7/   1)   2220u2d2        0.086465       0.007476
         137  ( 3:1:   7/   4)   u22du2d2       -0.060815       0.003699
         197  ( 3:1:   7/  10)   0222u2d2        0.078767       0.006204
 
  The CI coefficients for the MIXED state nr.   4
--------------------------------------------------------------------------------
 CI COEFFICIENTS LARGER THAN  0.50D-01
  Occupation of active orbitals, and spin coupling
  of open shells. (u,d: Spin up or down).
  SGUGA info is (Midvert:IsyUp:UpperWalk/LowerWalk)
        Conf  SGUGA info        Occupation    Coefficient         Weight
           2  ( 1:1:   2/   1)   22222ud0        0.905745       0.820374
           4  ( 1:1:   4/   1)   22222020        0.147249       0.021682
           7  ( 1:1:   7/   1)   22222u0d       -0.085839       0.007368
           8  ( 1:1:   8/   1)   2222u20d       -0.087044       0.007577
          24  ( 2:1:   4/   1)   222u220d       -0.123884       0.015347
          41  ( 2:1:   1/   2)   22u222d0        0.082870       0.006867
          61  ( 2:1:   1/   3)   2u2222d0       -0.074022       0.005479
          62  ( 2:1:   2/   3)   2u222d20       -0.243241       0.059166
          85  ( 2:1:   5/   4)   u2222dud        0.058037       0.003368
          87  ( 2:1:   7/   4)   u2222udd        0.096133       0.009242
         106  ( 3:1:   6/   1)   22202ud2       -0.082109       0.006742
         136  ( 3:1:   6/   4)   u22d2ud2        0.060382       0.003646
         171  ( 3:1:   1/   8)   20222220       -0.098013       0.009607
         196  ( 3:1:   6/  10)   02222ud2       -0.075268       0.005665
 
  The CI coefficients for the MIXED state nr.   5
--------------------------------------------------------------------------------
 CI COEFFICIENTS LARGER THAN  0.50D-01
  Occupation of active orbitals, and spin coupling
  of open shells. (u,d: Spin up or down).
  SGUGA info is (Midvert:IsyUp:UpperWalk/LowerWalk)
        Conf  SGUGA info        Occupation    Coefficient         Weight
           2  ( 1:1:   2/   1)   22222ud0        0.124179       0.015420
           7  ( 1:1:   7/   1)   22222u0d       -0.192473       0.037046
           8  ( 1:1:   8/   1)   2222u20d        0.321620       0.103439
          24  ( 2:1:   4/   1)   222u220d        0.850255       0.722934
          25  ( 2:1:   5/   1)   222u2dud        0.058744       0.003451
          27  ( 2:1:   7/   1)   222u2udd        0.090608       0.008210
          29  ( 2:1:   9/   1)   222u202d       -0.085999       0.007396
          41  ( 2:1:   1/   2)   22u222d0        0.084577       0.007153
          84  ( 2:1:   4/   4)   u222220d        0.077398       0.005991
         122  ( 3:1:   2/   3)   2u2d22ud        0.050444       0.002545
         135  ( 3:1:   5/   4)   u22d2202       -0.198456       0.039385
         195  ( 3:1:   5/  10)   02222202        0.066190       0.004381
         201  ( 4:1:   1/   1)   22uu22dd        0.051598       0.002662
         207  ( 4:1:   1/   2)   2u2u22dd       -0.075512       0.005702
         208  ( 4:1:   2/   2)   2u2u2d2d        0.054440       0.002964
         261  ( 5:1:   1/   7)   202u222d        0.079931       0.006389
 
  The CI coefficients for the MIXED state nr.   6
--------------------------------------------------------------------------------
 CI COEFFICIENTS LARGER THAN  0.50D-01
  Occupation of active orbitals, and spin coupling
  of open shells. (u,d: Spin up or down).
  SGUGA info is (Midvert:IsyUp:UpperWalk/LowerWalk)
        Conf  SGUGA info        Occupation    Coefficient         Weight
           2  ( 1:1:   2/   1)   22222ud0        0.110736       0.012262
           7  ( 1:1:   7/   1)   22222u0d        0.923166       0.852235
           8  ( 1:1:   8/   1)   2222u20d        0.073531       0.005407
          24  ( 2:1:   4/   1)   222u220d        0.156094       0.024365
          44  ( 2:1:   4/   2)   22u2220d        0.054127       0.002930
          45  ( 2:1:   5/   2)   22u22dud        0.137179       0.018818
          65  ( 2:1:   5/   3)   2u222dud       -0.150668       0.022701
          67  ( 2:1:   7/   3)   2u222udd       -0.160307       0.025698
         173  ( 3:1:   3/   8)   20222u2d        0.117760       0.013867
 
  The CI coefficients for the MIXED state nr.   7
--------------------------------------------------------------------------------
 CI COEFFICIENTS LARGER THAN  0.50D-01
  Occupation of active orbitals, and spin coupling
  of open shells. (u,d: Spin up or down).
  SGUGA info is (Midvert:IsyUp:UpperWalk/LowerWalk)
        Conf  SGUGA info        Occupation    Coefficient         Weight
           3  ( 1:1:   3/   1)   2222u2d0       -0.065472       0.004287
           8  ( 1:1:   8/   1)   2222u20d       -0.843182       0.710956
          10  ( 1:1:  10/   1)   2222udud        0.163847       0.026846
          12  ( 1:1:  12/   1)   2222uudd        0.242254       0.058687
          24  ( 2:1:   4/   1)   222u220d        0.326689       0.106726
          44  ( 2:1:   4/   2)   22u2220d        0.060710       0.003686
          46  ( 2:1:   6/   2)   22u2d2ud       -0.146812       0.021554
          48  ( 2:1:   8/   2)   22u2u2dd        0.176841       0.031273
          71  ( 2:1:  11/   3)   2u22ud2d        0.050941       0.002595
         135  ( 3:1:   5/   4)   u22d2202       -0.069698       0.004858
         174  ( 3:1:   4/   8)   2022u22d       -0.067653       0.004577
         205  ( 4:1:   5/   1)   22uud2d2        0.054339       0.002953
 
--
 
--- Stop Module: caspt2 at Tue Jun 10 22:50:07 2025 /rc=_RC_ALL_IS_WELL_ ---
*** files: xmldump
    saved to directory /home/pcaah4/diamide_project
--- Module caspt2 spent 6 minutes 54 seconds ---

.##################.
.# Happy landing! #.
.##################.

    Timing: Wall=697.16 User=607.37 System=80.28
******************************************************
*** WorkDir at /srv/COMMUNAL_SCRATCH/12505 cleaned ***
******************************************************
