   This run of MOLCAS is using the pymolcas driver

                             OPE
                             OPE          NMOL  CASOP  ENMOLC A   SO
                 OPE        NMOLC        AS  OP EN  MO LC     AS  OP
                OPENM       OL CA        SO  PE NM  OL CA     SOP EN
                OP EN      MO   LC       AS  OP ENMOL  CASO   PENMOL
                OP  EN     MO   LC       AS  OP EN     MO     LC ASO
               OP   E  NMOL  C  AS       OP  EN MO     LC     AS  OP
               OP  E   NMO   LC AS        OPEN  MO     LCASOP EN   M
               O  PEN   MO  LCA  SO
            OPE   NMO   L   CAS    OP
        OPENMOL  CASOP     ENMOL   CASOPE
     OPENMOLCA   SOPENMOLCASOPEN   MOLCASOPE
    OPENMOLCAS   OP           EN   MOL    CAS
    OPENMOLCAS       OP  ENM        O     LCA
    OPENMOLCAS    OPEN  MOLCASO     P  E  NMO
    OPENMOLCAS     OP               E  N  MOL
    OPENMOLCA   SO           PENM   O  L  CAS    OPEN    MO    LCAS
    OPENMOLCA   SOP           ENM   O  L  CAS   OP  EN  MOLC  AS   O
    OPENMOLCA   SOPE           NM      O  LCA   S      OP  EN MO
    OPENMOLC                AS         O  PEN   M      OL  CA  SOPE
    OPENMO        LCASOPE  NMOL        C  ASO   P      ENMOLC     AS
    OPE     NMO      LCA  SO     P     E   NM   OL  CA SO  PE N   MO
          OPENMOLCA            SOPE   NMO        LCAS  O    P  ENMO
     OPENMOLCASOPENMOLCASOPENMOLCASOPENMOLCA
        OPENMOLCASOPENMOLCASOPENMOLCASOPE
            OPENMOLCASOPENMOLCASOPENM
               OPENMOLCASOPENMOLCA        version: v23.06
                   OPENMOLCASO
                       OPE                tag:

 OpenMolcas is free software; you can redistribute it and/or modify it
 under the terms of the GNU Lesser General Public License version 2.1.
 OpenMolcas is distributed in the hope that it will be useful, but it
 is provided "as is" and without any express or implied warranties.
 For more details see the full text of the license in the file
 LICENSE or in <http://www.gnu.org/licenses/>.

                 Copyright (C) The OpenMolcas Authors
           For the author list and the recommended citation,
                   consult the file CONTRIBUTORS.md

           *************************************************
           * pymolcas version py2.24                       *
           *   build 4567b286dd94b1984b333a4ddf893180      *
           *   (after the EMIL interpreter by V. Veryazov) *
           *************************************************

configuration info
------------------
Host name: loginchem01.nottingham.ac.uk (Linux)
C Compiler ID: Intel
C flags: -std=gnu99 -gcc-sys -qopenmp
Fortran Compiler ID: Intel
Fortran flags: -fpp -i8 -heap-arrays -qopenmp
Definitions: _MOLCAS_;_I8_;_LINUX_
Parallel: OFF (GA=OFF)


   --------------------------------------------------------------------------------------------------
  |
  |              Project: orca_geometry_optimisation_45_45_BP86_def2-SVP_def2J_scf_cas1_ras12i11_cas8
  |       Submitted from: /home/pcaah4/diamide_project
  |         Scratch area: /srv/COMMUNAL_SCRATCH/12501
  |      Save outputs to: /home/pcaah4/diamide_project
  |               Molcas: /software/chemistry/openmolcas/openmolcas-23.06-openmp
  |
  | Scratch area is empty
  |
  |       MOLCAS_DRIVER = /software/chemistry/openmolcas/openmolcas-23.06-openmp/sbin/pymolcas
  | MOLCAS_KEEP_WORKDIR = NO
  |       MOLCAS_NPROCS = 1
  |       MOLCAS_SOURCE = /software/chemistry/openmolcas/openmolcas-23.06-openmp
  |    MOLCAS_STRUCTURE = 0
  |
   --------------------------------------------------------------------------------------------------

++ ---------   Input file   ---------

&SEWARD
TITLE
orca_geometry_optimisation_45_45_BP86_def2-SVP_def2J_scf_cas1_ras12i11
MULTIPOLES
2
SDIPOLE
ANGMOM
0 0 0
BASIS SET
C.ANO-S...4S3P1D.
C1           -0.098655   -0.069296   -0.015024 /Angstrom
C3            2.035861    1.217251    0.065198 /Angstrom
C4            1.541758    2.247490    1.106867 /Angstrom
C6            0.685468    2.526670    3.404293 /Angstrom
C19          -0.707155   -1.461539   -0.165165 /Angstrom
END OF BASIS
BASIS SET
N.ANO-S...4S3P1D.
N2            1.281814   -0.028445   -0.008286 /Angstrom
N5            1.246129    1.718012    2.338472 /Angstrom
END OF BASIS
BASIS SET
O.ANO-S...4S3P1D.
O7           -0.784601    0.944145    0.083234 /Angstrom
O8            1.561490    3.448148    0.857329 /Angstrom
END OF BASIS
BASIS SET
H.ANO-S...2S1P.
H9           -1.213949   -1.523347   -1.149562 /Angstrom
H10          -1.490066   -1.590762    0.607139 /Angstrom
H11           0.022610   -2.291644   -0.087666 /Angstrom
H12           1.797207   -0.897981   -0.149566 /Angstrom
H13           3.091491    0.967455    0.297606 /Angstrom
H14           2.023976    1.764782   -0.901456 /Angstrom
H15           1.140726    0.702836    2.388475 /Angstrom
H16           0.839944    3.586650    3.127006 /Angstrom
H17          -0.405569    2.352771    3.530544 /Angstrom
H18           1.193111    2.327610    4.371298 /Angstrom
END OF BASIS
END OF INPUT

&RASSCF
TITLE
orca_geometry_optimisation_45_45_BP86_def2-SVP_def2J_scf_cas1_ras12i11
LUMORB
SPIN
1
SYMMETRY
1
NACTEL
12  0  0
INACTIVE
29
DELETED  ! delete Rydberg orbitals from an initial CAS(12,11) if done
3
FROZEN
0
RAS2
8
ITERATIONS
64 25
CIROOT
7 7
1 2 3 4 5 6 7
1 1 1 1 1 1 1
LEVSHFT
0.3
CIMX
20
FILEorb = /home/pcaah4/diamide_project/cas/ras12i11/ras_orb/orca_geometry_optimisation_45_45_BP86_def2-SVP_def2J_scf_cas1_ras12i11.RasOrb
ALTEr
0
END OF INPUT

&RASSI
NROF JOBIPH
    1 7
    1 2 3 5 4 6 7
TOFILE
TRDI
TDMN
1.0D-6
END OF INPUT

&CASPT2
TITLE
orca_geometry_optimisation_45_45_BP86_def2-SVP_def2J_scf_cas1_ras12i11
MULTISTATE
7 1 2 3 4 5 6 7
SHIFT
0.35
MAXITER
50
END OF INPUT

-- ----------------------------------

--- Start Module: seward at Tue Jun 10 22:26:55 2025 ---
 
()()()()()()()()()()()()()()()()()()()()()()()()()()()()()()()()()()()()()()()()()()()()()()()()()()

                                              &SEWARD

                                   only a single process is used
                       available to each process: 2.0 GB of memory, 1 thread
                                            pid: 3143484
()()()()()()()()()()()()()()()()()()()()()()()()()()()()()()()()()()()()()()()()()()()()()()()()()()
 
               SEWARD will generate:
                  Multipole Moment integrals up to order  2
                  Kinetic Energy integrals
                  Nuclear Attraction integrals (point charge)
                  One-Electron Hamiltonian integrals
                  Velocity integrals
                  Orbital angular momentum around ( 0.0000  0.0000  0.0000 )
                  Velocity quadrupole around ( 1.4000  2.2211  1.6352 )
                  Two-Electron Repulsion integrals
 
 Title:
             orca_geometry_optimisation_45_45_BP86_def2-SVP_def2J_scf_cas1_ras12i11     
 
 
                   Integrals are discarded if absolute value <: 0.10E-13
                   Integral cutoff threshold is set to       <: 0.10E-15
 
++    Symmetry information:
      ---------------------
 
                    Character Table for C1 
 
                             E  
                    a        1  x, y, xy, Rz, z, xz, Ry, yz, Rx, I
--
 
 
++    Basis set information:
      ----------------------
 
 
      Basis set label: C.ANO-S...4S3P1D......
 
      Electronic valence basis set:
      ------------------
      Associated Effective Charge   6.000000 au
      Associated Actual Charge      6.000000 au
      Nuclear Model: Point charge
 
      Shell  nPrim  nBasis  Cartesian Spherical Contaminant
         s      10       4        X                  
         p       6       3        X                  
         d       3       1                 X         
 
 
      Basis set label: N.ANO-S...4S3P1D......
 
      Electronic valence basis set:
      ------------------
      Associated Effective Charge   7.000000 au
      Associated Actual Charge      7.000000 au
      Nuclear Model: Point charge
 
      Shell  nPrim  nBasis  Cartesian Spherical Contaminant
         s      10       4        X                  
         p       6       3        X                  
         d       3       1                 X         
 
 
      Basis set label: O.ANO-S...4S3P1D......
 
      Electronic valence basis set:
      ------------------
      Associated Effective Charge   8.000000 au
      Associated Actual Charge      8.000000 au
      Nuclear Model: Point charge
 
      Shell  nPrim  nBasis  Cartesian Spherical Contaminant
         s      10       4        X                  
         p       6       3        X                  
         d       3       1                 X         
 
 
      Basis set label: H.ANO-S...2S1P......
 
      Electronic valence basis set:
      ------------------
      Associated Effective Charge   1.000000 au
      Associated Actual Charge      1.000000 au
      Nuclear Model: Point charge
 
      Shell  nPrim  nBasis  Cartesian Spherical Contaminant
         s       7       2        X                  
         p       3       1        X                  
--
 
 
++    Molecular structure info:
      -------------------------
 
                    ************************************************ 
                    **** Cartesian Coordinates / Bohr, Angstrom **** 
                    ************************************************ 
 
     Center  Label                x              y              z                     x              y              z
        1      C1              -0.186431      -0.130950      -0.028391             -0.098655      -0.069296      -0.015024
        2      C3               3.847220       2.300271       0.123206              2.035861       1.217251       0.065198
        3      C4               2.913500       4.247141       2.091675              1.541758       2.247490       1.106867
        4      C6               1.295347       4.774714       6.433181              0.685468       2.526670       3.404293
        5      C19             -1.336329      -2.761908      -0.312117             -0.707155      -1.461539      -0.165165
        6      N2               2.422277      -0.053753      -0.015658              1.281814      -0.028445      -0.008286
        7      N5               2.354843       3.246572       4.419072              1.246129       1.718012       2.338472
        8      O7              -1.482681       1.784175       0.157289             -0.784601       0.944145       0.083234
        9      O8               2.950788       6.516055       1.620117              1.561490       3.448148       0.857329
       10      H9              -2.294031      -2.878709      -2.172357             -1.213949      -1.523347      -1.149562
       11      H10             -2.815817      -3.006105       1.147326             -1.490066      -1.590762       0.607139
       12      H11              0.042727      -4.330580      -0.165665              0.022610      -2.291644      -0.087666
       13      H12              3.396229      -1.696938      -0.282639              1.797207      -0.897981      -0.149566
       14      H13              5.842071       1.828225       0.562394              3.091491       0.967455       0.297606
       15      H14              3.824760       3.334955      -1.703505              2.023976       1.764782      -0.901456
       16      H15              2.155660       1.328168       4.513564              1.140726       0.702836       2.388475
       17      H16              1.587264       6.777786       5.909185              0.839944       3.586650       3.127006
       18      H17             -0.766414       4.446093       6.671761             -0.405569       2.352771       3.530544
       19      H18              2.254653       4.398545       8.260556              1.193111       2.327610       4.371298
 
                    ************************************************* 
                    **** InterNuclear Distances / Bohr, Angstrom **** 
                    ************************************************* 
 
     Atom centers         Bohr        Angstrom
   13 H12       6 N2      1.928709        1.020629
   16 H15       7 N5      1.931030        1.021857
   17 H16       4 C6      2.090953        1.106485
   11 H10       5 C19     2.092484        1.107295
   12 H11       5 C19     2.093794        1.107988
   10 H9        5 C19     2.095550        1.108917
   14 H13       2 C3      2.096460        1.109399
   19 H18       4 C6      2.097873        1.110146
   15 H14       2 C3      2.099512        1.111014
   18 H17       4 C6      2.101374        1.111999
    9 O8        3 C4      2.317700        1.226474
    8 O7        1 C1      2.320011        1.227697
    7 N5        3 C4      2.594226        1.372805
    6 N2        1 C1      2.609881        1.381090
    7 N5        4 C6      2.741238        1.450601
    6 N2        2 C3      2.755209        1.457994
    5 C19       1 C1      2.885257        1.526812
    3 C4        2 C3      2.921815        1.546158
   11 H10      10 H9      3.362854        1.779546
   15 H14      14 H13     3.387340        1.792503
   18 H17      17 H16     3.399723        1.799056
   12 H11      10 H9      3.405170        1.801938
   19 H18      17 H16     3.411032        1.805041
   12 H11      11 H10     3.413129        1.806150
   19 H18      18 H17     3.413704        1.806455
   16 H15       3 C4      3.867851        2.046778
   17 H16       7 N5      3.908847        2.068473
   13 H12       1 C1      3.918215        2.073430
   14 H13       6 N2      3.946008        2.088137
   15 H14       3 C4      4.008226        2.121062
   19 H18       7 N5      4.011743        2.122923
   18 H17       7 N5      4.031836        2.133556
   15 H14       6 N2      4.037218        2.136404
   16 H15       4 C6      4.037791        2.136707
   13 H12       2 C3      4.042992        2.139459
   11 H10       1 C1      4.069704        2.153595
   10 H9        1 C1      4.072928        2.155301
   14 H13       3 C4      4.094677        2.166810
   12 H11       1 C1      4.208116        2.226839
   13 H12      12 H11     4.265645        2.257282
    8 O7        6 N2      4.319328        2.285690
    9 O8        7 N5      4.344976        2.299262
   14 H13      13 H12     4.372985        2.314084
   17 H16       9 O8      4.508193        2.385633
    9 O8        2 C3      4.562583        2.414415
    8 O7        5 C19     4.572597        2.419714
    6 N2        5 C19     4.642103        2.456495
    7 N5        2 C3      4.645119        2.458091
    4 C6        3 C4      4.663199        2.467659
   15 H14       9 O8      4.682915        2.478092
    2 C3        1 C1      4.712129        2.493551
   16 H15       6 N2      4.742852        2.509809
   17 H16       3 C4      4.768275        2.523263
   18 H17      16 H15     4.787253        2.533305
   16 H15       2 C3      4.804331        2.542343
    6 N2        3 C4      4.814545        2.547747
   19 H18      16 H15     4.845304        2.564025
   13 H12       5 C19     4.850994        2.567035
   12 H11       6 N2      4.896530        2.591132
   11 H10       8 O7      5.069932        2.682892
   15 H14      13 H12     5.246184        2.776161
   10 H9        8 O7      5.275228        2.791530
   16 H15       1 C1      5.314487        2.812305
    8 O7        2 C3      5.354938        2.833711
    9 O8        4 C6      5.379437        2.846676
   14 H13       7 N5      5.389475        2.851987
    8 O7        3 C4      5.397634        2.856305
   16 H15      14 H13     5.426917        2.871801
    7 N5        6 N2      5.528429        2.925519
   15 H14       1 C1      5.559511        2.941966
   14 H13       9 O8      5.608391        2.967833
   17 H16      16 H15     5.654129        2.992036
--
 
 
            Nuclear Potential Energy            465.93811903 au
 
 
      Basis set specifications :
      Symmetry species         a  
      Basis functions          212
 
 
      Input file to MOLDEN was generated!
 
--- Stop Module: seward at Tue Jun 10 22:28:46 2025 /rc=_RC_ALL_IS_WELL_ ---
*** files: orca_geometry_optimisation_45_45_BP86_def2-SVP_def2J_scf_cas1_ras12i11_cas8.GssOrb
           orca_geometry_optimisation_45_45_BP86_def2-SVP_def2J_scf_cas1_ras12i11_cas8.guessorb.molden xmldump
    saved to directory /home/pcaah4/diamide_project
--- Module seward spent 1 minute 51 seconds ---

*** symbolic link created: INPORB -> orca_geometry_optimisation_45_45_BP86_def2-SVP_def2J_scf_cas1_ras12i11_cas8.GssOrb
--- Start Module: rasscf at Tue Jun 10 22:28:47 2025 ---
 
()()()()()()()()()()()()()()()()()()()()()()()()()()()()()()()()()()()()()()()()()()()()()()()()()()

                                              &RASSCF

                                   only a single process is used
                       available to each process: 2.0 GB of memory, 1 thread
                                            pid: 3143540
()()()()()()()()()()()()()()()()()()()()()()()()()()()()()()()()()()()()()()()()()()()()()()()()()()
 
 
      Header of the ONEINT file:
      --------------------------
      orca_geometry_optimisation_45_45_BP86_def2-SVP_def2J_scf_cas1_ras12i11
      Integrals generated by Gateway/Seward, Tue Jun 10 22:26:56 2025
 
 
      OrdInt status: non-squared
 
 
      Cartesian coordinates in Angstrom:
      -----------------------------------------------------
      No.  Label        X            Y            Z        
      -----------------------------------------------------
       1   C1        -0.09865500  -0.06929600  -0.01502400
       2   C3         2.03586100   1.21725100   0.06519800
       3   C4         1.54175800   2.24749000   1.10686700
       4   C6         0.68546800   2.52667000   3.40429300
       5   C19       -0.70715500  -1.46153900  -0.16516500
       6   N2         1.28181400  -0.02844500  -0.00828600
       7   N5         1.24612900   1.71801200   2.33847200
       8   O7        -0.78460100   0.94414500   0.08323400
       9   O8         1.56149000   3.44814800   0.85732900
      10   H9        -1.21394900  -1.52334700  -1.14956200
      11   H10       -1.49006600  -1.59076200   0.60713900
      12   H11        0.02261000  -2.29164400  -0.08766600
      13   H12        1.79720700  -0.89798100  -0.14956600
      14   H13        3.09149100   0.96745500   0.29760600
      15   H14        2.02397600   1.76478200  -0.90145600
      16   H15        1.14072600   0.70283600   2.38847500
      17   H16        0.83994400   3.58665000   3.12700600
      18   H17       -0.40556900   2.35277100   3.53054400
      19   H18        1.19311100   2.32761000   4.37129800
      -----------------------------------------------------
      Nuclear repulsion energy =  465.93811903
 
++    Wave function specifications:
      -----------------------------
 
      Number of closed shell electrons          58
      Number of electrons in active shells      12
      Max number of holes in RAS1 space          0
      Max nr of electrons in RAS3 space          0
      Number of inactive orbitals               29
      Number of active orbitals                  8
      Number of secondary orbitals             172
      Spin quantum number                      0.0
      State symmetry                             1
--
 
++    Orbital specifications:
      -----------------------
 
      Symmetry species                           1
                                                 a
      Frozen orbitals                            0
      Inactive orbitals                         29
      Active orbitals                            8
      RAS1 orbitals                              0
      RAS2 orbitals                              8
      RAS3 orbitals                              0
      Secondary orbitals                       172
      Deleted orbitals                           3
      Number of basis functions                212
--
 
++    CI expansion specifications:
      ----------------------------
 
      Number of CSFs                           336
      Number of determinants                   406
      Number of root(s) required                 7
      Root chosen for geometry opt.              7
      CI roots used                              1     2     3     4     5     6     7
      weights                                0.143 0.143 0.143 0.143 0.143 0.143 0.143
      highest root included in the CI            7
      max. size of the explicit Hamiltonian    200
--
 
++    Optimization specifications:
      ----------------------------
 
      RASSCF algorithm: Conventional
      Maximum number of macro iterations        64
      Maximum number of SX iterations           25
      Threshold for RASSCF energy            0.100E-07
      Threshold for max MO rotation          0.100E+00
      Threshold for max BLB element          0.100E-03
      Level shift parameter                  0.300E+00
      Make Quasi-Newton update
--
 
      The MO-coefficients are taken from the file:
      /home/pcaah4/diamide_project/cas/ras12i11/ras_orb/orca_geometry_optimisation_45_45_BP86_def2-SVP_def2J_scf_cas1_ras12i11.RasOrb                                                                                                                                 
      Title: RASSCF average (pseudo-natural) orbitals                                      
 
      Total molecular charge    0.00
 
      ************************************************************************************************************************
      *                                                                                                                      *
      *                                            Wave function control section                                             *
      *                                                                                                                      *
      ************************************************************************************************************************
 
 
                                         RASSCF iterations: Energy and convergence statistics
                                         ----------------------------------------------------
 
      Iter CI   SX   CI       RASSCF       Energy    max ROT     max BLB   max BLB  Level Ln srch  Step   QN   Walltime
          iter iter root      energy       change     param      element    value   shift minimum  type update hh:mm:ss
 Nr of preliminary CI iterations:   4
        1   1   25    0  -453.68857508    0.00E+00   0.69E-01   24  68 1 -0.17E-01*  0.15   0.00    SX    NO    0:00:13
        2   5   19    0  -453.70288137   -0.14E-01* -0.42E-01   36  38 1  0.72E-02*  0.13   0.00    SX    NO    0:00:06
        3   3   11    0  -453.70498934   -0.21E-02* -0.23E-01   36  38 1  0.41E-02*  0.14   0.00    SX    NO    0:00:07
        4   5   11    0  -453.70583381   -0.84E-03* -0.13E-01   35  38 1 -0.25E-02*  0.14   0.00    SX    NO    0:00:06
        5   5   11    0  -453.70605809   -0.22E-03* -0.21E-01   35  38 1 -0.17E-02*  0.14   1.43    QN   YES    0:00:06
        6   7   10    0  -453.70621924   -0.16E-03* -0.73E-03   22  99 1  0.78E-03*  0.14   0.95    QN   YES    0:00:06
        7   4    9    0  -453.70622028   -0.10E-05*  0.49E-03   20  99 1 -0.81E-03*  0.14   0.46    SX   YES    0:00:06
        8   8    9    0  -453.70623316   -0.13E-04* -0.61E-03   32  40 1 -0.24E-03*  0.14   0.92    QN   YES    0:00:06
        9   3    8    0  -453.70623429   -0.11E-05*  0.64E-03   20  99 1 -0.19E-03*  0.14   0.97    QN   YES    0:00:06
       10   6    8    0  -453.70623497   -0.68E-06* -0.37E-03   32  40 1  0.12E-03*  0.14   0.92    QN   YES    0:00:06
       11   3    8    0  -453.70623529   -0.32E-06*  0.17E-03   20  99 1 -0.49E-04   0.14   1.28    QN   YES    0:00:06
       12   4    7    0  -453.70623539   -0.97E-07* -0.36E-04   32  40 1 -0.22E-04   0.14   1.00    QN   YES    0:00:06
       13   1    6    0  -453.70623540   -0.10E-07* -0.11E-03   22  99 1 -0.16E-04   0.14   1.33    QN   YES    0:00:06
       14   5    7    0  -453.70623540    0.48E-08  -0.40E-04   32  40 1  0.28E-04   0.14   0.49    LS   YES    0:00:06
      Convergence after 14 iterations
       15   1    7    0  -453.70623541   -0.97E-08  -0.40E-04   32  40 1  0.22E-04   0.14   0.49    LS   YES    0:00:06
 
      ************************************************************************************************************************
                                                      Wave function printout:
                       occupation of active orbitals, and spin coupling of open shells (u,d: Spin up or down)
      ************************************************************************************************************************
 
      Note: transformation to natural orbitals
      has been made, which may change the order of the CSFs.
 
      printout of CI-coefficients larger than  0.05 for root  1
      energy=    -453.956835
      conf/sym  11111111     Coeff  Weight
             1  22222200   0.94970 0.90193
             7  22222u0d   0.13127 0.01723
            44  22u2220d   0.11672 0.01362
            64  2u22220d  -0.08024 0.00644
            81  u22222d0   0.11240 0.01263
           101  22202220  -0.08838 0.00781
           131  u22d2220  -0.05956 0.00355
           145  22022202  -0.09172 0.00841
           155  2ud22202   0.07294 0.00532
           175  20222202  -0.08950 0.00801
           191  02222220  -0.07572 0.00573
 
      printout of CI-coefficients larger than  0.05 for root  2
      energy=    -453.746440
      conf/sym  11111111     Coeff  Weight
             2  22222ud0  -0.08896 0.00791
             3  2222u2d0  -0.08608 0.00741
             8  2222u20d  -0.94211 0.88758
            16  2222ud02  -0.08243 0.00679
            44  22u2220d  -0.05915 0.00350
            54  22u2d202   0.12928 0.01671
            74  2u22d202  -0.16434 0.02701
            86  u222d2ud  -0.06143 0.00377
            88  u222u2dd   0.09996 0.00999
           104  2220u22d  -0.08991 0.00808
           134  u22du22d  -0.06065 0.00368
           194  0222u22d  -0.07566 0.00572
 
      printout of CI-coefficients larger than  0.05 for root  3
      energy=    -453.746073
      conf/sym  11111111     Coeff  Weight
             2  22222ud0  -0.93335 0.87113
             8  2222u20d   0.09262 0.00858
             9  222220ud  -0.11572 0.01339
            22  222u2d20   0.16617 0.02761
            41  22u222d0  -0.10236 0.01048
            45  22u22dud  -0.06427 0.00413
            47  22u22udd  -0.07985 0.00638
            67  2u222udd   0.08475 0.00718
            82  u2222d20   0.12237 0.01498
           146  22022ud2   0.09295 0.00864
           156  2ud22ud2  -0.06888 0.00474
           176  20222ud2   0.08594 0.00739
 
      printout of CI-coefficients larger than  0.05 for root  4
      energy=    -453.638536
      conf/sym  11111111     Coeff  Weight
             3  2222u2d0   0.40746 0.16602
             7  22222u0d  -0.11420 0.01304
            10  2222udud  -0.05887 0.00347
            12  2222uudd   0.06992 0.00489
            21  222u22d0  -0.79790 0.63664
            27  222u2udd   0.06240 0.00389
            41  22u222d0   0.23291 0.05425
            44  22u2220d   0.05305 0.00281
            46  22u2d2ud  -0.05234 0.00274
            48  22u2u2dd  -0.07422 0.00551
            81  u22222d0   0.08651 0.00748
           112  22ud22ud  -0.05357 0.00287
           131  u22d2220   0.18844 0.03551
           191  02222220   0.05036 0.00254
           201  22uu22dd  -0.08640 0.00746
           207  2u2u22dd   0.06926 0.00480
           250  220u22d2   0.08163 0.00666
           254  2udu22d2  -0.06247 0.00390
           262  202u22d2   0.07414 0.00550
 
      printout of CI-coefficients larger than  0.05 for root  5
      energy=    -453.625744
      conf/sym  11111111     Coeff  Weight
             1  22222200  -0.07360 0.00542
             2  22222ud0  -0.05168 0.00267
             3  2222u2d0  -0.19680 0.03873
             7  22222u0d  -0.11385 0.01296
            21  222u22d0   0.08775 0.00770
            41  22u222d0   0.46893 0.21990
            44  22u2220d   0.75530 0.57048
            45  22u22dud  -0.07939 0.00630
            64  2u22220d   0.09197 0.00846
           145  22022202   0.13917 0.01937
           152  2ud222ud   0.06878 0.00473
           155  2ud22202   0.19723 0.03890
           162  u2d222ud   0.05669 0.00321
           175  20222202  -0.07788 0.00607
           219  2uu222dd  -0.05084 0.00258
           225  u2u222dd  -0.09589 0.00920
           237  22u0222d  -0.07319 0.00536
           301  02u2222d   0.06297 0.00397
 
      printout of CI-coefficients larger than  0.05 for root  6
      energy=    -453.618788
      conf/sym  11111111     Coeff  Weight
             2  22222ud0   0.09445 0.00892
             3  2222u2d0  -0.14108 0.01990
             7  22222u0d  -0.07630 0.00582
            21  222u22d0  -0.26292 0.06913
            41  22u222d0  -0.75502 0.57006
            44  22u2220d   0.43783 0.19169
            45  22u22dud   0.17602 0.03098
            47  22u22udd  -0.05477 0.00300
            48  22u2u2dd   0.05436 0.00296
            65  2u222dud  -0.05035 0.00254
           113  22ud2u2d   0.05172 0.00268
           131  u22d2220   0.05429 0.00295
           145  22022202   0.06439 0.00415
           152  2ud222ud  -0.11306 0.01278
           155  2ud22202   0.11372 0.01293
           219  2uu222dd   0.13895 0.01931
           294  20u222d2   0.09478 0.00898
 
      printout of CI-coefficients larger than  0.05 for root  7
      energy=    -453.611233
      conf/sym  11111111     Coeff  Weight
             1  22222200  -0.05060 0.00256
             3  2222u2d0   0.74863 0.56044
             8  2222u20d  -0.08134 0.00662
            10  2222udud  -0.18224 0.03321
            12  2222uudd   0.21598 0.04665
            18  2222u0d2   0.06292 0.00396
            21  222u22d0   0.38314 0.14679
            30  222udu2d  -0.07113 0.00506
            41  22u222d0  -0.15219 0.02316
            44  22u2220d   0.23105 0.05339
            46  22u2d2ud  -0.14331 0.02054
            48  22u2u2dd  -0.21615 0.04672
            83  u222d220  -0.05054 0.00255
           131  u22d2220  -0.08331 0.00694
           145  22022202   0.05221 0.00273
           155  2ud22202   0.05808 0.00337
           177  2022u2d2  -0.05711 0.00326
 
      Natural orbitals and occupation numbers for root  1
      sym 1:   1.996455   1.960027   1.950941   1.995966   1.999789   1.999264   0.044147   0.053412
 
      Natural orbitals and occupation numbers for root  2
      sym 1:   1.958654   1.997761   1.999825   1.995947   1.011561   1.990239   0.054682   0.991331
 
      Natural orbitals and occupation numbers for root  3
      sym 1:   1.999795   1.995800   1.948951   1.997984   1.990358   1.010037   0.992667   0.064408
 
      Natural orbitals and occupation numbers for root  4
      sym 1:   1.981261   1.989827   1.930758   1.069456   1.962803   1.968436   0.992574   0.104885
 
      Natural orbitals and occupation numbers for root  5
      sym 1:   1.994668   1.949359   1.092287   1.962368   1.971532   1.981085   0.107089   0.941612
 
      Natural orbitals and occupation numbers for root  6
      sym 1:   1.990101   1.915389   1.057250   1.960132   1.993139   1.969455   0.957577   0.156956
 
      Natural orbitals and occupation numbers for root  7
      sym 1:   1.992518   1.978891   1.937982   1.950543   1.179525   1.891847   0.887006   0.181686
 
      ************************************************************************************************************************
      *                                                                                                                      *
      *                                                    Final results                                                     *
      *                                                                                                                      *
      ************************************************************************************************************************
 
 
++    Wave function specifications:
      -----------------------------
 
      Number of closed shell electrons          58
      Number of electrons in active shells      12
      Max number of holes in RAS1 space          0
      Max nr of electrons in RAS3 space          0
      Number of inactive orbitals               29
      Number of active orbitals                  8
      Number of secondary orbitals             172
      Spin quantum number                      0.0
      State symmetry                             1
--
 
++    Orbital specifications:
      -----------------------
 
      Symmetry species                           1
                                                 a
      Frozen orbitals                            0
      Inactive orbitals                         29
      Active orbitals                            8
      RAS1 orbitals                              0
      RAS2 orbitals                              8
      RAS3 orbitals                              0
      Secondary orbitals                       172
      Deleted orbitals                           3
      Number of basis functions                212
--
 
++    CI expansion specifications:
      ----------------------------
 
      Number of CSFs                           336
      Number of determinants                   406
      Number of root(s) required                 7
      CI roots used                              1     2     3     4     5     6     7
      weights                                0.143 0.143 0.143 0.143 0.143 0.143 0.143
      highest root included in the CI            7
      Root passed to geometry opt.               7
--
 
++    Final optimization conditions:
      ------------------------------
 
      Average CI energy                            -453.70623541
      RASSCF energy for state  7                   -453.61123338
      Super-CI energy                                -0.00000002
      RASSCF energy change                            0.00000000
      Max change in MO coefficients              -0.766E-04
      Max non-diagonal density matrix element    -0.396E-04
      Maximum BLB matrix element                  0.225E-04
      (orbital pair  32,  40 in symmetry   1)
      Norm of electronic gradient            0.233E+00
--
 
 
      Final state energy(ies):
      ------------------------
 
::    RASSCF root number  1 Total energy:   -453.95683459
::    RASSCF root number  2 Total energy:   -453.74643957
::    RASSCF root number  3 Total energy:   -453.74607299
::    RASSCF root number  4 Total energy:   -453.63853583
::    RASSCF root number  5 Total energy:   -453.62574377
::    RASSCF root number  6 Total energy:   -453.61878772
::    RASSCF root number  7 Total energy:   -453.61123338
 
++    Molecular orbitals:
      -------------------
 
      Pseudonatural active orbitals and approximate occupation numbers
 
 
 
 
      Molecular orbitals for symmetry species 1: a  
 
 
      Orbital                 1         2         3         4         5         6         7         8         9        10
      Energy           -20.5928  -20.5227  -15.6276  -15.5926  -11.3346  -11.2933  -11.2845  -11.2776  -11.2278   -1.4186
      Occ. No.           2.0000    2.0000    2.0000    2.0000    2.0000    2.0000    2.0000    2.0000    2.0000    2.0000
 
     1 C1     1s        -0.0001    0.0003   -0.0000    0.0002   -0.0002   -0.0008   -0.0000    0.9999   -0.0061   -0.0004
     2 C1     2s        -0.0006    0.0005   -0.0002    0.0008   -0.0008   -0.0011   -0.0003    0.0023   -0.0003    0.0371
     3 C1     3s        -0.0005   -0.0007   -0.0002    0.0003   -0.0006   -0.0008   -0.0003   -0.0000   -0.0006    0.0129
     4 C1     4s        -0.0001   -0.0004   -0.0001    0.0001   -0.0001   -0.0003   -0.0001    0.0014   -0.0002    0.0044
     5 C1     2px        0.0000   -0.0011    0.0003    0.0017    0.0001   -0.0002    0.0000    0.0018   -0.0002    0.0031
     6 C1     3px        0.0001   -0.0007    0.0003    0.0014   -0.0001   -0.0004    0.0001    0.0018    0.0003    0.0039
     7 C1     4px        0.0000    0.0002   -0.0000   -0.0000   -0.0001   -0.0002    0.0000    0.0006    0.0002    0.0010
     8 C1     2py        0.0003    0.0031    0.0002    0.0001   -0.0003    0.0002   -0.0003    0.0008   -0.0006    0.0205
     9 C1     3py        0.0002    0.0022    0.0002    0.0001   -0.0003   -0.0002   -0.0004    0.0009    0.0002    0.0177
    10 C1     4py       -0.0000   -0.0003   -0.0000   -0.0000   -0.0000   -0.0003   -0.0001    0.0007    0.0003    0.0055
    11 C1     2pz        0.0000    0.0004   -0.0000    0.0001   -0.0001    0.0001   -0.0001    0.0002    0.0001    0.0011
    12 C1     3pz        0.0000    0.0003   -0.0001    0.0001   -0.0001    0.0002   -0.0002    0.0005    0.0002    0.0015
    13 C1     4pz       -0.0000   -0.0000   -0.0000    0.0000   -0.0000    0.0001   -0.0001    0.0002    0.0001    0.0011
    14 C1     3d2-      -0.0000    0.0002   -0.0000    0.0001   -0.0000    0.0000    0.0000   -0.0003    0.0001   -0.0013
    15 C1     3d1-       0.0000    0.0000   -0.0000    0.0000    0.0000   -0.0000   -0.0000    0.0001   -0.0000    0.0000
    16 C1     3d0       -0.0000   -0.0000   -0.0000    0.0001   -0.0000   -0.0001    0.0000   -0.0003    0.0001   -0.0019
    17 C1     3d1+       0.0000    0.0000   -0.0000   -0.0000   -0.0000   -0.0000   -0.0000   -0.0000    0.0000   -0.0000
    18 C1     3d2+      -0.0000    0.0001    0.0000   -0.0002    0.0000    0.0000   -0.0000    0.0000   -0.0001    0.0004
    19 C3     1s         0.0001    0.0001   -0.0001    0.0004    0.0067    0.9995   -0.0001    0.0006    0.0000   -0.0116
    20 C3     2s         0.0006    0.0007   -0.0003    0.0021   -0.0003   -0.0012    0.0004   -0.0005    0.0003    0.0157
    21 C3     3s         0.0004    0.0004   -0.0001    0.0010   -0.0004   -0.0025    0.0002   -0.0005    0.0001   -0.0316
    22 C3     4s         0.0001    0.0000   -0.0001    0.0001   -0.0000    0.0007    0.0000   -0.0002   -0.0000   -0.0043
    23 C3     2px        0.0001    0.0002   -0.0002   -0.0002    0.0000    0.0003   -0.0001    0.0008    0.0003   -0.0034
    24 C3     3px        0.0002    0.0004   -0.0001    0.0003    0.0001    0.0002   -0.0001    0.0011    0.0004    0.0068
    25 C3     4px        0.0001    0.0001    0.0001    0.0002   -0.0001   -0.0006    0.0000    0.0002    0.0001   -0.0022
    26 C3     2py       -0.0013   -0.0003    0.0008   -0.0007    0.0005   -0.0006   -0.0001    0.0003   -0.0003    0.0245
    27 C3     3py       -0.0013   -0.0002    0.0009   -0.0001    0.0001   -0.0004   -0.0003    0.0004   -0.0003    0.0016
    28 C3     4py       -0.0001    0.0001    0.0000    0.0002   -0.0001   -0.0005   -0.0002    0.0001    0.0000    0.0016
    29 C3     2pz        0.0006    0.0001   -0.0003    0.0003   -0.0002   -0.0000    0.0002    0.0001    0.0003   -0.0018
    30 C3     3pz        0.0004    0.0001   -0.0002    0.0005   -0.0005   -0.0000    0.0001    0.0003    0.0003   -0.0140
    31 C3     4pz       -0.0001    0.0000    0.0000    0.0001   -0.0001    0.0003   -0.0000    0.0001    0.0000    0.0056
    32 C3     3d2-       0.0000    0.0000    0.0000   -0.0000   -0.0001   -0.0001   -0.0000    0.0000    0.0000   -0.0017
    33 C3     3d1-      -0.0000   -0.0000   -0.0000    0.0000    0.0001   -0.0001    0.0001   -0.0000    0.0000    0.0042
    34 C3     3d0        0.0001   -0.0000    0.0000    0.0001   -0.0000   -0.0000    0.0000   -0.0000   -0.0000   -0.0032
    35 C3     3d1+      -0.0001    0.0000   -0.0000    0.0000    0.0001    0.0001   -0.0000    0.0000    0.0000    0.0017
    36 C3     3d2+       0.0000   -0.0000   -0.0001    0.0000    0.0000    0.0001   -0.0000    0.0001   -0.0000   -0.0025
    37 C4     1s         0.0004    0.0001    0.0003   -0.0001    1.0000   -0.0067    0.0002   -0.0000    0.0000   -0.0409
    38 C4     2s         0.0016    0.0005    0.0012   -0.0006    0.0026    0.0007    0.0001   -0.0003    0.0001    0.3421
    39 C4     3s        -0.0000    0.0004    0.0005   -0.0003    0.0001    0.0002    0.0000   -0.0003    0.0000   -0.0163
    40 C4     4s        -0.0003    0.0001    0.0002   -0.0001    0.0013    0.0000   -0.0000   -0.0001   -0.0000    0.0002
    41 C4     2px       -0.0000   -0.0004   -0.0008   -0.0002   -0.0002    0.0004   -0.0000   -0.0006   -0.0002    0.0137
    42 C4     3px       -0.0000   -0.0006   -0.0007   -0.0002   -0.0007    0.0004    0.0002   -0.0009   -0.0003    0.0104
    43 C4     4px       -0.0000   -0.0001   -0.0001   -0.0001   -0.0002    0.0001    0.0001   -0.0002   -0.0001    0.0023
    44 C4     2py        0.0032   -0.0004   -0.0007    0.0001    0.0004   -0.0007    0.0001   -0.0002    0.0001    0.1148
    45 C4     3py        0.0024   -0.0003   -0.0006    0.0001    0.0000   -0.0000   -0.0002    0.0001    0.0001   -0.0640
    46 C4     4py       -0.0003    0.0001   -0.0000    0.0001    0.0004    0.0003   -0.0002    0.0001    0.0000    0.0276
    47 C4     2pz       -0.0008    0.0000    0.0017    0.0002    0.0012   -0.0011   -0.0001    0.0003   -0.0001    0.0017
    48 C4     3pz       -0.0006   -0.0001    0.0013    0.0000    0.0009   -0.0008   -0.0006    0.0003   -0.0002    0.0105
    49 C4     4pz        0.0000   -0.0001   -0.0001   -0.0001    0.0005   -0.0000   -0.0005    0.0000   -0.0000   -0.0018
    50 C4     3d2-      -0.0000    0.0000   -0.0000    0.0001    0.0001    0.0000   -0.0000    0.0000    0.0000    0.0018
    51 C4     3d1-       0.0001   -0.0000    0.0002   -0.0000   -0.0003    0.0001   -0.0000    0.0000    0.0000   -0.0178
    52 C4     3d0        0.0001    0.0000   -0.0001    0.0000   -0.0001   -0.0000    0.0001    0.0000    0.0000   -0.0141
    53 C4     3d1+      -0.0001   -0.0000    0.0000   -0.0001   -0.0001    0.0000   -0.0001   -0.0000    0.0000   -0.0042
    54 C4     3d2+       0.0001   -0.0000    0.0001    0.0000   -0.0006    0.0000   -0.0000    0.0000    0.0000   -0.0390
    55 C6     1s         0.0001    0.0001    0.0003   -0.0001   -0.0002    0.0003    0.9996   -0.0000   -0.0000   -0.0070
    56 C6     2s         0.0004    0.0003    0.0014   -0.0007    0.0000    0.0006   -0.0004   -0.0002   -0.0003    0.0280
    57 C6     3s         0.0003    0.0001    0.0004   -0.0005   -0.0002    0.0004   -0.0019   -0.0003   -0.0003   -0.0069
    58 C6     4s         0.0001   -0.0000   -0.0001   -0.0001   -0.0002    0.0001    0.0009   -0.0001   -0.0001    0.0007
    59 C6     2px        0.0004   -0.0001    0.0003   -0.0000   -0.0002    0.0001    0.0001   -0.0000   -0.0001   -0.0016
    60 C6     3px        0.0003   -0.0001    0.0001   -0.0000   -0.0001    0.0000   -0.0000   -0.0000   -0.0001   -0.0096
    61 C6     4px       -0.0000    0.0000   -0.0001    0.0000   -0.0000   -0.0000    0.0003    0.0000    0.0000    0.0016
    62 C6     2py        0.0001   -0.0002   -0.0004    0.0000   -0.0001   -0.0001   -0.0001   -0.0001   -0.0000   -0.0057
    63 C6     3py        0.0000   -0.0001   -0.0001   -0.0000   -0.0002   -0.0001    0.0002   -0.0001   -0.0000    0.0030
    64 C6     4py       -0.0001    0.0001    0.0001   -0.0000   -0.0001    0.0000   -0.0004   -0.0000   -0.0000   -0.0007
    65 C6     2pz       -0.0001    0.0001   -0.0002    0.0001    0.0004   -0.0003    0.0001    0.0003    0.0001   -0.0247
    66 C6     3pz       -0.0001    0.0001    0.0003    0.0001    0.0006   -0.0002    0.0002    0.0003    0.0001   -0.0036
    67 C6     4pz        0.0000    0.0000    0.0002   -0.0000    0.0001    0.0001   -0.0006    0.0000    0.0000   -0.0020
    68 C6     3d2-      -0.0000    0.0000    0.0001    0.0000    0.0000   -0.0000    0.0000    0.0000    0.0000   -0.0010
    69 C6     3d1-       0.0000    0.0000   -0.0000    0.0000   -0.0000    0.0000   -0.0001   -0.0000    0.0000    0.0031
    70 C6     3d0        0.0000    0.0000    0.0000    0.0000    0.0001    0.0000    0.0000    0.0000   -0.0000    0.0015
    71 C6     3d1+      -0.0000    0.0000    0.0001    0.0000   -0.0000   -0.0000    0.0000    0.0000   -0.0000   -0.0028
    72 C6     3d2+      -0.0000    0.0000    0.0001   -0.0000    0.0000   -0.0000    0.0000    0.0000    0.0000   -0.0004
    73 C19    1s         0.0000    0.0002    0.0001   -0.0000    0.0000    0.0001   -0.0000    0.0060    0.9999   -0.0001
    74 C19    2s        -0.0000    0.0011    0.0004   -0.0001    0.0002    0.0007   -0.0002    0.0004    0.0019    0.0056
    75 C19    3s        -0.0001    0.0007    0.0003    0.0000    0.0001    0.0004   -0.0002    0.0001   -0.0004    0.0052
    76 C19    4s        -0.0001    0.0001    0.0001   -0.0000    0.0000    0.0000   -0.0001    0.0001    0.0012    0.0029
    77 C19    2px        0.0001    0.0008    0.0002   -0.0003    0.0001    0.0002   -0.0001   -0.0002   -0.0001   -0.0012
    78 C19    3px        0.0001    0.0005    0.0002   -0.0003    0.0001    0.0002   -0.0001   -0.0004   -0.0001   -0.0011
    79 C19    4px       -0.0000   -0.0002   -0.0000   -0.0000   -0.0000    0.0000   -0.0000   -0.0001    0.0002    0.0007
    80 C19    2py       -0.0001   -0.0001    0.0001    0.0004    0.0000    0.0002   -0.0000    0.0004   -0.0004    0.0057
    81 C19    3py       -0.0001   -0.0002    0.0001    0.0003    0.0000    0.0001   -0.0000    0.0000   -0.0000    0.0040
    82 C19    4py       -0.0000   -0.0001   -0.0000   -0.0000   -0.0000   -0.0001    0.0000   -0.0001    0.0003    0.0001
    83 C19    2pz        0.0000    0.0001    0.0001   -0.0001    0.0000   -0.0001   -0.0000   -0.0002   -0.0001    0.0002
    84 C19    3pz        0.0001    0.0000    0.0001   -0.0001    0.0001   -0.0001    0.0000   -0.0003   -0.0001   -0.0001
    85 C19    4pz        0.0000   -0.0000    0.0000   -0.0000    0.0000   -0.0000    0.0000   -0.0000    0.0000   -0.0001
    86 C19    3d2-      -0.0000    0.0001    0.0000   -0.0000    0.0000    0.0001    0.0000   -0.0000   -0.0001    0.0003
    87 C19    3d1-       0.0000   -0.0000    0.0000    0.0000    0.0000    0.0000   -0.0000   -0.0000   -0.0000   -0.0000
    88 C19    3d0       -0.0000   -0.0001   -0.0000   -0.0001   -0.0000   -0.0000   -0.0000    0.0001    0.0001    0.0003
    89 C19    3d1+       0.0000    0.0000    0.0000    0.0000    0.0000    0.0000    0.0000    0.0000   -0.0000   -0.0001
    90 C19    3d2+      -0.0000    0.0001   -0.0000   -0.0000   -0.0000   -0.0000   -0.0000   -0.0001    0.0001   -0.0001
    91 N2     1s        -0.0001    0.0000   -0.0001    0.9998    0.0000    0.0001    0.0000   -0.0003    0.0000   -0.0011
    92 N2     2s        -0.0003    0.0002   -0.0002   -0.0001    0.0003    0.0017    0.0001   -0.0006    0.0003    0.0330
    93 N2     3s        -0.0001    0.0002   -0.0001   -0.0015    0.0002    0.0009    0.0000   -0.0006    0.0002   -0.0016
    94 N2     4s        -0.0000    0.0000   -0.0000    0.0005    0.0001    0.0003    0.0000   -0.0000    0.0000   -0.0013
    95 N2     2px       -0.0006    0.0000    0.0003    0.0002    0.0002    0.0003   -0.0001   -0.0002   -0.0005    0.0072
    96 N2     3px       -0.0009   -0.0001    0.0004   -0.0001    0.0002   -0.0001   -0.0002   -0.0001   -0.0004    0.0095
    97 N2     4px       -0.0001   -0.0000    0.0000   -0.0001   -0.0000   -0.0001   -0.0000   -0.0003    0.0001   -0.0002
    98 N2     2py        0.0000   -0.0016    0.0001   -0.0005    0.0004    0.0008    0.0001    0.0007   -0.0001    0.0005
    99 N2     3py        0.0001   -0.0019    0.0001    0.0003    0.0003    0.0008    0.0001    0.0008   -0.0000   -0.0124
   100 N2     4py        0.0000   -0.0000    0.0000    0.0006   -0.0001    0.0002    0.0000   -0.0000    0.0001   -0.0019
   101 N2     2pz       -0.0000   -0.0002   -0.0001   -0.0001    0.0000    0.0001    0.0001   -0.0001   -0.0000    0.0029
   102 N2     3pz        0.0000   -0.0003   -0.0001    0.0001    0.0001    0.0000    0.0002    0.0001   -0.0000    0.0013
   103 N2     4pz        0.0000   -0.0000   -0.0000    0.0000    0.0000   -0.0000    0.0001    0.0000    0.0000   -0.0004
   104 N2     3d2-       0.0000    0.0001    0.0000   -0.0002    0.0000   -0.0000    0.0000   -0.0001   -0.0000    0.0002
   105 N2     3d1-      -0.0000    0.0000   -0.0000    0.0000    0.0000    0.0000   -0.0000   -0.0000    0.0000    0.0006
   106 N2     3d0       -0.0000   -0.0000    0.0000    0.0001   -0.0000    0.0001   -0.0000    0.0001   -0.0001   -0.0006
   107 N2     3d1+      -0.0000    0.0000   -0.0000   -0.0000    0.0000   -0.0000    0.0000    0.0000   -0.0000    0.0008
   108 N2     3d2+      -0.0000   -0.0001    0.0000    0.0000   -0.0000   -0.0000    0.0000    0.0000    0.0000   -0.0000
   109 N5     1s         0.0002   -0.0001    0.9998    0.0000   -0.0003    0.0000    0.0001   -0.0000    0.0000   -0.0174
   110 N5     2s         0.0010   -0.0009    0.0001   -0.0002   -0.0003    0.0001    0.0016   -0.0001    0.0003    0.1135
   111 N5     3s         0.0007   -0.0007   -0.0013   -0.0001   -0.0004    0.0002    0.0010   -0.0001    0.0001   -0.0453
   112 N5     4s         0.0002   -0.0002    0.0005   -0.0000   -0.0000    0.0000    0.0004   -0.0000    0.0000   -0.0107
   113 N5     2px        0.0001    0.0003   -0.0001   -0.0001    0.0003    0.0001   -0.0005    0.0002    0.0001    0.0093
   114 N5     3px        0.0001    0.0005    0.0001   -0.0002   -0.0000    0.0000   -0.0005    0.0003    0.0001    0.0026
   115 N5     4px        0.0000    0.0001   -0.0003   -0.0000    0.0000   -0.0001   -0.0001    0.0001    0.0000    0.0026
   116 N5     2py       -0.0014    0.0002   -0.0011    0.0004    0.0002   -0.0002    0.0004    0.0000    0.0001    0.0452
   117 N5     3py       -0.0016    0.0003   -0.0007    0.0005   -0.0001   -0.0001    0.0005    0.0002    0.0002    0.0078
   118 N5     4py        0.0000   -0.0000    0.0004    0.0001   -0.0001    0.0001    0.0003    0.0001    0.0001   -0.0033
   119 N5     2pz       -0.0003    0.0001   -0.0002    0.0004   -0.0001   -0.0002    0.0008    0.0002    0.0002   -0.0095
   120 N5     3pz       -0.0004    0.0000   -0.0003    0.0005   -0.0003   -0.0002    0.0005    0.0002    0.0003    0.0275
   121 N5     4pz        0.0001   -0.0001   -0.0003    0.0000   -0.0004    0.0001   -0.0000   -0.0000    0.0001   -0.0047
   122 N5     3d2-      -0.0000   -0.0000    0.0001    0.0000    0.0000   -0.0000    0.0000    0.0000    0.0000    0.0007
   123 N5     3d1-       0.0001    0.0000   -0.0001   -0.0000   -0.0001   -0.0000    0.0000   -0.0000    0.0000   -0.0057
   124 N5     3d0        0.0000   -0.0000   -0.0001   -0.0000   -0.0001    0.0000   -0.0001   -0.0000   -0.0000    0.0015
   125 N5     3d1+      -0.0000   -0.0000    0.0001   -0.0000    0.0001   -0.0000    0.0001   -0.0000    0.0000   -0.0017
   126 N5     3d2+      -0.0000    0.0000   -0.0001    0.0000    0.0001   -0.0001    0.0000   -0.0000   -0.0000   -0.0011
   127 O7     1s        -0.0000    0.9997   -0.0000    0.0000    0.0000   -0.0000    0.0000   -0.0002    0.0001   -0.0019
   128 O7     2s        -0.0001   -0.0014   -0.0001    0.0001    0.0003   -0.0001    0.0001    0.0006    0.0003    0.0307
   129 O7     3s        -0.0001   -0.0014   -0.0001    0.0000    0.0003   -0.0001    0.0001    0.0000    0.0003   -0.0036
   130 O7     4s        -0.0000    0.0001   -0.0000   -0.0000    0.0001    0.0000    0.0000   -0.0000    0.0001   -0.0007
   131 O7     2px       -0.0002    0.0002   -0.0002   -0.0004    0.0001   -0.0000   -0.0001    0.0004    0.0001    0.0100
   132 O7     3px       -0.0002   -0.0003   -0.0002   -0.0005    0.0001    0.0000   -0.0002   -0.0002    0.0001    0.0057
   133 O7     4px       -0.0001    0.0008   -0.0000   -0.0001   -0.0000    0.0000   -0.0001    0.0000   -0.0000    0.0023
   134 O7     2py       -0.0001   -0.0003   -0.0001   -0.0002   -0.0002    0.0000   -0.0000   -0.0008   -0.0002   -0.0007
   135 O7     3py       -0.0002    0.0003   -0.0002   -0.0002   -0.0003    0.0000   -0.0001   -0.0006   -0.0002    0.0091
   136 O7     4py       -0.0001   -0.0011   -0.0001    0.0000   -0.0001    0.0000   -0.0000   -0.0003    0.0000    0.0025
   137 O7     2pz       -0.0000   -0.0000   -0.0001   -0.0000   -0.0001   -0.0000   -0.0001   -0.0003   -0.0000    0.0029
   138 O7     3pz       -0.0000    0.0001   -0.0002   -0.0000   -0.0001   -0.0000   -0.0001   -0.0001   -0.0000    0.0051
   139 O7     4pz       -0.0000   -0.0001   -0.0000    0.0000   -0.0000   -0.0000   -0.0000   -0.0000   -0.0000    0.0016
   140 O7     3d2-      -0.0000    0.0001   -0.0000    0.0000    0.0000    0.0000    0.0000   -0.0002   -0.0000   -0.0010
   141 O7     3d1-      -0.0000   -0.0000   -0.0000    0.0000    0.0000   -0.0000   -0.0000    0.0000    0.0000    0.0001
   142 O7     3d0        0.0000   -0.0000    0.0000   -0.0000   -0.0000   -0.0000    0.0000   -0.0001   -0.0000   -0.0008
   143 O7     3d1+      -0.0000    0.0000   -0.0000    0.0000    0.0000   -0.0000   -0.0000   -0.0000    0.0000    0.0001
   144 O7     3d2+      -0.0000    0.0000   -0.0000   -0.0001    0.0000    0.0000   -0.0000   -0.0001   -0.0000   -0.0000
   145 O8     1s         0.9997    0.0000    0.0000    0.0000   -0.0003    0.0000   -0.0001    0.0000   -0.0000   -0.0241
   146 O8     2s        -0.0016    0.0002    0.0002    0.0001    0.0002    0.0003   -0.0004    0.0002   -0.0000    0.6903
   147 O8     3s        -0.0015    0.0001    0.0001    0.0000   -0.0001    0.0002   -0.0002    0.0001   -0.0000   -0.0335
   148 O8     4s         0.0000    0.0000   -0.0000   -0.0000   -0.0000    0.0000   -0.0001    0.0000   -0.0000   -0.0133
   149 O8     2px        0.0000    0.0001    0.0001   -0.0000    0.0004   -0.0000    0.0000    0.0001    0.0000    0.0039
   150 O8     3px       -0.0000    0.0002    0.0002    0.0000    0.0002   -0.0000    0.0000    0.0002    0.0001   -0.0024
   151 O8     4px       -0.0000    0.0001    0.0001    0.0000    0.0001   -0.0000    0.0000    0.0001    0.0000   -0.0011
   152 O8     2py       -0.0003   -0.0001   -0.0000   -0.0001   -0.0006   -0.0002    0.0001   -0.0001   -0.0000   -0.1437
   153 O8     3py        0.0005   -0.0001    0.0001   -0.0001   -0.0002   -0.0001    0.0000   -0.0001   -0.0000    0.0439
   154 O8     4py       -0.0014    0.0000    0.0001   -0.0000   -0.0003    0.0000   -0.0000    0.0000   -0.0000    0.0002
   155 O8     2pz        0.0001    0.0000   -0.0003   -0.0000    0.0003    0.0001   -0.0001   -0.0000    0.0000    0.0397
   156 O8     3pz       -0.0001    0.0000   -0.0003   -0.0000   -0.0001    0.0002   -0.0001   -0.0001    0.0000   -0.0115
   157 O8     4pz        0.0003    0.0000   -0.0000   -0.0000   -0.0000    0.0000    0.0000   -0.0000    0.0000   -0.0018
   158 O8     3d2-      -0.0000   -0.0000   -0.0000    0.0000    0.0000   -0.0000   -0.0000    0.0000   -0.0000    0.0001
   159 O8     3d1-       0.0000   -0.0000    0.0001    0.0000   -0.0001    0.0000    0.0000   -0.0000   -0.0000   -0.0089
   160 O8     3d0        0.0001   -0.0000    0.0000   -0.0000   -0.0001   -0.0000    0.0000   -0.0000    0.0000   -0.0093
   161 O8     3d1+      -0.0000   -0.0000   -0.0000   -0.0000    0.0000   -0.0000   -0.0000   -0.0000   -0.0000   -0.0001
   162 O8     3d2+       0.0000   -0.0000   -0.0001   -0.0000   -0.0001   -0.0000   -0.0000   -0.0000   -0.0000   -0.0179
   163 H9     1s         0.0001    0.0003    0.0002    0.0000   -0.0000   -0.0002   -0.0001   -0.0000    0.0003    0.0029
   164 H9     2s         0.0001    0.0002    0.0001   -0.0000   -0.0000   -0.0001   -0.0000    0.0000   -0.0003    0.0020
   165 H9     2px       -0.0000   -0.0000   -0.0000    0.0000   -0.0000   -0.0000   -0.0000    0.0000   -0.0000    0.0004
   166 H9     2py        0.0000   -0.0000   -0.0000   -0.0000   -0.0000   -0.0000   -0.0000    0.0001    0.0000    0.0000
   167 H9     2pz        0.0000    0.0000    0.0000    0.0000   -0.0000   -0.0000   -0.0000    0.0000   -0.0001    0.0004
   168 H10    1s         0.0001    0.0001    0.0002    0.0002    0.0000   -0.0001    0.0000    0.0003    0.0003    0.0018
   169 H10    2s         0.0001    0.0001    0.0001    0.0001    0.0000   -0.0001    0.0000    0.0002   -0.0002    0.0013
   170 H10    2px        0.0000   -0.0000    0.0000    0.0001   -0.0000   -0.0000    0.0000    0.0001   -0.0000    0.0003
   171 H10    2py        0.0000   -0.0001    0.0000   -0.0000    0.0000   -0.0000    0.0000    0.0000    0.0000   -0.0001
   172 H10    2pz       -0.0000   -0.0000   -0.0000    0.0000   -0.0000    0.0000    0.0000   -0.0001    0.0001   -0.0002
   173 H11    1s        -0.0001   -0.0004   -0.0001    0.0004   -0.0001   -0.0000   -0.0000    0.0003    0.0002    0.0072
   174 H11    2s        -0.0001   -0.0002   -0.0000    0.0003   -0.0001   -0.0000   -0.0000    0.0002   -0.0003    0.0044
   175 H11    2px        0.0000   -0.0000    0.0000   -0.0001    0.0000    0.0000    0.0000   -0.0000    0.0001   -0.0008
   176 H11    2py       -0.0000   -0.0000   -0.0000    0.0000   -0.0000    0.0000   -0.0000    0.0001   -0.0001    0.0007
   177 H11    2pz        0.0000    0.0000    0.0000    0.0000    0.0000    0.0000   -0.0000    0.0000    0.0000   -0.0001
   178 H12    1s         0.0002   -0.0011    0.0003   -0.0004    0.0002   -0.0001   -0.0001    0.0007   -0.0002   -0.0036
   179 H12    2s         0.0001   -0.0006    0.0002   -0.0002    0.0002    0.0000   -0.0001    0.0004   -0.0001   -0.0058
   180 H12    2px        0.0000    0.0000   -0.0000    0.0003   -0.0000    0.0000    0.0000   -0.0002    0.0000   -0.0003
   181 H12    2py       -0.0000   -0.0000    0.0000   -0.0004    0.0000    0.0000   -0.0000    0.0000   -0.0000    0.0006
   182 H12    2pz       -0.0000   -0.0000    0.0000   -0.0001    0.0000   -0.0000   -0.0000   -0.0000   -0.0000   -0.0001
   183 H13    1s        -0.0002   -0.0002    0.0004   -0.0008    0.0002    0.0005   -0.0001   -0.0005   -0.0004    0.0136
   184 H13    2s        -0.0002   -0.0002    0.0002   -0.0004    0.0002   -0.0001   -0.0001   -0.0004   -0.0002    0.0023
   185 H13    2px        0.0000    0.0000   -0.0001    0.0000   -0.0001    0.0000    0.0000    0.0000    0.0000   -0.0013
   186 H13    2py        0.0000    0.0000   -0.0000    0.0000    0.0000   -0.0000    0.0000   -0.0000    0.0000    0.0002
   187 H13    2pz       -0.0000    0.0000   -0.0001   -0.0000    0.0001    0.0000    0.0000    0.0000    0.0000    0.0013
   188 H14    1s         0.0005    0.0002   -0.0003   -0.0004   -0.0001    0.0010   -0.0002   -0.0004    0.0003    0.0119
   189 H14    2s         0.0004    0.0001   -0.0001   -0.0002   -0.0001    0.0002   -0.0001   -0.0003    0.0002   -0.0021
   190 H14    2px        0.0000    0.0000   -0.0000    0.0000   -0.0000   -0.0000    0.0000    0.0000   -0.0000   -0.0005
   191 H14    2py       -0.0000   -0.0000    0.0000    0.0000   -0.0000   -0.0001   -0.0000    0.0001   -0.0000    0.0001
   192 H14    2pz        0.0000   -0.0000   -0.0000    0.0000    0.0001    0.0001   -0.0000   -0.0000    0.0000    0.0010
   193 H15    1s        -0.0014    0.0006   -0.0010    0.0001    0.0001   -0.0003   -0.0005   -0.0005   -0.0002    0.0449
   194 H15    2s        -0.0008    0.0003   -0.0007    0.0001   -0.0001   -0.0002   -0.0002   -0.0003   -0.0001    0.0026
   195 H15    2px       -0.0000    0.0000   -0.0001    0.0000    0.0001    0.0000   -0.0000   -0.0000    0.0000    0.0010
   196 H15    2py       -0.0001    0.0000   -0.0005    0.0000    0.0001   -0.0000   -0.0000   -0.0000   -0.0000    0.0063
   197 H15    2pz       -0.0000    0.0000    0.0000   -0.0000   -0.0001   -0.0000    0.0001    0.0000    0.0000   -0.0013
   198 H16    1s        -0.0001    0.0001   -0.0001    0.0000   -0.0001   -0.0000    0.0010    0.0001    0.0001    0.0106
   199 H16    2s        -0.0000    0.0001    0.0000    0.0000   -0.0000   -0.0000    0.0002    0.0001    0.0000   -0.0033
   200 H16    2px       -0.0000    0.0000   -0.0000   -0.0000    0.0000   -0.0000   -0.0000   -0.0000    0.0000    0.0008
   201 H16    2py        0.0000   -0.0000   -0.0000   -0.0000    0.0000   -0.0000   -0.0001   -0.0000   -0.0000   -0.0007
   202 H16    2pz        0.0000    0.0000   -0.0000    0.0000   -0.0000   -0.0000   -0.0000   -0.0000    0.0000   -0.0006
   203 H17    1s         0.0006   -0.0002   -0.0004    0.0000   -0.0003    0.0000    0.0008   -0.0000   -0.0001    0.0019
   204 H17    2s         0.0004   -0.0001   -0.0001    0.0000   -0.0003    0.0000    0.0000   -0.0000   -0.0000   -0.0041
   205 H17    2px        0.0000   -0.0000   -0.0000    0.0000   -0.0001    0.0000    0.0001   -0.0000   -0.0000    0.0006
   206 H17    2py       -0.0000   -0.0000    0.0000    0.0000   -0.0000    0.0000   -0.0000    0.0000   -0.0000   -0.0006
   207 H17    2pz       -0.0000   -0.0000    0.0000   -0.0000    0.0000    0.0000   -0.0001   -0.0000   -0.0000   -0.0001
   208 H18    1s         0.0001   -0.0001   -0.0006   -0.0000   -0.0004    0.0001    0.0006   -0.0002   -0.0000    0.0132
   209 H18    2s         0.0000   -0.0001   -0.0003   -0.0000   -0.0003    0.0001   -0.0001   -0.0002   -0.0000    0.0043
   210 H18    2px       -0.0000    0.0000    0.0000    0.0000    0.0000   -0.0000    0.0000    0.0000   -0.0000   -0.0005
   211 H18    2py       -0.0000    0.0000   -0.0000    0.0000   -0.0000    0.0000   -0.0000   -0.0000    0.0000    0.0003
   212 H18    2pz       -0.0000    0.0000    0.0001    0.0000    0.0000   -0.0000   -0.0000    0.0000   -0.0000   -0.0015
 
 
      Orbital                11        12        13        14        15        16        17        18        19        20
      Energy            -1.3619   -1.2531   -1.2171   -1.0126   -0.9663   -0.9242   -0.8112   -0.7802   -0.7046   -0.6863
      Occ. No.           2.0000    2.0000    2.0000    2.0000    2.0000    2.0000    2.0000    2.0000    2.0000    2.0000
 
     1 C1     1s        -0.0393    0.0028    0.0060   -0.0129    0.0074    0.0038    0.0068   -0.0127   -0.0031    0.0045
     2 C1     2s         0.3621    0.0160   -0.0913    0.2168   -0.1531   -0.0071   -0.1513    0.3507    0.0585   -0.1208
     3 C1     3s        -0.0042    0.0161    0.0021   -0.0109    0.0067    0.0098    0.0012    0.0020   -0.0096    0.0056
     4 C1     4s         0.0022    0.0050    0.0010   -0.0045    0.0020    0.0038    0.0016   -0.0022   -0.0024    0.0031
     5 C1     2px       -0.0471    0.0411   -0.1263    0.0303    0.0528   -0.1115   -0.0842    0.1396   -0.0110    0.0332
     6 C1     3px        0.0137   -0.0065    0.0559   -0.0491    0.0114    0.0150    0.0224   -0.0298   -0.0061   -0.0186
     7 C1     4px       -0.0156    0.0090   -0.0228   -0.0047    0.0099   -0.0151   -0.0060    0.0096   -0.0034    0.0007
     8 C1     2py        0.0943    0.0041    0.0383   -0.1177    0.1154   -0.0185   -0.0051    0.0173    0.0732    0.0389
     9 C1     3py       -0.0664    0.0384   -0.0433   -0.0060   -0.0231    0.0686   -0.0019   -0.0177   -0.0276   -0.0127
    10 C1     4py        0.0217    0.0019    0.0065   -0.0205    0.0192    0.0021   -0.0015    0.0016    0.0024   -0.0009
    11 C1     2pz        0.0012    0.0029    0.0115   -0.0167    0.0177   -0.0101    0.0004    0.0000   -0.0027    0.0155
    12 C1     3pz       -0.0117    0.0078    0.0039    0.0008    0.0071   -0.0041   -0.0003   -0.0041   -0.0027   -0.0003
    13 C1     4pz        0.0006    0.0024    0.0030   -0.0021    0.0048   -0.0022    0.0006   -0.0006   -0.0024    0.0031
    14 C1     3d2-      -0.0313    0.0061   -0.0152    0.0048   -0.0092    0.0082   -0.0021    0.0119    0.0123    0.0056
    15 C1     3d1-       0.0054   -0.0004    0.0018    0.0009   -0.0019    0.0011   -0.0005    0.0013    0.0006   -0.0010
    16 C1     3d0       -0.0271    0.0002    0.0041   -0.0091    0.0044    0.0027    0.0064   -0.0122   -0.0020    0.0032
    17 C1     3d1+      -0.0032    0.0011   -0.0008    0.0002   -0.0014    0.0008   -0.0005    0.0024   -0.0007    0.0036
    18 C1     3d2+      -0.0077    0.0070   -0.0256    0.0072    0.0081   -0.0152   -0.0077    0.0112    0.0006    0.0044
    19 C3     1s        -0.0099   -0.0110    0.0307    0.0376   -0.0021   -0.0261   -0.0072   -0.0024   -0.0043    0.0067
    20 C3     2s         0.0278    0.0757   -0.1807   -0.3267    0.0135    0.3735    0.0794    0.0743    0.0881   -0.0553
    21 C3     3s        -0.0185   -0.0189    0.0551    0.0668   -0.0052   -0.0256   -0.0117   -0.0050   -0.0033    0.0224
    22 C3     4s        -0.0026   -0.0030    0.0131    0.0177   -0.0022   -0.0079   -0.0032   -0.0027   -0.0013    0.0060
    23 C3     2px       -0.0336   -0.0182    0.0529   -0.0182    0.0030    0.0363    0.0497   -0.0695   -0.0264   -0.1405
    24 C3     3px       -0.0144    0.0105   -0.0143   -0.0383    0.0173    0.0049   -0.0023    0.0016    0.0113    0.0140
    25 C3     4px       -0.0031    0.0034   -0.0044   -0.0150    0.0055    0.0145    0.0055   -0.0011   -0.0015   -0.0041
    26 C3     2py       -0.0169   -0.0285    0.1017   -0.0178   -0.0306    0.0460   -0.1099    0.1818   -0.1989   -0.0819
    27 C3     3py        0.0046   -0.0001    0.0124    0.0248    0.0514   -0.0164   -0.0057    0.0071    0.0371    0.0204
    28 C3     4py       -0.0046    0.0028    0.0122   -0.0039    0.0020    0.0052   -0.0090    0.0108    0.0018   -0.0014
    29 C3     2pz       -0.0101    0.0261    0.0142   -0.0513   -0.0432   -0.0129   -0.0677    0.0102   -0.1348    0.2024
    30 C3     3pz       -0.0154   -0.0047    0.0181    0.0066    0.0096   -0.0206    0.0106   -0.0047    0.0215   -0.0155
    31 C3     4pz       -0.0034   -0.0028    0.0087    0.0065   -0.0026   -0.0144   -0.0047   -0.0036   -0.0045    0.0067
    32 C3     3d2-       0.0050    0.0052   -0.0170    0.0044    0.0083   -0.0070    0.0037   -0.0023    0.0226    0.0101
    33 C3     3d1-       0.0009    0.0031   -0.0031   -0.0084   -0.0055    0.0020   -0.0092    0.0020   -0.0133    0.0123
    34 C3     3d0       -0.0016    0.0011    0.0098   -0.0012   -0.0073    0.0012   -0.0077    0.0092   -0.0083   -0.0038
    35 C3     3d1+      -0.0005   -0.0027    0.0000    0.0044    0.0038   -0.0005    0.0052   -0.0056    0.0061   -0.0098
    36 C3     3d2+      -0.0014    0.0003    0.0113    0.0026   -0.0042   -0.0010   -0.0048    0.0091    0.0066   -0.0025
    37 C4     1s         0.0032   -0.0074   -0.0035    0.0136    0.0104    0.0018    0.0179    0.0013    0.0060   -0.0003
    38 C4     2s         0.0050    0.1401   -0.0097   -0.2220   -0.1846    0.0463   -0.3596   -0.0481   -0.2314    0.0319
    39 C4     3s         0.0101    0.0008   -0.0086    0.0218    0.0068    0.0054    0.0246   -0.0075    0.0076    0.0089
    40 C4     4s         0.0027   -0.0001   -0.0025    0.0080    0.0024    0.0005    0.0077   -0.0030    0.0033    0.0001
    41 C4     2px        0.0096   -0.0249   -0.0260   -0.0391   -0.0279    0.0455    0.0004    0.0458   -0.0758   -0.0077
    42 C4     3px        0.0159    0.0017   -0.0087    0.0018   -0.0388   -0.0199   -0.0096   -0.0197    0.0221   -0.0087
    43 C4     4px        0.0045   -0.0049   -0.0053   -0.0047   -0.0070    0.0033    0.0017    0.0006   -0.0033   -0.0037
    44 C4     2py       -0.0194   -0.0850    0.0042    0.1128    0.0873   -0.0029    0.0114   -0.0402   -0.0429   -0.2176
    45 C4     3py        0.0051    0.0769   -0.0006   -0.0397    0.0109    0.0501   -0.0066    0.0187    0.0142    0.0721
    46 C4     4py       -0.0068   -0.0138    0.0018    0.0101    0.0139    0.0054   -0.0012   -0.0024   -0.0091   -0.0123
    47 C4     2pz        0.0001    0.1251    0.0704    0.0541   -0.0113   -0.0974   -0.1113   -0.1349    0.1935    0.0693
    48 C4     3pz        0.0034    0.0005    0.0053    0.0195    0.0731    0.0827    0.0034    0.0764   -0.0641    0.0051
    49 C4     4pz        0.0021    0.0280    0.0109    0.0095    0.0059   -0.0002   -0.0100   -0.0029    0.0097    0.0102
    50 C4     3d2-      -0.0000    0.0021    0.0031    0.0046   -0.0010   -0.0076    0.0012   -0.0017    0.0028   -0.0000
    51 C4     3d1-       0.0017   -0.0078   -0.0068   -0.0051    0.0097    0.0197   -0.0031    0.0076    0.0013   -0.0047
    52 C4     3d0        0.0015    0.0249    0.0061   -0.0080   -0.0086   -0.0032   -0.0173   -0.0079    0.0207    0.0011
    53 C4     3d1+       0.0007   -0.0098   -0.0030    0.0072    0.0054   -0.0034    0.0083    0.0002   -0.0002    0.0022
    54 C4     3d2+       0.0026    0.0098    0.0041    0.0032    0.0034    0.0016    0.0038   -0.0012    0.0144   -0.0004
    55 C6     1s         0.0018   -0.0294   -0.0165   -0.0299   -0.0387   -0.0282    0.0082   -0.0017    0.0060   -0.0067
    56 C6     2s         0.0163    0.1650    0.0339    0.1990    0.3098    0.2931   -0.1072    0.0168   -0.0443    0.0812
    57 C6     3s         0.0120   -0.0414   -0.0434   -0.0531   -0.0678   -0.0386    0.0184   -0.0047    0.0165   -0.0203
    58 C6     4s         0.0037   -0.0060   -0.0097   -0.0106   -0.0152   -0.0080    0.0058   -0.0014    0.0040   -0.0068
    59 C6     2px        0.0075    0.0357    0.0102    0.0219    0.0026   -0.0056    0.0119   -0.0203    0.0855   -0.1406
    60 C6     3px        0.0070   -0.0098   -0.0076    0.0025   -0.0040    0.0044   -0.0044    0.0029   -0.0072    0.0213
    61 C6     4px       -0.0003    0.0001   -0.0004   -0.0044   -0.0055   -0.0058    0.0029   -0.0013    0.0029   -0.0065
    62 C6     2py       -0.0006   -0.0565   -0.0138   -0.0185   -0.0084    0.0151   -0.1428   -0.0566    0.0477    0.1649
    63 C6     3py        0.0005    0.0079    0.0092    0.0053   -0.0001   -0.0065    0.0035    0.0035    0.0002   -0.0264
    64 C6     4py       -0.0002   -0.0018   -0.0006    0.0051    0.0085    0.0076   -0.0116   -0.0045    0.0019    0.0064
    65 C6     2pz       -0.0039   -0.0817   -0.0213   -0.0114    0.0165    0.0347   -0.0148    0.0532   -0.1722    0.2164
    66 C6     3pz       -0.0037    0.0121    0.0151    0.0185    0.0251    0.0053   -0.0055   -0.0046    0.0257   -0.0314
    67 C6     4pz       -0.0007    0.0016    0.0021    0.0078    0.0154    0.0124   -0.0036    0.0041   -0.0077    0.0119
    68 C6     3d2-      -0.0004   -0.0079   -0.0027   -0.0035   -0.0016    0.0011   -0.0084   -0.0019   -0.0028    0.0150
    69 C6     3d1-       0.0002    0.0175    0.0058    0.0046    0.0013   -0.0038    0.0142    0.0019    0.0070   -0.0250
    70 C6     3d0       -0.0000    0.0067    0.0028    0.0018   -0.0002   -0.0019   -0.0034   -0.0050    0.0084   -0.0106
    71 C6     3d1+      -0.0002   -0.0110   -0.0042   -0.0033   -0.0015    0.0021    0.0012    0.0052   -0.0146    0.0173
    72 C6     3d2+       0.0000   -0.0033   -0.0015   -0.0030   -0.0019   -0.0003   -0.0044   -0.0002   -0.0055    0.0071
    73 C19    1s        -0.0148   -0.0011    0.0072   -0.0371    0.0520   -0.0338   -0.0104    0.0102   -0.0016   -0.0052
    74 C19    2s        -0.0076   -0.0034   -0.0056    0.1826   -0.3134    0.2597    0.0492   -0.0820    0.0349    0.0377
    75 C19    3s        -0.0395   -0.0002    0.0214   -0.0764    0.0986   -0.0540   -0.0268    0.0231   -0.0024   -0.0108
    76 C19    4s        -0.0042    0.0018    0.0034   -0.0163    0.0217   -0.0122   -0.0066    0.0068   -0.0017   -0.0026
    77 C19    2px       -0.0078    0.0071   -0.0232    0.0454   -0.0230   -0.0075   -0.0306    0.0485   -0.0515   -0.0411
    78 C19    3px       -0.0055    0.0022    0.0004    0.0069    0.0045    0.0009    0.0030   -0.0036    0.0035    0.0083
    79 C19    4px        0.0080    0.0001   -0.0001   -0.0029    0.0109   -0.0112   -0.0032    0.0025   -0.0047   -0.0027
    80 C19    2py        0.0190    0.0041   -0.0024    0.0311   -0.0246   -0.0043   -0.0324    0.0668   -0.0179   -0.0956
    81 C19    3py       -0.0098    0.0052    0.0074   -0.0205    0.0251   -0.0153    0.0028   -0.0101   -0.0053    0.0116
    82 C19    4py        0.0045    0.0002    0.0005   -0.0074    0.0149   -0.0142   -0.0052    0.0118    0.0003   -0.0036
    83 C19    2pz        0.0064    0.0033   -0.0063    0.0068   -0.0106    0.0085    0.0008    0.0106   -0.0094   -0.0026
    84 C19    3pz        0.0043    0.0042   -0.0053    0.0008   -0.0052    0.0071    0.0049    0.0043   -0.0006    0.0046
    85 C19    4pz        0.0011    0.0010    0.0001   -0.0015    0.0016   -0.0016    0.0006    0.0027   -0.0007    0.0002
    86 C19    3d2-       0.0008    0.0014   -0.0055    0.0083   -0.0064    0.0000   -0.0039    0.0079   -0.0007   -0.0067
    87 C19    3d1-       0.0007    0.0000    0.0002    0.0012   -0.0015    0.0006   -0.0002    0.0009   -0.0008   -0.0012
    88 C19    3d0        0.0014   -0.0001    0.0006   -0.0060    0.0062   -0.0021    0.0018   -0.0036    0.0040    0.0042
    89 C19    3d1+      -0.0006    0.0001   -0.0004    0.0010   -0.0003   -0.0004   -0.0008    0.0013   -0.0006   -0.0009
    90 C19    3d2+      -0.0066    0.0012   -0.0027   -0.0044    0.0058   -0.0030    0.0008   -0.0032    0.0008    0.0057
    91 N2     1s        -0.0184   -0.0102    0.0368   -0.0066   -0.0020    0.0044   -0.0021    0.0049    0.0018    0.0019
    92 N2     2s         0.1538    0.1388   -0.5737    0.1047    0.1466   -0.1919   -0.0034   -0.1027    0.0053    0.0714
    93 N2     3s        -0.0440   -0.0177    0.0600   -0.0090    0.0044   -0.0004   -0.0081    0.0086    0.0037    0.0110
    94 N2     4s        -0.0112   -0.0061    0.0217   -0.0022   -0.0014    0.0022   -0.0024    0.0027   -0.0000    0.0015
    95 N2     2px       -0.0256    0.0010    0.0154   -0.1052    0.0688    0.0779    0.1695   -0.3580   -0.0324    0.0109
    96 N2     3px        0.0270   -0.0044    0.0087    0.0442    0.0145   -0.0441   -0.0579    0.0996   -0.0031   -0.0026
    97 N2     4px       -0.0042    0.0011   -0.0023   -0.0003    0.0078   -0.0058   -0.0025    0.0002   -0.0041   -0.0003
    98 N2     2py        0.0289    0.0017    0.0145   -0.1177    0.0368    0.0727    0.0172    0.1559    0.3284    0.1194
    99 N2     3py        0.0013   -0.0219    0.0572    0.0402    0.0097   -0.0709   -0.0134   -0.0226   -0.0596   -0.0190
   100 N2     4py       -0.0080   -0.0046    0.0147   -0.0026    0.0008   -0.0053   -0.0054    0.0084   -0.0002    0.0000
   101 N2     2pz       -0.0023    0.0020    0.0087   -0.0275   -0.0100    0.0042   -0.0009    0.0324   -0.0201    0.0826
   102 N2     3pz       -0.0003   -0.0049    0.0041   -0.0049   -0.0039   -0.0076    0.0046   -0.0028   -0.0029   -0.0202
   103 N2     4pz       -0.0018   -0.0012    0.0033   -0.0036   -0.0021   -0.0010    0.0006    0.0017    0.0012   -0.0036
   104 N2     3d2-      -0.0024    0.0027   -0.0076   -0.0039   -0.0022    0.0092    0.0034    0.0045    0.0145    0.0031
   105 N2     3d1-       0.0001    0.0012   -0.0023   -0.0005    0.0000   -0.0010   -0.0002   -0.0025   -0.0040    0.0041
   106 N2     3d0       -0.0033   -0.0034    0.0150   -0.0008   -0.0030    0.0026    0.0009   -0.0001   -0.0016    0.0005
   107 N2     3d1+      -0.0000    0.0001   -0.0002   -0.0002   -0.0012    0.0006   -0.0012    0.0018    0.0003    0.0021
   108 N2     3d2+       0.0048    0.0006   -0.0036    0.0095   -0.0017   -0.0081   -0.0092    0.0177    0.0022   -0.0032
   109 N5     1s        -0.0012   -0.0405   -0.0114   -0.0024    0.0029    0.0018   -0.0036   -0.0014    0.0040   -0.0020
   110 N5     2s         0.0113    0.5617    0.1880    0.0028   -0.1051   -0.1918    0.1654   -0.0111    0.1255   -0.1341
   111 N5     3s         0.0002   -0.0778   -0.0225   -0.0131   -0.0037   -0.0100   -0.0035   -0.0055    0.0183   -0.0108
   112 N5     4s         0.0005   -0.0253   -0.0083   -0.0041   -0.0009   -0.0003   -0.0025   -0.0007    0.0016   -0.0007
   113 N5     2px       -0.0037    0.0023   -0.0156   -0.0637   -0.0604   -0.0263   -0.0749   -0.0354    0.0022    0.1113
   114 N5     3px       -0.0066    0.0244   -0.0045    0.0043    0.0323    0.0236    0.0294    0.0045   -0.0034   -0.0158
   115 N5     4px       -0.0017    0.0012   -0.0017   -0.0035    0.0029    0.0028    0.0016   -0.0005   -0.0011   -0.0021
   116 N5     2py       -0.0138   -0.0008    0.0171    0.0429    0.0464    0.0481   -0.3125   -0.2163    0.2677   -0.1960
   117 N5     3py       -0.0170   -0.0409    0.0012   -0.0231   -0.0402   -0.0516    0.0695    0.0221   -0.0558    0.0179
   118 N5     4py       -0.0038   -0.0124    0.0007   -0.0051   -0.0004   -0.0048   -0.0080   -0.0030   -0.0005    0.0011
   119 N5     2pz       -0.0164   -0.0311    0.0279    0.1251    0.1667    0.0859    0.2169    0.1138   -0.0485   -0.2893
   120 N5     3pz       -0.0212   -0.0012    0.0319   -0.0487   -0.0532   -0.0574   -0.0539   -0.0223   -0.0098    0.0548
   121 N5     4pz       -0.0028    0.0027    0.0058    0.0010    0.0020   -0.0039   -0.0007   -0.0004   -0.0010    0.0071
   122 N5     3d2-       0.0000   -0.0014   -0.0004   -0.0040   -0.0051   -0.0042    0.0008    0.0014   -0.0046    0.0068
   123 N5     3d1-       0.0004   -0.0000   -0.0004    0.0059    0.0107    0.0090    0.0108    0.0071   -0.0000   -0.0102
   124 N5     3d0        0.0010    0.0129    0.0024   -0.0035   -0.0041    0.0004   -0.0145   -0.0066    0.0066    0.0045
   125 N5     3d1+      -0.0002   -0.0113   -0.0036   -0.0012   -0.0012   -0.0016    0.0015    0.0008   -0.0020    0.0034
   126 N5     3d2+       0.0003   -0.0069   -0.0032   -0.0012    0.0007    0.0056   -0.0089   -0.0031    0.0018    0.0001
   127 O7     1s        -0.0239    0.0017   -0.0043   -0.0022    0.0028   -0.0014    0.0034   -0.0101   -0.0063    0.0045
   128 O7     2s         0.6719   -0.1206    0.3098   -0.1603    0.1380   -0.0216    0.1057   -0.2919   -0.1439    0.0794
   129 O7     3s        -0.0303   -0.0018    0.0058   -0.0145    0.0145   -0.0062    0.0125   -0.0349   -0.0205    0.0135
   130 O7     4s        -0.0129    0.0007   -0.0011   -0.0026    0.0027   -0.0016    0.0022   -0.0067   -0.0043    0.0026
   131 O7     2px        0.0854   -0.0021    0.0020   -0.0015    0.0138   -0.0237   -0.0588    0.1393    0.0828   -0.0275
   132 O7     3px       -0.0240    0.0070   -0.0054   -0.0067    0.0059    0.0081    0.0035   -0.0189   -0.0102   -0.0002
   133 O7     4px       -0.0011    0.0016   -0.0010   -0.0013    0.0004    0.0029    0.0001   -0.0021   -0.0003   -0.0004
   134 O7     2py       -0.1143    0.0231   -0.0476   -0.0138    0.0188   -0.0163    0.0143   -0.0978   -0.0974    0.0756
   135 O7     3py        0.0393    0.0026    0.0007    0.0078   -0.0107    0.0028   -0.0090    0.0181    0.0090   -0.0098
   136 O7     4py        0.0010    0.0014    0.0009   -0.0008   -0.0007    0.0016   -0.0011    0.0016    0.0013   -0.0010
   137 O7     2pz       -0.0152    0.0061   -0.0031   -0.0084    0.0028    0.0024    0.0005   -0.0170   -0.0143    0.0082
   138 O7     3pz        0.0032    0.0038    0.0004   -0.0008   -0.0003    0.0059   -0.0030   -0.0003    0.0003   -0.0023
   139 O7     4pz       -0.0005    0.0009    0.0001   -0.0003    0.0004    0.0020   -0.0011   -0.0003    0.0002   -0.0005
   140 O7     3d2-      -0.0174    0.0021   -0.0043    0.0006   -0.0020    0.0017    0.0030   -0.0087   -0.0060    0.0027
   141 O7     3d1-       0.0025   -0.0003    0.0012    0.0000   -0.0002    0.0004   -0.0000    0.0004    0.0010   -0.0009
   142 O7     3d0       -0.0101    0.0016   -0.0043    0.0016   -0.0009   -0.0006    0.0009   -0.0031   -0.0033    0.0016
   143 O7     3d1+      -0.0018    0.0007   -0.0001   -0.0002   -0.0001    0.0002    0.0003   -0.0010   -0.0010    0.0007
   144 O7     3d2+      -0.0056    0.0017   -0.0048   -0.0006    0.0030   -0.0040   -0.0021    0.0022   -0.0009    0.0033
   145 O8     1s         0.0010    0.0027    0.0009    0.0029    0.0029   -0.0020    0.0133    0.0020    0.0162    0.0138
   146 O8     2s        -0.0716   -0.3032   -0.0205    0.1699    0.1075   -0.0750    0.3472    0.0520    0.2675    0.2345
   147 O8     3s        -0.0012   -0.0075    0.0006    0.0126    0.0104   -0.0080    0.0420    0.0059    0.0462    0.0392
   148 O8     4s         0.0004    0.0007   -0.0002    0.0015    0.0014   -0.0016    0.0080    0.0011    0.0094    0.0084
   149 O8     2px       -0.0007   -0.0043   -0.0046   -0.0122   -0.0001    0.0122    0.0030    0.0255   -0.0270    0.0101
[...]
AIVX     1  Mu1.0001  In1.027 Se1.044               0.21468641      0.00130062     -0.00221837     -0.00000289
AIVX     1  Mu1.0001  In1.028 Se1.044               0.12676580      0.00010113     -0.00047903     -0.00000005
AIVX     1  Mu1.0001  In1.029 Se1.044               0.10685552     -0.00082379      0.00192378     -0.00000158
AIVX     1  Mu1.0001  In1.021 Se1.045               0.28316738      0.00023283     -0.00071458     -0.00000017
AIVX     1  Mu1.0001  In1.022 Se1.045               0.18750690     -0.00231116      0.00382143     -0.00000883
AIVX     1  Mu1.0001  In1.023 Se1.045               0.26160634     -0.00001581      0.00017422     -0.00000000
AIVX     1  Mu1.0001  In1.024 Se1.045               0.23559627     -0.00117460      0.00229648     -0.00000270
AIVX     1  Mu1.0001  In1.025 Se1.045               0.25401427      0.00081316     -0.00114053     -0.00000093
AIVX     1  Mu1.0001  In1.026 Se1.045               0.13021340     -0.00009455      0.00026988     -0.00000003
AIVX     1  Mu1.0001  In1.027 Se1.045               0.22346954      0.00106809     -0.00180019     -0.00000192
AIVX     1  Mu1.0001  In1.028 Se1.045               0.13554894     -0.00027360      0.00078566     -0.00000021
AIVX     1  Mu1.0001  In1.029 Se1.045               0.11563866     -0.00146044      0.00304393     -0.00000445
AIVX     1  Mu1.0001  In1.022 Se1.046               0.21003501     -0.00184488      0.00328573     -0.00000606
AIVX     1  Mu1.0001  In1.023 Se1.046               0.28413446      0.00067557     -0.00136511     -0.00000092
AIVX     1  Mu1.0001  In1.024 Se1.046               0.25812438      0.00142976     -0.00233831     -0.00000334
AIVX     1  Mu1.0001  In1.025 Se1.046               0.27654239     -0.00075201      0.00139001     -0.00000105
AIVX     1  Mu1.0001  In1.026 Se1.046               0.15274151     -0.00178925      0.00323806     -0.00000579
AIVX     1  Mu1.0001  In1.027 Se1.046               0.24599766     -0.00007045      0.00019640     -0.00000001
AIVX     1  Mu1.0001  In1.028 Se1.046               0.15807705     -0.00009640      0.00029690     -0.00000003
AIVX     1  Mu1.0001  In1.029 Se1.046               0.13816677      0.00147510     -0.00274739     -0.00000405
AIVX     1  Mu1.0001  In1.022 Se1.047               0.22028033      0.00058099     -0.00121053     -0.00000070
AIVX     1  Mu1.0001  In1.023 Se1.047               0.29437978      0.00069072     -0.00122774     -0.00000085
AIVX     1  Mu1.0001  In1.024 Se1.047               0.26836970     -0.00003845      0.00011145     -0.00000000
AIVX     1  Mu1.0001  In1.025 Se1.047               0.28678770      0.00059695     -0.00086975     -0.00000052
AIVX     1  Mu1.0001  In1.026 Se1.047               0.16298683      0.00031886     -0.00048259     -0.00000015
AIVX     1  Mu1.0001  In1.027 Se1.047               0.25624297     -0.00068642      0.00112516     -0.00000077
AIVX     1  Mu1.0001  In1.028 Se1.047               0.16832237     -0.00058745      0.00139866     -0.00000082
AIVX     1  Mu1.0001  In1.029 Se1.047               0.14841209     -0.00065971      0.00131144     -0.00000087
AIVX     1  Mu1.0001  In1.022 Se1.048               0.24142891     -0.00110296      0.00161610     -0.00000178
AIVX     1  Mu1.0001  In1.024 Se1.048               0.28951828      0.00104394     -0.00191507     -0.00000200
AIVX     1  Mu1.0001  In1.026 Se1.048               0.18413541      0.00030164     -0.00081328     -0.00000025
AIVX     1  Mu1.0001  In1.027 Se1.048               0.27739156     -0.00023839      0.00030634     -0.00000007
AIVX     1  Mu1.0001  In1.028 Se1.048               0.18947095      0.00026783     -0.00090853     -0.00000024
AIVX     1  Mu1.0001  In1.029 Se1.048               0.16956067      0.00025182     -0.00025064     -0.00000006
AIVX     1  Mu1.0001  In1.022 Se1.049               0.24630323     -0.00114895      0.00233096     -0.00000268
AIVX     1  Mu1.0001  In1.024 Se1.049               0.29439260     -0.00143284      0.00250469     -0.00000359
AIVX     1  Mu1.0001  In1.026 Se1.049               0.18900973      0.00015569     -0.00011146     -0.00000002
AIVX     1  Mu1.0001  In1.027 Se1.049               0.28226587     -0.00238655      0.00390707     -0.00000932
AIVX     1  Mu1.0001  In1.028 Se1.049               0.19434526     -0.00039558      0.00128308     -0.00000051
AIVX     1  Mu1.0001  In1.029 Se1.049               0.17443499      0.00044248     -0.00113421     -0.00000050
AIVX     1  Mu1.0001  In1.022 Se1.050               0.26040499      0.00176523     -0.00314591     -0.00000555
AIVX     1  Mu1.0001  In1.026 Se1.050               0.20311149      0.00112573     -0.00211989     -0.00000239
AIVX     1  Mu1.0001  In1.027 Se1.050               0.29636763      0.00116956     -0.00166086     -0.00000194
AIVX     1  Mu1.0001  In1.028 Se1.050               0.20844703     -0.00087477      0.00182271     -0.00000159
AIVX     1  Mu1.0001  In1.029 Se1.050               0.18853675      0.00007495     -0.00007931     -0.00000001
AIVX     1  Mu1.0001  In1.022 Se1.051               0.25510711      0.00033040     -0.00014990     -0.00000005
AIVX     1  Mu1.0001  In1.026 Se1.051               0.19781360     -0.00037705      0.00088967     -0.00000034
AIVX     1  Mu1.0001  In1.027 Se1.051               0.29106975     -0.00221694      0.00355502     -0.00000788
AIVX     1  Mu1.0001  In1.028 Se1.051               0.20314914      0.00004428      0.00003477      0.00000000
AIVX     1  Mu1.0001  In1.029 Se1.051               0.18323887     -0.00042391      0.00056718     -0.00000024
AIVX     1  Mu1.0001  In1.022 Se1.052               0.29580475     -0.00028079      0.00032693     -0.00000009
AIVX     1  Mu1.0001  In1.026 Se1.052               0.23851124     -0.00073197      0.00085502     -0.00000063
AIVX     1  Mu1.0001  In1.028 Se1.052               0.24384678     -0.00039848      0.00069346     -0.00000028
AIVX     1  Mu1.0001  In1.029 Se1.052               0.22393651      0.00149942     -0.00216820     -0.00000325
AIVX     1  Mu1.0001  In1.026 Se1.053               0.25590688     -0.00095777      0.00142124     -0.00000136
AIVX     1  Mu1.0001  In1.028 Se1.053               0.26124242     -0.00023481      0.00043512     -0.00000010
AIVX     1  Mu1.0001  In1.029 Se1.053               0.24133215     -0.00065572      0.00134521     -0.00000088
AIVX     1  Mu1.0001  In1.026 Se1.054               0.26998732     -0.00035578      0.00056779     -0.00000020
AIVX     1  Mu1.0001  In1.028 Se1.054               0.27532286     -0.00130982      0.00247652     -0.00000324
AIVX     1  Mu1.0001  In1.029 Se1.054               0.25541258     -0.00090500      0.00167186     -0.00000151
AIVX     1  Mu1.0001  In1.026 Se1.055               0.27818315      0.00036798     -0.00050267     -0.00000018
AIVX     1  Mu1.0001  In1.028 Se1.055               0.28351868      0.00029192     -0.00032202     -0.00000009
AIVX     1  Mu1.0001  In1.029 Se1.055               0.26360841      0.00051773     -0.00067354     -0.00000035
AIVX     1  Mu1.0001  In1.026 Se1.056               0.29331409      0.00064810     -0.00099592     -0.00000065
AIVX     1  Mu1.0001  In1.028 Se1.056               0.29864963     -0.00179979      0.00308130     -0.00000555
AIVX     1  Mu1.0001  In1.029 Se1.056               0.27873935      0.00053224     -0.00056407     -0.00000030
AIVX     1  Mu1.0001  In1.029 Se1.058               0.29926947     -0.00035240      0.00090301     -0.00000032
--
 
   (Skipping property calculation,
    use PROP keyword to activate)
--
 
  Total CASPT2 energies:
::    CASPT2 Root  1     Total energy:   -455.37651784
::    CASPT2 Root  2     Total energy:   -455.16575831
::    CASPT2 Root  3     Total energy:   -455.17129958
::    CASPT2 Root  4     Total energy:   -455.12413361
::    CASPT2 Root  5     Total energy:   -455.12628621
::    CASPT2 Root  6     Total energy:   -455.09204801
::    CASPT2 Root  7     Total energy:   -455.07985163
 
++ Multi-State CASPT2 section:
********************************************************************************
  MULTI-STATE CASPT2 SECTION
--------------------------------------------------------------------------------
 
  Output diagonal energies have been shifted. Add   -455.000000000000     
 
  Effective Hamiltonian matrix (Symmetric):
 
                1               2               3               4               5
   1        -0.37651784
   2        -0.00025387     -0.16575831
   3         0.00028180     -0.00062973     -0.17129958
   4        -0.01266933      0.00120984      0.00012697     -0.12413361
   5         0.01912647      0.00033282     -0.00129879      0.00053505     -0.12628621
   6         0.00698124      0.00247293      0.00183614     -0.00495385     -0.01467921
   7         0.01503167      0.00094717      0.00009621      0.01035740     -0.01222627
 
                6               7
   6        -0.09204801
   7        -0.00505393     -0.07985163
 
       Total MS-CASPT2 energies:
::    MS-CASPT2 Root  1     Total energy:   -455.37973375
::    MS-CASPT2 Root  2     Total energy:   -455.17144560
::    MS-CASPT2 Root  3     Total energy:   -455.16583443
::    MS-CASPT2 Root  4     Total energy:   -455.13262265
::    MS-CASPT2 Root  5     Total energy:   -455.12596747
::    MS-CASPT2 Root  6     Total energy:   -455.08612934
::    MS-CASPT2 Root  7     Total energy:   -455.07416194
 
       Eigenvectors:
            0.99359125      0.00255884     -0.00421306      0.09342518     -0.05809722
            0.00158002      0.12105939      0.99088898      0.04066557      0.03257240
           -0.00159001      0.99214637     -0.12154086     -0.01384033      0.00660297
            0.05110152     -0.00764847     -0.03072412      0.01454471      0.97227660
           -0.07940335      0.01865923     -0.02796888      0.91014508     -0.01059239
           -0.02825768     -0.02401073     -0.03827400      0.33968335      0.11833711
           -0.05528697     -0.00068325     -0.01256860      0.21322780     -0.18995393
 
            0.00826102      0.02409013
            0.02680671      0.00692151
            0.02521303     -0.00010857
           -0.08966517      0.20691300
           -0.37238513     -0.15942939
            0.91323326     -0.18378427
            0.13368601      0.94729318
 
--
 
  THE ORIGINAL CI ARRAYS ARE NOW MIXED AS LINEAR
  COMBINATIONS, GIVEN BY THE EIGENVECTORS.
  A NEW JOBIPH FILE NAMED 'JOBMIX' IS PREPARED.
********************************************************************************
 
++ Mixed CI coefficients:
  The CI coefficients for the MIXED state nr.   1
--------------------------------------------------------------------------------
 CI COEFFICIENTS LARGER THAN  0.50D-01
  Occupation of active orbitals, and spin coupling
  of open shells. (u,d: Spin up or down).
  SGUGA info is (Midvert:IsyUp:UpperWalk/LowerWalk)
        Conf  SGUGA info        Occupation    Coefficient         Weight
           1  ( 1:1:   1/   1)   22222200        0.955749       0.913457
           7  ( 1:1:   7/   1)   22222u0d        0.137404       0.018880
          64  ( 2:1:   4/   3)   2u22220d       -0.091057       0.008291
          81  ( 2:1:   1/   4)   u22222d0        0.120475       0.014514
         101  ( 3:1:   1/   1)   22202220       -0.092022       0.008468
         145  ( 3:1:   5/   5)   22022202       -0.106525       0.011348
         155  ( 3:1:   5/   6)   2ud22202        0.051199       0.002621
         175  ( 3:1:   5/   8)   20222202       -0.080834       0.006534
         191  ( 3:1:   1/  10)   02222220       -0.072032       0.005189
 
  The CI coefficients for the MIXED state nr.   2
--------------------------------------------------------------------------------
 CI COEFFICIENTS LARGER THAN  0.50D-01
  Occupation of active orbitals, and spin coupling
  of open shells. (u,d: Spin up or down).
  SGUGA info is (Midvert:IsyUp:UpperWalk/LowerWalk)
        Conf  SGUGA info        Occupation    Coefficient         Weight
           2  ( 1:1:   2/   1)   22222ud0       -0.939939       0.883486
           9  ( 1:1:   9/   1)   222220ud       -0.115801       0.013410
          22  ( 2:1:   2/   1)   222u2d20        0.166452       0.027706
          41  ( 2:1:   1/   2)   22u222d0       -0.078258       0.006124
          45  ( 2:1:   5/   2)   22u22dud       -0.070076       0.004911
          47  ( 2:1:   7/   2)   22u22udd       -0.078473       0.006158
          67  ( 2:1:   7/   3)   2u222udd        0.084606       0.007158
          82  ( 2:1:   2/   4)   u2222d20        0.123063       0.015144
         146  ( 3:1:   6/   5)   22022ud2        0.093748       0.008789
         156  ( 3:1:   6/   6)   2ud22ud2       -0.069540       0.004836
         176  ( 3:1:   6/   8)   20222ud2        0.086545       0.007490
 
  The CI coefficients for the MIXED state nr.   3
--------------------------------------------------------------------------------
 CI COEFFICIENTS LARGER THAN  0.50D-01
  Occupation of active orbitals, and spin coupling
  of open shells. (u,d: Spin up or down).
  SGUGA info is (Midvert:IsyUp:UpperWalk/LowerWalk)
        Conf  SGUGA info        Occupation    Coefficient         Weight
           3  ( 1:1:   3/   1)   2222u2d0       -0.094950       0.009016
           8  ( 1:1:   8/   1)   2222u20d       -0.941099       0.885668
          16  ( 1:1:  16/   1)   2222ud02       -0.082483       0.006803
          44  ( 2:1:   4/   2)   22u2220d       -0.103084       0.010626
          54  ( 2:1:  14/   2)   22u2d202        0.129582       0.016791
          74  ( 2:1:  14/   3)   2u22d202       -0.164046       0.026911
          86  ( 2:1:   6/   4)   u222d2ud       -0.061256       0.003752
          88  ( 2:1:   8/   4)   u222u2dd        0.100024       0.010005
         104  ( 3:1:   4/   1)   2220u22d       -0.089904       0.008083
         134  ( 3:1:   4/   4)   u22du22d       -0.060618       0.003674
         194  ( 3:1:   4/  10)   0222u22d       -0.075594       0.005714
 
  The CI coefficients for the MIXED state nr.   4
--------------------------------------------------------------------------------
 CI COEFFICIENTS LARGER THAN  0.50D-01
  Occupation of active orbitals, and spin coupling
  of open shells. (u,d: Spin up or down).
  SGUGA info is (Midvert:IsyUp:UpperWalk/LowerWalk)
        Conf  SGUGA info        Occupation    Coefficient         Weight
           3  ( 1:1:   3/   1)   2222u2d0       -0.064302       0.004135
           7  ( 1:1:   7/   1)   22222u0d       -0.125073       0.015643
           8  ( 1:1:   8/   1)   2222u20d       -0.093737       0.008787
          21  ( 2:1:   1/   1)   222u22d0        0.064802       0.004199
          41  ( 2:1:   1/   2)   22u222d0        0.141485       0.020018
          44  ( 2:1:   4/   2)   22u2220d        0.894515       0.800157
          64  ( 2:1:   4/   3)   2u22220d        0.098220       0.009647
         145  ( 3:1:   5/   5)   22022202        0.151483       0.022947
         155  ( 3:1:   5/   6)   2ud22202        0.237111       0.056222
         162  ( 3:1:   2/   7)   u2d222ud        0.062446       0.003899
         175  ( 3:1:   5/   8)   20222202       -0.097810       0.009567
         225  ( 4:1:   1/   5)   u2u222dd       -0.100547       0.010110
         237  ( 5:1:   1/   1)   22u0222d       -0.085777       0.007358
         277  ( 5:1:   1/  11)   u2ud222d        0.050337       0.002534
         301  ( 5:1:   1/  17)   02u2222d        0.071902       0.005170
 
  The CI coefficients for the MIXED state nr.   5
--------------------------------------------------------------------------------
 CI COEFFICIENTS LARGER THAN  0.50D-01
  Occupation of active orbitals, and spin coupling
  of open shells. (u,d: Spin up or down).
  SGUGA info is (Midvert:IsyUp:UpperWalk/LowerWalk)
        Conf  SGUGA info        Occupation    Coefficient         Weight
           3  ( 1:1:   3/   1)   2222u2d0        0.236137       0.055761
           7  ( 1:1:   7/   1)   22222u0d       -0.119927       0.014382
           8  ( 1:1:   8/   1)   2222u20d       -0.054481       0.002968
          21  ( 2:1:   1/   1)   222u22d0       -0.883448       0.780481
          27  ( 2:1:   7/   1)   222u2udd        0.069359       0.004811
          41  ( 2:1:   1/   2)   22u222d0        0.160218       0.025670
          81  ( 2:1:   1/   4)   u22222d0        0.086923       0.007556
         112  ( 3:1:   2/   2)   22ud22ud       -0.057081       0.003258
         122  ( 3:1:   2/   3)   2u2d22ud        0.050895       0.002590
         131  ( 3:1:   1/   4)   u22d2220        0.209028       0.043693
         191  ( 3:1:   1/  10)   02222220        0.058613       0.003435
         201  ( 4:1:   1/   1)   22uu22dd       -0.091844       0.008435
         207  ( 4:1:   1/   2)   2u2u22dd        0.074469       0.005546
         250  ( 5:1:   2/   4)   220u22d2        0.088999       0.007921
         254  ( 5:1:   2/   5)   2udu22d2       -0.067840       0.004602
         262  ( 5:1:   2/   7)   202u22d2        0.082103       0.006741
 
  The CI coefficients for the MIXED state nr.   6
--------------------------------------------------------------------------------
 CI COEFFICIENTS LARGER THAN  0.50D-01
  Occupation of active orbitals, and spin coupling
  of open shells. (u,d: Spin up or down).
  SGUGA info is (Midvert:IsyUp:UpperWalk/LowerWalk)
        Conf  SGUGA info        Occupation    Coefficient         Weight
           2  ( 1:1:   2/   1)   22222ud0        0.077914       0.006071
          21  ( 2:1:   1/   1)   222u22d0       -0.150777       0.022734
          41  ( 2:1:   1/   2)   22u222d0       -0.908413       0.825214
          44  ( 2:1:   4/   2)   22u2220d        0.144410       0.020854
          45  ( 2:1:   5/   2)   22u22dud        0.196869       0.038757
          47  ( 2:1:   7/   2)   22u22udd       -0.063457       0.004027
          65  ( 2:1:   5/   3)   2u222dud       -0.060098       0.003612
         113  ( 3:1:   3/   2)   22ud2u2d        0.058554       0.003429
         152  ( 3:1:   2/   6)   2ud222ud       -0.135918       0.018474
         161  ( 3:1:   1/   7)   u2d22220        0.053947       0.002910
         219  ( 4:1:   1/   4)   2uu222dd        0.154321       0.023815
         294  ( 5:1:   2/  15)   20u222d2        0.109104       0.011904
 
  The CI coefficients for the MIXED state nr.   7
--------------------------------------------------------------------------------
 CI COEFFICIENTS LARGER THAN  0.50D-01
  Occupation of active orbitals, and spin coupling
  of open shells. (u,d: Spin up or down).
  SGUGA info is (Midvert:IsyUp:UpperWalk/LowerWalk)
        Conf  SGUGA info        Occupation    Coefficient         Weight
           3  ( 1:1:   3/   1)   2222u2d0        0.850323       0.723049
           8  ( 1:1:   8/   1)   2222u20d       -0.084229       0.007094
          10  ( 1:1:  10/   1)   2222udud       -0.195427       0.038192
          12  ( 1:1:  12/   1)   2222uudd        0.232746       0.054171
          18  ( 1:1:  18/   1)   2222u0d2        0.068679       0.004717
          21  ( 2:1:   1/   1)   222u22d0        0.233141       0.054355
          30  ( 2:1:  10/   1)   222udu2d       -0.078910       0.006227
          46  ( 2:1:   6/   2)   22u2d2ud       -0.159728       0.025513
          48  ( 2:1:   8/   2)   22u2u2dd       -0.238017       0.056652
          83  ( 2:1:   3/   4)   u222d220       -0.058795       0.003457
         177  ( 3:1:   7/   8)   2022u2d2       -0.065129       0.004242
 
--
 
--- Stop Module: caspt2 at Tue Jun 10 22:38:20 2025 /rc=_RC_ALL_IS_WELL_ ---
*** files: xmldump
    saved to directory /home/pcaah4/diamide_project
--- Module caspt2 spent 6 minutes 53 seconds ---

.##################.
.# Happy landing! #.
.##################.

    Timing: Wall=681.38 User=593.68 System=78.20
******************************************************
*** WorkDir at /srv/COMMUNAL_SCRATCH/12501 cleaned ***
******************************************************
