   This run of MOLCAS is using the pymolcas driver

                             OPE
                             OPE          NMOL  CASOP  ENMOLC A   SO
                 OPE        NMOLC        AS  OP EN  MO LC     AS  OP
                OPENM       OL CA        SO  PE NM  OL CA     SOP EN
                OP EN      MO   LC       AS  OP ENMOL  CASO   PENMOL
                OP  EN     MO   LC       AS  OP EN     MO     LC ASO
               OP   E  NMOL  C  AS       OP  EN MO     LC     AS  OP
               OP  E   NMO   LC AS        OPEN  MO     LCASOP EN   M
               O  PEN   MO  LCA  SO
            OPE   NMO   L   CAS    OP
        OPENMOL  CASOP     ENMOL   CASOPE
     OPENMOLCA   SOPENMOLCASOPEN   MOLCASOPE
    OPENMOLCAS   OP           EN   MOL    CAS
    OPENMOLCAS       OP  ENM        O     LCA
    OPENMOLCAS    OPEN  MOLCASO     P  E  NMO
    OPENMOLCAS     OP               E  N  MOL
    OPENMOLCA   SO           PENM   O  L  CAS    OPEN    MO    LCAS
    OPENMOLCA   SOP           ENM   O  L  CAS   OP  EN  MOLC  AS   O
    OPENMOLCA   SOPE           NM      O  LCA   S      OP  EN MO
    OPENMOLC                AS         O  PEN   M      OL  CA  SOPE
    OPENMO        LCASOPE  NMOL        C  ASO   P      ENMOLC     AS
    OPE     NMO      LCA  SO     P     E   NM   OL  CA SO  PE N   MO
          OPENMOLCA            SOPE   NMO        LCAS  O    P  ENMO
     OPENMOLCASOPENMOLCASOPENMOLCASOPENMOLCA
        OPENMOLCASOPENMOLCASOPENMOLCASOPE
            OPENMOLCASOPENMOLCASOPENM
               OPENMOLCASOPENMOLCA        version: v23.06
                   OPENMOLCASO
                       OPE                tag:

 OpenMolcas is free software; you can redistribute it and/or modify it
 under the terms of the GNU Lesser General Public License version 2.1.
 OpenMolcas is distributed in the hope that it will be useful, but it
 is provided "as is" and without any express or implied warranties.
 For more details see the full text of the license in the file
 LICENSE or in <http://www.gnu.org/licenses/>.

                 Copyright (C) The OpenMolcas Authors
           For the author list and the recommended citation,
                   consult the file CONTRIBUTORS.md

           *************************************************
           * pymolcas version py2.24                       *
           *   build 4567b286dd94b1984b333a4ddf893180      *
           *   (after the EMIL interpreter by V. Veryazov) *
           *************************************************

configuration info
------------------
Host name: loginchem01.nottingham.ac.uk (Linux)
C Compiler ID: Intel
C flags: -std=gnu99 -gcc-sys -qopenmp
Fortran Compiler ID: Intel
Fortran flags: -fpp -i8 -heap-arrays -qopenmp
Definitions: _MOLCAS_;_I8_;_LINUX_
Parallel: OFF (GA=OFF)


   ----------------------------------------------------------------------------------------------------
  |
  |              Project: orca_geometry_optimisation_225_120_BP86_def2-SVP_def2J_scf_cas1_ras12i11_cas8
  |       Submitted from: /home/pcaah4/diamide_project
  |         Scratch area: /srv/COMMUNAL_SCRATCH/12391
  |      Save outputs to: /home/pcaah4/diamide_project
  |               Molcas: /software/chemistry/openmolcas/openmolcas-23.06-openmp
  |
  | Scratch area is empty
  |
  |       MOLCAS_DRIVER = /software/chemistry/openmolcas/openmolcas-23.06-openmp/sbin/pymolcas
  | MOLCAS_KEEP_WORKDIR = NO
  |       MOLCAS_NPROCS = 1
  |       MOLCAS_SOURCE = /software/chemistry/openmolcas/openmolcas-23.06-openmp
  |    MOLCAS_STRUCTURE = 0
  |
   ----------------------------------------------------------------------------------------------------

++ ---------   Input file   ---------

&SEWARD
TITLE
orca_geometry_optimisation_225_120_BP86_def2-SVP_def2J_scf_cas1_ras12i11
MULTIPOLES
2
SDIPOLE
ANGMOM
0 0 0
BASIS SET
C.ANO-S...4S3P1D.
C1           -0.003950   -0.032207    0.009656 /Angstrom
C3            2.119358    1.242540   -0.028112 /Angstrom
C4            3.270265    1.093253   -1.033308 /Angstrom
C6            4.252730    1.953134   -3.136243 /Angstrom
C19          -0.617468   -1.426488    0.080847 /Angstrom
END OF BASIS
BASIS SET
N.ANO-S...4S3P1D.
N2            1.371267    0.000953    0.025245 /Angstrom
N5            3.250153    1.967871   -2.086893 /Angstrom
END OF BASIS
BASIS SET
O.ANO-S...4S3P1D.
O7           -0.691275    0.987234   -0.056036 /Angstrom
O8            4.111284    0.203059   -0.894001 /Angstrom
END OF BASIS
BASIS SET
H.ANO-S...2S1P.
H9           -1.240556   -1.494162    0.995092 /Angstrom
H10          -1.298411   -1.559201   -0.782994 /Angstrom
H11           0.125006   -2.248505    0.088645 /Angstrom
H12           1.921309   -0.859884    0.070227 /Angstrom
H13           1.392836    2.040786   -0.281244 /Angstrom
H14           2.569531    1.489198    0.961239 /Angstrom
H15           2.496084    2.654748   -2.128953 /Angstrom
H16           3.798586    1.757956   -4.130994 /Angstrom
H17           4.811793    2.911861   -3.185249 /Angstrom
H18           4.960783    1.136528   -2.899188 /Angstrom
END OF BASIS
END OF INPUT

&RASSCF
TITLE
orca_geometry_optimisation_225_120_BP86_def2-SVP_def2J_scf_cas1_ras12i11
LUMORB
SPIN
1
SYMMETRY
1
NACTEL
12  0  0
INACTIVE
29
DELETED  ! delete Rydberg orbitals from an initial CAS(12,11) if done
3
FROZEN
0
RAS2
8
ITERATIONS
64 25
CIROOT
7 7
1 2 3 4 5 6 7
1 1 1 1 1 1 1
LEVSHFT
0.3
CIMX
20
FILEorb = /home/pcaah4/diamide_project/cas/ras12i11/ras_orb/orca_geometry_optimisation_225_120_BP86_def2-SVP_def2J_scf_cas1_ras12i11.RasOrb
ALTEr
2
 1 36 37
 1 37 38
END OF INPUT

&RASSI
NROF JOBIPH
    1 7
    1 2 3 5 4 6 7
TOFILE
TRDI
TDMN
1.0D-6
END OF INPUT

&CASPT2
TITLE
orca_geometry_optimisation_225_120_BP86_def2-SVP_def2J_scf_cas1_ras12i11
MULTISTATE
7 1 2 3 4 5 6 7
SHIFT
0.35
MAXITER
50
END OF INPUT

-- ----------------------------------

--- Start Module: seward at Tue Jun 10 17:40:09 2025 ---
 
()()()()()()()()()()()()()()()()()()()()()()()()()()()()()()()()()()()()()()()()()()()()()()()()()()

                                              &SEWARD

                                   only a single process is used
                       available to each process: 2.0 GB of memory, 1 thread
                                            pid: 3121372
()()()()()()()()()()()()()()()()()()()()()()()()()()()()()()()()()()()()()()()()()()()()()()()()()()
 
               SEWARD will generate:
                  Multipole Moment integrals up to order  2
                  Kinetic Energy integrals
                  Nuclear Attraction integrals (point charge)
                  One-Electron Hamiltonian integrals
                  Velocity integrals
                  Orbital angular momentum around ( 0.0000  0.0000  0.0000 )
                  Velocity quadrupole around ( 3.5936  1.2559 -1.5216 )
                  Two-Electron Repulsion integrals
 
 Title:
            orca_geometry_optimisation_225_120_BP86_def2-SVP_def2J_scf_cas1_ras12i11    
 
 
                   Integrals are discarded if absolute value <: 0.10E-13
                   Integral cutoff threshold is set to       <: 0.10E-15
 
++    Symmetry information:
      ---------------------
 
                    Character Table for C1 
 
                             E  
                    a        1  x, y, xy, Rz, z, xz, Ry, yz, Rx, I
--
 
 
++    Basis set information:
      ----------------------
 
 
      Basis set label: C.ANO-S...4S3P1D......
 
      Electronic valence basis set:
      ------------------
      Associated Effective Charge   6.000000 au
      Associated Actual Charge      6.000000 au
      Nuclear Model: Point charge
 
      Shell  nPrim  nBasis  Cartesian Spherical Contaminant
         s      10       4        X                  
         p       6       3        X                  
         d       3       1                 X         
 
 
      Basis set label: N.ANO-S...4S3P1D......
 
      Electronic valence basis set:
      ------------------
      Associated Effective Charge   7.000000 au
      Associated Actual Charge      7.000000 au
      Nuclear Model: Point charge
 
      Shell  nPrim  nBasis  Cartesian Spherical Contaminant
         s      10       4        X                  
         p       6       3        X                  
         d       3       1                 X         
 
 
      Basis set label: O.ANO-S...4S3P1D......
 
      Electronic valence basis set:
      ------------------
      Associated Effective Charge   8.000000 au
      Associated Actual Charge      8.000000 au
      Nuclear Model: Point charge
 
      Shell  nPrim  nBasis  Cartesian Spherical Contaminant
         s      10       4        X                  
         p       6       3        X                  
         d       3       1                 X         
 
 
      Basis set label: H.ANO-S...2S1P......
 
      Electronic valence basis set:
      ------------------
      Associated Effective Charge   1.000000 au
      Associated Actual Charge      1.000000 au
      Nuclear Model: Point charge
 
      Shell  nPrim  nBasis  Cartesian Spherical Contaminant
         s       7       2        X                  
         p       3       1        X                  
--
 
 
++    Molecular structure info:
      -------------------------
 
                    ************************************************ 
                    **** Cartesian Coordinates / Bohr, Angstrom **** 
                    ************************************************ 
 
     Center  Label                x              y              z                     x              y              z
        1      C1              -0.007464      -0.060862       0.018247             -0.003950      -0.032207       0.009656
        2      C3               4.005006       2.348060      -0.053124              2.119358       1.242540      -0.028112
        3      C4               6.179905       2.065949      -1.952669              3.270265       1.093253      -1.033308
        4      C6               8.036495       3.690888      -5.926640              4.252730       1.953134      -3.136243
        5      C19             -1.166845      -2.695672       0.152779             -0.617468      -1.426488       0.080847
        6      N2               2.591319       0.001801       0.047706              1.371267       0.000953       0.025245
        7      N5               6.141899       3.718737      -3.943656              3.250153       1.967871      -2.086893
        8      O7              -1.306320       1.865602      -0.105893             -0.691275       0.987234      -0.056036
        9      O8               7.769201       0.383726      -1.689417              4.111284       0.203059      -0.894001
       10      H9              -2.344311      -2.823557       1.880451             -1.240556      -1.494162       0.995092
       11      H10             -2.453641      -2.946463      -1.479644             -1.298411      -1.559201      -0.782994
       12      H11              0.236227      -4.249059       0.167515              0.125006      -2.248505       0.088645
       13      H12              3.630748      -1.624945       0.132710              1.921309      -0.859884       0.070227
       14      H13              2.632079       3.856527      -0.531474              1.392836       2.040786      -0.281244
       15      H14              4.855710       2.814176       1.816478              2.569531       1.489198       0.961239
       16      H15              4.716915       5.016747      -4.023138              2.496084       2.654748      -2.128953
       17      H16              7.178287       3.322055      -7.806447              3.798586       1.757956      -4.130994
       18      H17              9.092971       5.502620      -6.019248              4.811793       2.911861      -3.185249
       19      H18              9.374521       2.147727      -5.478671              4.960783       1.136528      -2.899188
 
                    ************************************************* 
                    **** InterNuclear Distances / Bohr, Angstrom **** 
                    ************************************************* 
 
     Atom centers         Bohr        Angstrom
   16 H15       7 N5      1.929177        1.020877
   13 H12       6 N2      1.932341        1.022551
   19 H18       4 C6      2.091014        1.106517
   12 H11       5 C19     2.093285        1.107719
   11 H10       5 C19     2.093692        1.107934
   10 H9        5 C19     2.094668        1.108450
   14 H13       2 C3      2.095046        1.108651
   17 H16       4 C6      2.099103        1.110797
   18 H17       4 C6      2.099307        1.110905
   15 H14       2 C3      2.106270        1.114590
    8 O7        1 C1      2.326736        1.231256
    9 O8        3 C4      2.329171        1.232544
    7 N5        3 C4      2.587892        1.369453
    6 N2        1 C1      2.599706        1.375705
    6 N2        2 C3      2.741097        1.450526
    7 N5        4 C6      2.742717        1.451383
    5 C19       1 C1      2.881750        1.524956
    3 C4        2 C3      2.901387        1.535348
   11 H10      10 H9      3.364120        1.780215
   15 H14      14 H13     3.397633        1.797950
   18 H17      17 H16     3.408072        1.803474
   19 H18      17 H16     3.408964        1.803946
   12 H11      10 H9      3.409602        1.804284
   19 H18      18 H17     3.409810        1.804394
   12 H11      11 H10     3.412518        1.805827
   16 H15       3 C4      3.890294        2.058655
   14 H13       6 N2      3.898207        2.062843
   19 H18       7 N5      3.908221        2.068142
   13 H12       1 C1      3.961823        2.096507
   13 H12       2 C3      3.994919        2.114020
   17 H16       7 N5      4.019031        2.126780
   15 H14       6 N2      4.020631        2.127627
   18 H17       7 N5      4.024816        2.129841
   16 H15       4 C6      4.049794        2.143059
   15 H14       3 C4      4.064457        2.150818
   11 H10       1 C1      4.068679        2.153052
   10 H9        1 C1      4.069538        2.153507
   12 H11       1 C1      4.197934        2.221451
   14 H13       3 C4      4.220549        2.233419
   16 H15      14 H13     4.228992        2.237886
   13 H12      12 H11     4.290682        2.270531
    8 O7        6 N2      4.323071        2.287670
    9 O8        7 N5      4.341890        2.297629
   14 H13       8 O7      4.433496        2.346105
   19 H18       9 O8      4.477410        2.369343
    9 O8        2 C3      4.550300        2.407915
    8 O7        5 C19     4.570731        2.418727
    6 N2        3 C4      4.597843        2.433074
    6 N2        5 C19     4.627224        2.448621
    7 N5        2 C3      4.645569        2.458329
    4 C6        3 C4      4.677585        2.475271
    2 C3        1 C1      4.680590        2.476862
   14 H13       1 C1      4.755556        2.516532
   19 H18       3 C4      4.758671        2.518180
   17 H16      16 H15     4.821178        2.551258
   18 H17      16 H15     4.834293        2.558198
   16 H15       2 C3      4.836291        2.559255
   12 H11       6 N2      4.861134        2.572401
   14 H13       7 N5      4.897021        2.591392
   15 H14      13 H12     4.903204        2.594664
   13 H12       5 C19     4.915665        2.601258
   13 H12       3 C4      4.946686        2.617674
   13 H12       9 O8      4.947898        2.618315
   11 H10       8 O7      5.134151        2.716876
   15 H14       9 O8      5.165929        2.733692
   10 H9        8 O7      5.197230        2.750256
    8 O7        2 C3      5.333455        2.822343
    9 O8        4 C6      5.381713        2.847880
    9 O8        6 N2      5.474845        2.897163
   14 H13      13 H12     5.611151        2.969293
   19 H18      16 H15     5.660667        2.995496
--
 
 
            Nuclear Potential Energy            448.48470109 au
 
 
      Basis set specifications :
      Symmetry species         a  
      Basis functions          212
 
 
      Input file to MOLDEN was generated!
 
--- Stop Module: seward at Tue Jun 10 17:41:58 2025 /rc=_RC_ALL_IS_WELL_ ---
*** files: orca_geometry_optimisation_225_120_BP86_def2-SVP_def2J_scf_cas1_ras12i11_cas8.GssOrb
           orca_geometry_optimisation_225_120_BP86_def2-SVP_def2J_scf_cas1_ras12i11_cas8.guessorb.molden xmldump
    saved to directory /home/pcaah4/diamide_project
--- Module seward spent 1 minute 48 seconds ---

*** symbolic link created: INPORB -> orca_geometry_optimisation_225_120_BP86_def2-SVP_def2J_scf_cas1_ras12i11_cas8.GssOrb
--- Start Module: rasscf at Tue Jun 10 17:41:58 2025 ---
 
()()()()()()()()()()()()()()()()()()()()()()()()()()()()()()()()()()()()()()()()()()()()()()()()()()

                                              &RASSCF

                                   only a single process is used
                       available to each process: 2.0 GB of memory, 1 thread
                                            pid: 3121407
()()()()()()()()()()()()()()()()()()()()()()()()()()()()()()()()()()()()()()()()()()()()()()()()()()
 
 
      Header of the ONEINT file:
      --------------------------
      orca_geometry_optimisation_225_120_BP86_def2-SVP_def2J_scf_cas1_ras12i11
      Integrals generated by Gateway/Seward, Tue Jun 10 17:40:10 2025
 
 
      OrdInt status: non-squared
 
 
      Cartesian coordinates in Angstrom:
      -----------------------------------------------------
      No.  Label        X            Y            Z        
      -----------------------------------------------------
       1   C1        -0.00395000  -0.03220700   0.00965600
       2   C3         2.11935800   1.24254000  -0.02811200
       3   C4         3.27026500   1.09325300  -1.03330800
       4   C6         4.25273000   1.95313400  -3.13624300
       5   C19       -0.61746800  -1.42648800   0.08084700
       6   N2         1.37126700   0.00095300   0.02524500
       7   N5         3.25015300   1.96787100  -2.08689300
       8   O7        -0.69127500   0.98723400  -0.05603600
       9   O8         4.11128400   0.20305900  -0.89400100
      10   H9        -1.24055600  -1.49416200   0.99509200
      11   H10       -1.29841100  -1.55920100  -0.78299400
      12   H11        0.12500600  -2.24850500   0.08864500
      13   H12        1.92130900  -0.85988400   0.07022700
      14   H13        1.39283600   2.04078600  -0.28124400
      15   H14        2.56953100   1.48919800   0.96123900
      16   H15        2.49608400   2.65474800  -2.12895300
      17   H16        3.79858600   1.75795600  -4.13099400
      18   H17        4.81179300   2.91186100  -3.18524900
      19   H18        4.96078300   1.13652800  -2.89918800
      -----------------------------------------------------
      Nuclear repulsion energy =  448.48470109
 
++    Wave function specifications:
      -----------------------------
 
      Number of closed shell electrons          58
      Number of electrons in active shells      12
      Max number of holes in RAS1 space          0
      Max nr of electrons in RAS3 space          0
      Number of inactive orbitals               29
      Number of active orbitals                  8
      Number of secondary orbitals             172
      Spin quantum number                      0.0
      State symmetry                             1
--
 
++    Orbital specifications:
      -----------------------
 
      Symmetry species                           1
                                                 a
      Frozen orbitals                            0
      Inactive orbitals                         29
      Active orbitals                            8
      RAS1 orbitals                              0
      RAS2 orbitals                              8
      RAS3 orbitals                              0
      Secondary orbitals                       172
      Deleted orbitals                           3
      Number of basis functions                212
--
 
++    CI expansion specifications:
      ----------------------------
 
      Number of CSFs                           336
      Number of determinants                   406
      Number of root(s) required                 7
      Root chosen for geometry opt.              7
      CI roots used                              1     2     3     4     5     6     7
      weights                                0.143 0.143 0.143 0.143 0.143 0.143 0.143
      highest root included in the CI            7
      max. size of the explicit Hamiltonian    200
--
 
++    Optimization specifications:
      ----------------------------
 
      RASSCF algorithm: Conventional
      Maximum number of macro iterations        64
      Maximum number of SX iterations           25
      Threshold for RASSCF energy            0.100E-07
      Threshold for max MO rotation          0.100E+00
      Threshold for max BLB element          0.100E-03
      Level shift parameter                  0.300E+00
      Make Quasi-Newton update
--
 
      The MO-coefficients are taken from the file:
      /home/pcaah4/diamide_project/cas/ras12i11/ras_orb/orca_geometry_optimisation_225_120_BP86_def2-SVP_def2J_scf_cas1_ras12i11.RasOrb                                                                                                                               
      Title: RASSCF average (pseudo-natural) orbitals                                      
 
      Total molecular charge    0.00
 
      Molecular orbitals exchanged:
        In symmetry  1 :  36  37
        In symmetry  1 :  37  38
 
 
      ************************************************************************************************************************
      *                                                                                                                      *
      *                                            Wave function control section                                             *
      *                                                                                                                      *
      ************************************************************************************************************************
 
 
                                         RASSCF iterations: Energy and convergence statistics
                                         ----------------------------------------------------
 
      Iter CI   SX   CI       RASSCF       Energy    max ROT     max BLB   max BLB  Level Ln srch  Step   QN   Walltime
          iter iter root      energy       change     param      element    value   shift minimum  type update hh:mm:ss
 Nr of preliminary CI iterations:   4
        1   1   25    0  -453.69471789    0.00E+00   0.51E-01   33  40 1 -0.27E-01*  0.14   0.00    SX    NO    0:00:13
        2   5   16    0  -453.70553854   -0.11E-01*  0.20E-01   31 140 1 -0.61E-02*  0.15   0.00    SX    NO    0:00:06
        3   3   15    0  -453.70679364   -0.13E-02*  0.12E-01   31  39 1  0.36E-02*  0.15   0.00    SX    NO    0:00:06
        4   6   13    0  -453.70736733   -0.57E-03*  0.70E-02   33  40 1  0.17E-02*  0.15   0.00    SX    NO    0:00:06
        5   5   12    0  -453.70750505   -0.14E-03*  0.89E-02   37  39 1  0.85E-03*  0.15   1.52    QN   YES    0:00:06
        6   6   11    0  -453.70758222   -0.77E-04* -0.96E-03   31  39 1  0.45E-03*  0.15   1.04    QN   YES    0:00:06
        7   3   10    0  -453.70758544   -0.32E-05* -0.82E-03   21  98 1 -0.35E-03*  0.15   0.96    QN   YES    0:00:06
        8   7    9    0  -453.70758703   -0.16E-05*  0.26E-03   31  39 1 -0.11E-03*  0.15   1.08    QN   YES    0:00:07
        9   5    8    0  -453.70758739   -0.35E-06*  0.28E-03   21  98 1 -0.77E-04   0.15   1.33    QN   YES    0:00:06
       10   4    8    0  -453.70758749   -0.11E-06* -0.99E-04   33  38 1  0.30E-04   0.15   0.82    QN   YES    0:00:06
       11   1    7    0  -453.70758751   -0.17E-07* -0.52E-04   21  98 1 -0.17E-04   0.15   1.19    QN   YES    0:00:06
       12   1    6    0  -453.70758752   -0.61E-08  -0.34E-04   21  98 1 -0.65E-05   0.15   1.44    QN   YES    0:00:06
      Convergence after 12 iterations
       13   1    6    0  -453.70758752   -0.15E-08  -0.34E-04   19  40 1 -0.17E-05   0.15   1.44    QN   YES    0:00:06
 
      ************************************************************************************************************************
                                                      Wave function printout:
                       occupation of active orbitals, and spin coupling of open shells (u,d: Spin up or down)
      ************************************************************************************************************************
 
      Note: transformation to natural orbitals
      has been made, which may change the order of the CSFs.
 
      printout of CI-coefficients larger than  0.05 for root  1
      energy=    -453.958808
      conf/sym  11111111     Coeff  Weight
             1  22222200   0.96155 0.92459
             6  22220220  -0.08583 0.00737
             7  22222u0d   0.14468 0.02093
            15  22222002  -0.07797 0.00608
            64  2u22220d  -0.07742 0.00599
            73  2u222d02   0.06314 0.00399
            81  u22222d0  -0.09689 0.00939
           175  20222202  -0.09754 0.00951
           191  02222220  -0.07738 0.00599
 
      printout of CI-coefficients larger than  0.05 for root  2
      energy=    -453.746733
      conf/sym  11111111     Coeff  Weight
            21  222u22d0  -0.12282 0.01508
            24  222u220d  -0.95465 0.91136
            32  222u022d   0.08329 0.00694
            33  222u2d02   0.09289 0.00863
           115  22ud2202  -0.05500 0.00302
           125  2u2d2202  -0.18250 0.03331
           213  u22u22dd  -0.07988 0.00638
           269  022u222d  -0.07776 0.00605
 
      printout of CI-coefficients larger than  0.05 for root  3
      energy=    -453.734640
      conf/sym  11111111     Coeff  Weight
             2  22222ud0  -0.25191 0.06346
             3  2222u2d0  -0.06618 0.00438
            21  222u22d0  -0.05631 0.00317
            41  22u222d0  -0.91222 0.83215
            43  22u2d220  -0.16726 0.02798
            45  22u22dud  -0.06712 0.00450
            47  22u22udd   0.11516 0.01326
            55  22u220d2  -0.07928 0.00629
           161  u2d22220  -0.12067 0.01456
           219  2uu222dd   0.06388 0.00408
           222  2uu22dd2  -0.05189 0.00269
           294  20u222d2   0.09222 0.00851
 
      printout of CI-coefficients larger than  0.05 for root  4
      energy=    -453.644490
      conf/sym  11111111     Coeff  Weight
             1  22222200  -0.07161 0.00513
             2  22222ud0   0.35086 0.12310
             3  2222u2d0  -0.79760 0.63617
             6  22220220   0.05515 0.00304
             7  22222u0d   0.33879 0.11478
            10  2222udud  -0.05129 0.00263
            12  2222uudd   0.08345 0.00696
            15  22222002   0.07426 0.00551
            18  2222u0d2  -0.06716 0.00451
            65  2u222dud   0.05971 0.00357
            67  2u222udd  -0.07271 0.00529
            68  2u22u2dd   0.05971 0.00357
            73  2u222d02   0.08848 0.00783
            81  u22222d0   0.08852 0.00784
            83  u222d220  -0.19127 0.03658
           177  2022u2d2   0.08010 0.00642
 
      printout of CI-coefficients larger than  0.05 for root  5
      energy=    -453.640101
      conf/sym  11111111     Coeff  Weight
             2  22222ud0  -0.75424 0.56888
             3  2222u2d0  -0.45266 0.20490
             7  22222u0d  -0.24979 0.06239
            12  2222uudd   0.05252 0.00276
            15  22222002  -0.05906 0.00349
            21  222u22d0   0.05651 0.00319
            41  22u222d0   0.23662 0.05599
            65  2u222dud  -0.12032 0.01448
            67  2u222udd   0.16063 0.02580
            73  2u222d02  -0.06733 0.00453
            83  u222d220  -0.13357 0.01784
           176  20222ud2   0.10298 0.01061
 
      printout of CI-coefficients larger than  0.05 for root  6
      energy=    -453.619416
      conf/sym  11111111     Coeff  Weight
             1  22222200  -0.10651 0.01134
             2  22222ud0  -0.35708 0.12751
             3  2222u2d0   0.20412 0.04167
             7  22222u0d   0.76198 0.58061
            14  22220u2d   0.07160 0.00513
            15  22222002   0.14768 0.02181
            21  222u22d0   0.30825 0.09502
            25  222u2dud  -0.07707 0.00594
            27  222u2udd   0.10924 0.01193
            65  2u222dud  -0.06128 0.00376
            67  2u222udd   0.10056 0.01011
            73  2u222d02   0.20109 0.04044
            83  u222d220   0.05357 0.00287
            87  u2222udd   0.07315 0.00535
           175  20222202  -0.07946 0.00631
           176  20222ud2   0.06030 0.00364
           193  02222u2d   0.05698 0.00325
 
      printout of CI-coefficients larger than  0.05 for root  7
      energy=    -453.608924
      conf/sym  11111111     Coeff  Weight
             2  22222ud0  -0.15367 0.02362
             7  22222u0d   0.27399 0.07507
            15  22222002   0.05604 0.00314
            21  222u22d0  -0.83113 0.69078
            24  222u220d   0.10868 0.01181
            25  222u2dud   0.21475 0.04612
            27  222u2udd  -0.30046 0.09027
            41  22u222d0   0.08775 0.00770
            73  2u222d02   0.07169 0.00514
           112  22ud22ud   0.06584 0.00433
           201  22uu22dd   0.06879 0.00473
           210  2u2u2dd2   0.07509 0.00564
           262  202u22d2   0.07778 0.00605
 
      Natural orbitals and occupation numbers for root  1
      sym 1:   1.971589   1.995728   1.999869   1.999824   1.993845   1.954962   0.034683   0.049500
 
      Natural orbitals and occupation numbers for root  2
      sym 1:   1.971557   1.999778   1.998968   1.002697   1.994415   1.999551   0.035168   0.997866
 
      Natural orbitals and occupation numbers for root  3
      sym 1:   1.999807   1.993934   1.005074   1.998442   1.998715   1.953855   0.998328   0.051846
 
      Natural orbitals and occupation numbers for root  4
      sym 1:   1.968209   1.953091   1.999202   1.999641   1.148258   1.851572   0.899701   0.180326
 
      Natural orbitals and occupation numbers for root  5
      sym 1:   1.986957   1.919692   1.997916   1.999261   1.948811   1.066684   0.969548   0.111130
 
      Natural orbitals and occupation numbers for root  6
      sym 1:   1.987936   1.950128   1.997466   1.893394   1.980451   1.118360   0.170335   0.901930
 
      Natural orbitals and occupation numbers for root  7
      sym 1:   1.998988   1.979180   1.990334   1.210898   1.995897   1.867276   0.799399   0.158027
 
      ************************************************************************************************************************
      *                                                                                                                      *
      *                                                    Final results                                                     *
      *                                                                                                                      *
      ************************************************************************************************************************
 
 
++    Wave function specifications:
      -----------------------------
 
      Number of closed shell electrons          58
      Number of electrons in active shells      12
      Max number of holes in RAS1 space          0
      Max nr of electrons in RAS3 space          0
      Number of inactive orbitals               29
      Number of active orbitals                  8
      Number of secondary orbitals             172
      Spin quantum number                      0.0
      State symmetry                             1
--
 
++    Orbital specifications:
      -----------------------
 
      Symmetry species                           1
                                                 a
      Frozen orbitals                            0
      Inactive orbitals                         29
      Active orbitals                            8
      RAS1 orbitals                              0
      RAS2 orbitals                              8
      RAS3 orbitals                              0
      Secondary orbitals                       172
      Deleted orbitals                           3
      Number of basis functions                212
--
 
++    CI expansion specifications:
      ----------------------------
 
      Number of CSFs                           336
      Number of determinants                   406
      Number of root(s) required                 7
      CI roots used                              1     2     3     4     5     6     7
      weights                                0.143 0.143 0.143 0.143 0.143 0.143 0.143
      highest root included in the CI            7
      Root passed to geometry opt.               7
--
 
++    Final optimization conditions:
      ------------------------------
 
      Average CI energy                            -453.70758752
      RASSCF energy for state  7                   -453.60892393
      Super-CI energy                                -0.00000000
      RASSCF energy change                            0.00000000
      Max change in MO coefficients               0.522E-04
      Max non-diagonal density matrix element    -0.337E-04
      Maximum BLB matrix element                 -0.172E-05
      (orbital pair  19,  40 in symmetry   1)
      Norm of electronic gradient            0.350E+00
--
 
 
      Final state energy(ies):
      ------------------------
 
::    RASSCF root number  1 Total energy:   -453.95880790
::    RASSCF root number  2 Total energy:   -453.74673333
::    RASSCF root number  3 Total energy:   -453.73464006
::    RASSCF root number  4 Total energy:   -453.64448993
::    RASSCF root number  5 Total energy:   -453.64010116
::    RASSCF root number  6 Total energy:   -453.61941632
::    RASSCF root number  7 Total energy:   -453.60892393
 
++    Molecular orbitals:
      -------------------
 
      Pseudonatural active orbitals and approximate occupation numbers
 
 
 
 
      Molecular orbitals for symmetry species 1: a  
 
 
      Orbital                 1         2         3         4         5         6         7         8         9        10
      Energy           -20.5991  -20.5187  -15.6354  -15.5807  -11.3414  -11.2878  -11.2860  -11.2606  -11.2584   -1.4238
      Occ. No.           2.0000    2.0000    2.0000    2.0000    2.0000    2.0000    2.0000    2.0000    2.0000    2.0000
 
     1 C1     1s         0.0003    0.0000   -0.0003   -0.0000    0.9999    0.0001   -0.0001   -0.0000   -0.0037   -0.0390
     2 C1     2s         0.0006    0.0001   -0.0012   -0.0003    0.0021   -0.0006   -0.0002   -0.0004   -0.0005    0.3547
     3 C1     3s        -0.0006    0.0000   -0.0005   -0.0002   -0.0002   -0.0006   -0.0002   -0.0003   -0.0008   -0.0045
     4 C1     4s        -0.0004   -0.0000   -0.0001   -0.0001    0.0012   -0.0003   -0.0000   -0.0001   -0.0003    0.0038
     5 C1     2px       -0.0012    0.0001   -0.0017   -0.0004    0.0013   -0.0000   -0.0004   -0.0002   -0.0004   -0.0434
     6 C1     3px       -0.0008   -0.0000   -0.0013   -0.0006    0.0013   -0.0004   -0.0006   -0.0003    0.0000    0.0306
     7 C1     4px        0.0001   -0.0000    0.0001   -0.0001    0.0004   -0.0003   -0.0001   -0.0001    0.0002   -0.0130
     8 C1     2py        0.0028   -0.0002   -0.0001   -0.0001    0.0010    0.0000   -0.0005   -0.0002   -0.0006    0.0960
     9 C1     3py        0.0019   -0.0002   -0.0001   -0.0001    0.0009   -0.0005   -0.0005   -0.0002    0.0001   -0.0672
    10 C1     4py       -0.0004   -0.0000   -0.0000   -0.0000    0.0007   -0.0004    0.0000   -0.0000    0.0003    0.0232
    11 C1     2pz       -0.0002   -0.0003   -0.0001   -0.0001   -0.0000    0.0000    0.0001    0.0000   -0.0000   -0.0050
    12 C1     3pz       -0.0001   -0.0004   -0.0001   -0.0001   -0.0000    0.0000    0.0001    0.0000   -0.0001    0.0030
    13 C1     4pz        0.0000   -0.0001   -0.0000   -0.0000   -0.0000    0.0000    0.0000    0.0000   -0.0000   -0.0019
    14 C1     3d2-       0.0002    0.0000   -0.0001    0.0000   -0.0004    0.0000   -0.0000   -0.0000    0.0001   -0.0333
    15 C1     3d1-       0.0000   -0.0000   -0.0000   -0.0000   -0.0000    0.0000    0.0000    0.0000    0.0000   -0.0036
    16 C1     3d0       -0.0000   -0.0000   -0.0001    0.0000   -0.0004   -0.0001    0.0000    0.0000    0.0001   -0.0279
    17 C1     3d1+      -0.0000   -0.0000    0.0000   -0.0000    0.0000    0.0000    0.0000   -0.0000   -0.0000    0.0023
    18 C1     3d2+       0.0001    0.0000    0.0002    0.0000   -0.0000    0.0000    0.0000    0.0000   -0.0000   -0.0094
    19 C3     1s         0.0001    0.0001   -0.0003    0.0001   -0.0001    0.9844   -0.1730    0.0000    0.0001   -0.0096
    20 C3     2s         0.0005    0.0007   -0.0015    0.0007    0.0005   -0.0016   -0.0004    0.0005    0.0008    0.0162
    21 C3     3s         0.0003    0.0004   -0.0007    0.0005    0.0002   -0.0028   -0.0003    0.0003    0.0005   -0.0192
    22 C3     4s         0.0001   -0.0000   -0.0001    0.0001   -0.0000    0.0006   -0.0003    0.0000    0.0001   -0.0021
    23 C3     2px        0.0000   -0.0004    0.0003    0.0003    0.0008   -0.0008    0.0000   -0.0000    0.0002   -0.0212
    24 C3     3px        0.0002   -0.0005   -0.0001    0.0002    0.0012   -0.0009   -0.0005   -0.0003    0.0003   -0.0100
    25 C3     4px        0.0002   -0.0001   -0.0002   -0.0001    0.0004   -0.0005   -0.0001   -0.0002    0.0001   -0.0057
    26 C3     2py       -0.0002    0.0007    0.0004   -0.0006    0.0004   -0.0000    0.0002    0.0001   -0.0001   -0.0195
    27 C3     3py       -0.0001    0.0007   -0.0001   -0.0005    0.0005    0.0002    0.0000    0.0001    0.0001   -0.0049
    28 C3     4py        0.0000    0.0000   -0.0002    0.0001    0.0001   -0.0008    0.0000    0.0000    0.0001   -0.0046
    29 C3     2pz        0.0001   -0.0008    0.0003    0.0005   -0.0004    0.0001   -0.0001   -0.0005   -0.0000    0.0037
    30 C3     3pz        0.0002   -0.0005    0.0005    0.0005   -0.0006   -0.0001    0.0003   -0.0004   -0.0000    0.0076
    31 C3     4pz        0.0000    0.0002    0.0001    0.0001   -0.0001   -0.0001    0.0001   -0.0000    0.0000    0.0019
    32 C3     3d2-       0.0000    0.0000   -0.0000   -0.0001    0.0000   -0.0001    0.0000    0.0000    0.0000    0.0035
    33 C3     3d1-      -0.0000   -0.0001    0.0000   -0.0000   -0.0000    0.0000    0.0001    0.0000   -0.0000    0.0000
    34 C3     3d0       -0.0000    0.0000   -0.0001   -0.0000   -0.0000    0.0000   -0.0000    0.0000   -0.0000   -0.0024
    35 C3     3d1+       0.0000   -0.0001   -0.0000   -0.0000    0.0000    0.0001    0.0000   -0.0001    0.0000   -0.0008
    36 C3     3d2+      -0.0000   -0.0000   -0.0001    0.0000    0.0000    0.0001    0.0000    0.0000   -0.0000   -0.0005
    37 C4     1s         0.0000    0.0003    0.0000    0.0002   -0.0002    0.1730    0.9850    0.0003   -0.0001    0.0002
    38 C4     2s         0.0002    0.0009    0.0003    0.0010   -0.0014    0.0012    0.0026   -0.0005   -0.0005    0.0315
    39 C4     3s         0.0002   -0.0004    0.0002    0.0004   -0.0011    0.0003    0.0002   -0.0004   -0.0004    0.0100
    40 C4     4s         0.0000   -0.0003    0.0001    0.0001   -0.0004    0.0003    0.0014   -0.0002   -0.0001    0.0035
    41 C4     2px       -0.0001    0.0022   -0.0000    0.0001    0.0002   -0.0008    0.0001    0.0001    0.0002   -0.0032
    42 C4     3px       -0.0001    0.0013    0.0000   -0.0000    0.0003   -0.0002   -0.0000   -0.0003    0.0003   -0.0049
    43 C4     4px        0.0001   -0.0004   -0.0000   -0.0000    0.0001    0.0003    0.0002   -0.0003    0.0001   -0.0019
    44 C4     2py       -0.0000   -0.0025    0.0000    0.0009   -0.0001    0.0003    0.0004   -0.0003   -0.0001   -0.0025
    45 C4     3py       -0.0001   -0.0018   -0.0000    0.0006   -0.0002    0.0004    0.0002   -0.0004   -0.0001    0.0038
    46 C4     4py       -0.0001    0.0002   -0.0000   -0.0001   -0.0001    0.0001   -0.0001   -0.0001   -0.0000    0.0009
    47 C4     2pz       -0.0003    0.0004   -0.0003   -0.0013   -0.0001    0.0009   -0.0007    0.0003   -0.0002    0.0051
    48 C4     3pz       -0.0005    0.0004   -0.0004   -0.0010   -0.0002    0.0007   -0.0004    0.0009   -0.0002    0.0051
    49 C4     4pz       -0.0001    0.0000   -0.0000    0.0001   -0.0000   -0.0001   -0.0003    0.0005   -0.0000    0.0020
    50 C4     3d2-       0.0000    0.0001   -0.0000    0.0001    0.0000   -0.0000   -0.0004   -0.0000    0.0000   -0.0016
    51 C4     3d1-      -0.0000   -0.0000   -0.0000    0.0002    0.0000    0.0000   -0.0003   -0.0001    0.0000   -0.0011
    52 C4     3d0        0.0000    0.0001    0.0000   -0.0000    0.0000   -0.0000   -0.0001    0.0000   -0.0000   -0.0005
    53 C4     3d1+      -0.0000   -0.0001    0.0000   -0.0001   -0.0000   -0.0000    0.0001   -0.0000    0.0000   -0.0000
    54 C4     3d2+       0.0000   -0.0000    0.0001    0.0001    0.0000    0.0000   -0.0001   -0.0000    0.0000    0.0001
    55 C6     1s         0.0000    0.0001    0.0001    0.0003   -0.0001   -0.0000   -0.0004    0.9997    0.0000    0.0007
    56 C6     2s        -0.0000    0.0005    0.0008    0.0014   -0.0006   -0.0000   -0.0003    0.0001    0.0001    0.0084
    57 C6     3s        -0.0001    0.0004    0.0006    0.0003   -0.0005   -0.0001   -0.0004   -0.0016    0.0000    0.0069
    58 C6     4s        -0.0000    0.0001    0.0002   -0.0001   -0.0002   -0.0001   -0.0002    0.0009   -0.0000    0.0025
    59 C6     2px        0.0001   -0.0001   -0.0001   -0.0004    0.0002   -0.0002    0.0002   -0.0001    0.0001   -0.0049
    60 C6     3px        0.0001   -0.0001   -0.0001    0.0001    0.0002   -0.0002    0.0002    0.0002    0.0000   -0.0042
    61 C6     4px       -0.0000   -0.0000    0.0000    0.0002    0.0000    0.0000   -0.0000   -0.0005   -0.0000   -0.0001
    62 C6     2py        0.0001   -0.0001    0.0002    0.0001   -0.0001   -0.0001    0.0002    0.0001    0.0000    0.0010
    63 C6     3py        0.0001   -0.0000    0.0002    0.0002   -0.0001   -0.0001    0.0003   -0.0001    0.0000    0.0005
    64 C6     4py        0.0000    0.0000   -0.0000    0.0000    0.0000   -0.0000    0.0001   -0.0000    0.0000   -0.0004
    65 C6     2pz       -0.0000    0.0003    0.0002    0.0003   -0.0002   -0.0001   -0.0004   -0.0001    0.0000    0.0039
    66 C6     3pz       -0.0000    0.0003    0.0002   -0.0002   -0.0002   -0.0002   -0.0005   -0.0002   -0.0000    0.0040
    67 C6     4pz       -0.0000   -0.0000    0.0000   -0.0002   -0.0000   -0.0001   -0.0001    0.0005   -0.0000    0.0010
    68 C6     3d2-       0.0000   -0.0000    0.0000    0.0001   -0.0000   -0.0000    0.0000    0.0000   -0.0000    0.0002
    69 C6     3d1-      -0.0000   -0.0000    0.0000    0.0000   -0.0000   -0.0000   -0.0001   -0.0000   -0.0000    0.0001
    70 C6     3d0       -0.0000    0.0000    0.0000    0.0000    0.0000    0.0000    0.0000    0.0000   -0.0000    0.0002
    71 C6     3d1+       0.0000   -0.0000   -0.0000    0.0001    0.0000   -0.0000   -0.0000    0.0001   -0.0000   -0.0003
    72 C6     3d2+      -0.0000    0.0000    0.0000   -0.0000   -0.0000    0.0000   -0.0000   -0.0001   -0.0000    0.0002
    73 C19    1s         0.0002   -0.0000    0.0000   -0.0000    0.0037    0.0002   -0.0000   -0.0000    1.0000   -0.0147
    74 C19    2s         0.0011   -0.0002    0.0001   -0.0001    0.0006    0.0009   -0.0001   -0.0002    0.0019   -0.0133
    75 C19    3s         0.0007   -0.0002   -0.0000   -0.0001    0.0002    0.0004   -0.0001   -0.0002   -0.0005   -0.0397
    76 C19    4s         0.0001   -0.0000    0.0000   -0.0001    0.0001   -0.0000   -0.0000   -0.0001    0.0012   -0.0037
    77 C19    2px        0.0008   -0.0000    0.0003   -0.0000   -0.0002    0.0002    0.0001   -0.0000   -0.0002   -0.0105
    78 C19    3px        0.0005   -0.0000    0.0003    0.0000   -0.0003    0.0002    0.0001   -0.0000   -0.0001   -0.0079
    79 C19    4px       -0.0002    0.0000   -0.0000    0.0000   -0.0000   -0.0000    0.0000    0.0000    0.0002    0.0076
    80 C19    2py       -0.0001   -0.0001   -0.0003   -0.0001    0.0004    0.0002   -0.0001   -0.0001   -0.0003    0.0215
    81 C19    3py       -0.0002   -0.0000   -0.0003   -0.0002   -0.0001    0.0001   -0.0001   -0.0001   -0.0000   -0.0056
    82 C19    4py       -0.0001    0.0000    0.0001   -0.0000   -0.0001   -0.0001    0.0000   -0.0000    0.0004    0.0058
    83 C19    2pz       -0.0000   -0.0001    0.0000   -0.0000   -0.0000    0.0001   -0.0000   -0.0001    0.0000   -0.0008
    84 C19    3pz       -0.0000   -0.0000    0.0000   -0.0000    0.0000    0.0001   -0.0000   -0.0000    0.0000    0.0008
    85 C19    4pz        0.0000    0.0000   -0.0000    0.0000    0.0000    0.0000   -0.0000    0.0000   -0.0000   -0.0002
    86 C19    3d2-       0.0001   -0.0000    0.0000   -0.0000    0.0000    0.0001   -0.0000   -0.0000   -0.0001    0.0004
    87 C19    3d1-       0.0000    0.0000    0.0000   -0.0000    0.0000   -0.0000    0.0000    0.0000    0.0000   -0.0003
    88 C19    3d0       -0.0001   -0.0000    0.0001    0.0000    0.0001   -0.0000   -0.0000    0.0000    0.0001    0.0015
    89 C19    3d1+       0.0000    0.0000   -0.0000    0.0000   -0.0000   -0.0000   -0.0000    0.0000    0.0000   -0.0000
    90 C19    3d2+       0.0001   -0.0000    0.0000    0.0000   -0.0001   -0.0000    0.0000    0.0000    0.0001   -0.0070
    91 N2     1s         0.0001   -0.0000   -0.9999   -0.0000   -0.0002    0.0001    0.0001    0.0000    0.0001   -0.0180
    92 N2     2s         0.0004   -0.0002   -0.0002   -0.0001   -0.0001    0.0015    0.0004    0.0001    0.0006    0.1156
    93 N2     3s         0.0003   -0.0001    0.0013   -0.0001   -0.0002    0.0008    0.0004    0.0001    0.0005   -0.0480
    94 N2     4s         0.0001    0.0000   -0.0005   -0.0000    0.0001    0.0003    0.0001    0.0000    0.0001   -0.0114
    95 N2     2px        0.0002   -0.0001   -0.0006   -0.0004   -0.0002    0.0009    0.0001   -0.0002   -0.0004   -0.0304
    96 N2     3px        0.0002   -0.0003   -0.0007   -0.0005   -0.0000    0.0008    0.0002   -0.0003   -0.0004    0.0164
    97 N2     4px        0.0000   -0.0001    0.0002   -0.0000   -0.0002    0.0000   -0.0000   -0.0001    0.0001   -0.0056
    98 N2     2py       -0.0015    0.0001    0.0008   -0.0002    0.0003    0.0009    0.0002   -0.0000   -0.0003    0.0377
    99 N2     3py       -0.0019    0.0001    0.0001   -0.0004    0.0002    0.0010    0.0003   -0.0001   -0.0003    0.0159
   100 N2     4py       -0.0000    0.0000   -0.0004   -0.0001   -0.0000    0.0002   -0.0001   -0.0000    0.0001   -0.0058
   101 N2     2pz        0.0001    0.0003   -0.0001   -0.0000    0.0000   -0.0001    0.0001    0.0001    0.0000   -0.0018
   102 N2     3pz        0.0001    0.0005    0.0000    0.0000    0.0001   -0.0001    0.0000    0.0001    0.0000   -0.0023
   103 N2     4pz        0.0000    0.0001    0.0000    0.0000    0.0000   -0.0000    0.0001    0.0000    0.0000   -0.0004
   104 N2     3d2-       0.0001   -0.0000    0.0002   -0.0000   -0.0001   -0.0000    0.0000   -0.0000   -0.0000   -0.0027
   105 N2     3d1-      -0.0000    0.0000    0.0000   -0.0000    0.0000    0.0000   -0.0000    0.0000   -0.0000   -0.0001
   106 N2     3d0       -0.0000    0.0000    0.0000    0.0000    0.0002    0.0001   -0.0000   -0.0000   -0.0001   -0.0027
   107 N2     3d1+      -0.0000    0.0000   -0.0000   -0.0000   -0.0000   -0.0000   -0.0000    0.0000   -0.0000    0.0003
   108 N2     3d2+      -0.0001   -0.0000    0.0000   -0.0000    0.0001   -0.0000    0.0000   -0.0000    0.0000    0.0048
   109 N5     1s         0.0000    0.0001   -0.0001    0.9999    0.0001   -0.0000   -0.0003    0.0001    0.0000   -0.0017
   110 N5     2s         0.0000    0.0009   -0.0003    0.0006    0.0006    0.0002   -0.0003    0.0017    0.0002   -0.0009
   111 N5     3s         0.0000    0.0006   -0.0002   -0.0010    0.0004    0.0001   -0.0003    0.0010    0.0001   -0.0058
   112 N5     4s         0.0000    0.0001   -0.0000    0.0006    0.0001    0.0000    0.0000    0.0004    0.0000   -0.0013
   113 N5     2px       -0.0001   -0.0012   -0.0005   -0.0008    0.0003    0.0002    0.0003    0.0006   -0.0001   -0.0035
   114 N5     3px       -0.0001   -0.0014   -0.0007   -0.0005    0.0005    0.0003    0.0003    0.0007   -0.0001   -0.0057
   115 N5     4px        0.0000   -0.0000   -0.0001    0.0003    0.0001    0.0001   -0.0001    0.0002   -0.0000   -0.0014
   116 N5     2py        0.0001    0.0007    0.0000    0.0006    0.0001   -0.0002   -0.0002    0.0001    0.0000   -0.0027
   117 N5     3py        0.0001    0.0008   -0.0001    0.0003    0.0002   -0.0001   -0.0001   -0.0001    0.0000   -0.0015
   118 N5     4py       -0.0000    0.0000   -0.0000   -0.0003    0.0001    0.0000   -0.0001   -0.0001    0.0000   -0.0006
   119 N5     2pz        0.0000    0.0005    0.0004    0.0001   -0.0003    0.0001   -0.0002   -0.0007    0.0000    0.0061
   120 N5     3pz        0.0001    0.0007    0.0006    0.0001   -0.0006    0.0000   -0.0002   -0.0005    0.0000    0.0093
   121 N5     4pz        0.0000   -0.0000    0.0001    0.0000   -0.0001   -0.0001    0.0002   -0.0000   -0.0000    0.0024
   122 N5     3d2-      -0.0000   -0.0000   -0.0000   -0.0001    0.0000   -0.0000    0.0001    0.0000   -0.0000    0.0001
   123 N5     3d1-      -0.0000    0.0000   -0.0000    0.0000    0.0000   -0.0000    0.0001    0.0001   -0.0000   -0.0002
   124 N5     3d0       -0.0000    0.0000   -0.0000   -0.0001   -0.0000    0.0000   -0.0000   -0.0000   -0.0000    0.0001
   125 N5     3d1+       0.0000   -0.0001    0.0000    0.0001    0.0000    0.0000    0.0001    0.0000    0.0000   -0.0001
   126 N5     3d2+      -0.0000    0.0000    0.0000   -0.0000    0.0000   -0.0000   -0.0001   -0.0000   -0.0000    0.0000
   127 O7     1s         0.9997    0.0000   -0.0000   -0.0000   -0.0002   -0.0000    0.0000    0.0000    0.0001   -0.0239
   128 O7     2s        -0.0012   -0.0000   -0.0002    0.0000    0.0004   -0.0001    0.0002    0.0000    0.0003    0.6908
   129 O7     3s        -0.0012   -0.0000   -0.0001    0.0000    0.0000   -0.0000    0.0001    0.0000    0.0003   -0.0344
   130 O7     4s         0.0002   -0.0000   -0.0000    0.0000    0.0000    0.0000    0.0000    0.0000    0.0001   -0.0141
   131 O7     2px        0.0002   -0.0000    0.0003    0.0001    0.0004   -0.0001    0.0001    0.0000    0.0001    0.0877
   132 O7     3px       -0.0002   -0.0001    0.0004    0.0002   -0.0001   -0.0001    0.0001    0.0000    0.0002   -0.0269
   133 O7     4px        0.0008   -0.0000    0.0001    0.0000    0.0001    0.0000    0.0000   -0.0000   -0.0000   -0.0017
   134 O7     2py       -0.0003   -0.0000    0.0002    0.0000   -0.0006   -0.0000    0.0000   -0.0000   -0.0001   -0.1185
   135 O7     3py        0.0005   -0.0000    0.0002    0.0001   -0.0004   -0.0001    0.0001   -0.0000   -0.0001    0.0369
   136 O7     4py       -0.0011   -0.0000   -0.0001    0.0000   -0.0003   -0.0000    0.0000   -0.0000    0.0000    0.0001
   137 O7     2pz        0.0000    0.0000   -0.0000   -0.0000    0.0001    0.0000   -0.0000   -0.0000    0.0000    0.0092
   138 O7     3pz       -0.0000    0.0001    0.0000   -0.0000    0.0000    0.0000   -0.0001   -0.0000    0.0000   -0.0023
   139 O7     4pz        0.0001    0.0000    0.0000   -0.0000    0.0000    0.0000   -0.0000   -0.0000   -0.0000    0.0001
   140 O7     3d2-       0.0001   -0.0000   -0.0000   -0.0000   -0.0002    0.0000   -0.0000   -0.0000   -0.0000   -0.0181
   141 O7     3d1-      -0.0000   -0.0000    0.0000   -0.0000   -0.0000    0.0000   -0.0000   -0.0000   -0.0000   -0.0017
   142 O7     3d0       -0.0000    0.0000    0.0001   -0.0000   -0.0001    0.0000    0.0000    0.0000   -0.0000   -0.0106
   143 O7     3d1+      -0.0000   -0.0000   -0.0000   -0.0000    0.0000    0.0000    0.0000   -0.0000    0.0000    0.0012
   144 O7     3d2+       0.0000   -0.0000    0.0001    0.0000   -0.0001   -0.0000    0.0000    0.0000   -0.0000   -0.0061
   145 O8     1s         0.0000    0.9997    0.0000    0.0000    0.0000    0.0000   -0.0002   -0.0000    0.0000   -0.0014
   146 O8     2s         0.0000   -0.0015    0.0002    0.0002    0.0002    0.0004    0.0007   -0.0003    0.0001    0.0172
   147 O8     3s        -0.0000   -0.0014    0.0002    0.0002    0.0002    0.0002    0.0001   -0.0002    0.0001   -0.0034
   148 O8     4s        -0.0000    0.0001    0.0001    0.0000    0.0001    0.0001    0.0001   -0.0000    0.0000   -0.0010
   149 O8     2px        0.0000   -0.0002   -0.0001   -0.0001   -0.0001   -0.0002   -0.0005    0.0000   -0.0001   -0.0031
   150 O8     3px        0.0001    0.0003   -0.0002   -0.0001   -0.0001   -0.0001   -0.0002   -0.0000   -0.0001    0.0027
   151 O8     4px        0.0000   -0.0010   -0.0000    0.0001   -0.0000    0.0000   -0.0002   -0.0000   -0.0000    0.0001
   152 O8     2py        0.0001    0.0002    0.0000   -0.0001    0.0001    0.0002    0.0006   -0.0001    0.0000    0.0010
   153 O8     3py        0.0001   -0.0004    0.0000   -0.0002    0.0001    0.0001    0.0002   -0.0000   -0.0000   -0.0025
   154 O8     4py        0.0000    0.0010    0.0000   -0.0001   -0.0000   -0.0000    0.0001    0.0000   -0.0000    0.0001
   155 O8     2pz        0.0000   -0.0001    0.0001    0.0003    0.0000   -0.0001   -0.0002    0.0000    0.0000   -0.0005
   156 O8     3pz        0.0001    0.0000    0.0002    0.0003   -0.0000   -0.0001    0.0001   -0.0000    0.0001    0.0002
   157 O8     4pz        0.0000   -0.0002    0.0000    0.0000   -0.0000   -0.0000    0.0001   -0.0000    0.0000   -0.0000
   158 O8     3d2-      -0.0000    0.0001    0.0000   -0.0000   -0.0000   -0.0001   -0.0002    0.0000   -0.0000   -0.0004
   159 O8     3d1-      -0.0000   -0.0000   -0.0000    0.0000    0.0000   -0.0000   -0.0000    0.0000   -0.0000   -0.0000
   160 O8     3d0       -0.0000    0.0001   -0.0000   -0.0000   -0.0000   -0.0000   -0.0001    0.0000   -0.0000   -0.0003
   161 O8     3d1+       0.0000   -0.0001   -0.0000   -0.0001   -0.0000   -0.0000    0.0001   -0.0000   -0.0000    0.0001
   162 O8     3d2+      -0.0000    0.0000    0.0000    0.0000    0.0000    0.0000   -0.0000    0.0000    0.0000    0.0001
   163 H9     1s         0.0002    0.0002   -0.0001   -0.0001    0.0000   -0.0003   -0.0001    0.0000    0.0003    0.0150
   164 H9     2s         0.0001    0.0001   -0.0000   -0.0000    0.0000   -0.0002   -0.0001    0.0000   -0.0003    0.0041
   165 H9     2px       -0.0000    0.0000   -0.0000   -0.0000    0.0000   -0.0000   -0.0000   -0.0000   -0.0000    0.0009
   166 H9     2py       -0.0001    0.0000    0.0000    0.0000    0.0001   -0.0000   -0.0000    0.0000    0.0000    0.0012
   167 H9     2pz       -0.0000   -0.0000   -0.0000    0.0000   -0.0000    0.0000    0.0000    0.0000    0.0001   -0.0007
   168 H10    1s         0.0001   -0.0002   -0.0002   -0.0002    0.0000   -0.0001   -0.0001   -0.0001    0.0003    0.0155
   169 H10    2s         0.0001   -0.0001   -0.0001   -0.0001    0.0000   -0.0001   -0.0001   -0.0001   -0.0003    0.0040
   170 H10    2px       -0.0000   -0.0000   -0.0000   -0.0000    0.0000   -0.0000   -0.0000   -0.0000   -0.0000    0.0010
   171 H10    2py       -0.0001   -0.0000    0.0000   -0.0000    0.0001   -0.0000   -0.0000   -0.0000    0.0000    0.0012
   172 H10    2pz        0.0000   -0.0000    0.0000   -0.0000    0.0000   -0.0000   -0.0000   -0.0000   -0.0001    0.0007
   173 H11    1s        -0.0004   -0.0000   -0.0004   -0.0002    0.0003   -0.0001   -0.0001   -0.0001    0.0003    0.0216
   174 H11    2s        -0.0002   -0.0000   -0.0004   -0.0001    0.0001   -0.0001   -0.0001   -0.0001   -0.0002    0.0067
   175 H11    2px       -0.0000    0.0000    0.0001    0.0000   -0.0000    0.0000    0.0000    0.0000    0.0001   -0.0003
   176 H11    2py       -0.0000   -0.0000   -0.0000   -0.0000    0.0001    0.0000    0.0000   -0.0000   -0.0000    0.0020
   177 H11    2pz       -0.0000    0.0000   -0.0000    0.0000    0.0000   -0.0000    0.0000    0.0000   -0.0000    0.0000
   178 H12    1s        -0.0011    0.0001    0.0010    0.0002    0.0001   -0.0001    0.0001   -0.0001   -0.0005    0.0374
   179 H12    2s        -0.0007    0.0000    0.0007    0.0001   -0.0000   -0.0000    0.0001   -0.0001   -0.0002   -0.0020
   180 H12    2px        0.0001   -0.0000   -0.0003    0.0000   -0.0001    0.0000   -0.0001    0.0000    0.0000   -0.0045
   181 H12    2py       -0.0000    0.0000    0.0005    0.0000    0.0000    0.0000   -0.0000   -0.0000   -0.0000    0.0043
   182 H12    2pz       -0.0000    0.0000   -0.0000   -0.0000    0.0000    0.0000    0.0000   -0.0000    0.0000   -0.0001
   183 H13    1s         0.0003   -0.0006    0.0004    0.0005   -0.0002    0.0007   -0.0003   -0.0001    0.0001    0.0139
   184 H13    2s         0.0003   -0.0004    0.0002    0.0003   -0.0001   -0.0000   -0.0002   -0.0001    0.0001   -0.0026
   185 H13    2px        0.0000   -0.0000   -0.0000    0.0000   -0.0000    0.0000    0.0000    0.0000   -0.0000   -0.0003
   186 H13    2py       -0.0000    0.0000    0.0000   -0.0000    0.0000   -0.0001   -0.0000   -0.0000   -0.0000   -0.0012
   187 H13    2pz        0.0000    0.0000   -0.0000    0.0000   -0.0000   -0.0000   -0.0000   -0.0000   -0.0000    0.0004
   188 H14    1s         0.0002    0.0004    0.0005   -0.0002   -0.0004    0.0010   -0.0002    0.0000   -0.0001    0.0093
   189 H14    2s         0.0001    0.0002    0.0002   -0.0001   -0.0003    0.0002    0.0000    0.0000   -0.0001    0.0011
   190 H14    2px       -0.0000   -0.0001   -0.0000   -0.0000    0.0000   -0.0000    0.0001   -0.0000   -0.0000   -0.0005
   191 H14    2py       -0.0000   -0.0000   -0.0000    0.0000    0.0000   -0.0001   -0.0000   -0.0000    0.0000   -0.0004
   192 H14    2pz       -0.0000   -0.0000   -0.0000   -0.0000    0.0000   -0.0000   -0.0001    0.0000    0.0000   -0.0009
   193 H15    1s        -0.0002   -0.0012   -0.0004   -0.0009    0.0001    0.0001    0.0003   -0.0001   -0.0001    0.0016
   194 H15    2s        -0.0001   -0.0007   -0.0002   -0.0006    0.0000    0.0001    0.0001   -0.0000   -0.0001   -0.0002
   195 H15    2px       -0.0000   -0.0001   -0.0000   -0.0004   -0.0000    0.0000    0.0000    0.0000   -0.0000    0.0006
   196 H15    2py        0.0000    0.0000    0.0000    0.0003    0.0000   -0.0000   -0.0001    0.0000    0.0000   -0.0003
   197 H15    2pz        0.0000   -0.0000   -0.0000   -0.0000    0.0000    0.0000    0.0001   -0.0000    0.0000   -0.0003
   198 H16    1s         0.0000    0.0004    0.0001   -0.0005   -0.0001   -0.0002   -0.0003    0.0005    0.0000    0.0024
   199 H16    2s         0.0000    0.0003    0.0001   -0.0002   -0.0001   -0.0002   -0.0002   -0.0001   -0.0000    0.0020
   200 H16    2px       -0.0000   -0.0000    0.0000    0.0000   -0.0000   -0.0000   -0.0000   -0.0000    0.0000    0.0001
   201 H16    2py       -0.0000   -0.0000   -0.0000    0.0000    0.0000    0.0000   -0.0000   -0.0000    0.0000   -0.0000
   202 H16    2pz       -0.0000    0.0000    0.0000   -0.0000   -0.0000   -0.0000   -0.0001    0.0000    0.0000    0.0001
   203 H17    1s        -0.0001    0.0003   -0.0002   -0.0005   -0.0000    0.0001   -0.0003    0.0005   -0.0001    0.0028
   204 H17    2s        -0.0000    0.0002   -0.0001   -0.0002   -0.0001    0.0001   -0.0003   -0.0001   -0.0000    0.0020
   205 H17    2px        0.0000   -0.0000    0.0000    0.0000    0.0000    0.0000    0.0000   -0.0000   -0.0000   -0.0001
   206 H17    2py        0.0000   -0.0000    0.0000    0.0000    0.0000   -0.0000    0.0001    0.0000    0.0000   -0.0003
   207 H17    2pz        0.0000    0.0000    0.0000   -0.0000   -0.0000    0.0000   -0.0000    0.0000   -0.0000    0.0000
   208 H18    1s        -0.0000    0.0000    0.0002   -0.0001   -0.0003    0.0001   -0.0000    0.0010   -0.0001    0.0056
   209 H18    2s        -0.0000    0.0001    0.0001   -0.0000   -0.0002    0.0001    0.0001    0.0001   -0.0000    0.0035
   210 H18    2px        0.0000   -0.0000   -0.0000   -0.0000    0.0000   -0.0000   -0.0000   -0.0001    0.0000   -0.0004
   211 H18    2py       -0.0000    0.0000    0.0000    0.0000   -0.0000    0.0000   -0.0000    0.0001   -0.0000    0.0005
   212 H18    2pz       -0.0000   -0.0000   -0.0000   -0.0000    0.0000    0.0000    0.0000   -0.0000    0.0000   -0.0002
 
 
      Orbital                11        12        13        14        15        16        17        18        19        20
      Energy            -1.3602   -1.2545   -1.2112   -1.0297   -0.9709   -0.9146   -0.8181   -0.7760   -0.7178   -0.6930
      Occ. No.           2.0000    2.0000    2.0000    2.0000    2.0000    2.0000    2.0000    2.0000    2.0000    2.0000
 
     1 C1     1s         0.0044   -0.0079    0.0034   -0.0163   -0.0016    0.0072   -0.0133    0.0013    0.0069    0.0032
     2 C1     2s         0.0157    0.1358    0.0034    0.2767   -0.0366   -0.0795    0.3836   -0.0663   -0.2551   -0.0709
     3 C1     3s         0.0205    0.0047    0.0161   -0.0164   -0.0070    0.0149   -0.0020   -0.0036    0.0080    0.0179
     4 C1     4s         0.0059    0.0020    0.0049   -0.0045   -0.0028    0.0055   -0.0023   -0.0004    0.0041    0.0032
     5 C1     2px        0.0332    0.1518    0.0095   -0.0037    0.1047   -0.0918    0.1307   -0.0096    0.1525    0.2617
     6 C1     3px        0.0212   -0.0392    0.0323   -0.0405   -0.0289    0.0341   -0.0295   -0.0106   -0.0706   -0.0580
     7 C1     4px        0.0085    0.0277    0.0039   -0.0076    0.0118   -0.0069    0.0084   -0.0025    0.0053    0.0177
     8 C1     2py        0.0101   -0.0337    0.0255   -0.1560    0.0569    0.0037    0.0544    0.0333    0.0595   -0.1488
     9 C1     3py        0.0269    0.0473    0.0257    0.0182   -0.0528    0.0390   -0.0101    0.0031   -0.0100    0.0630
    10 C1     4py        0.0011   -0.0056    0.0056   -0.0241    0.0061    0.0026    0.0068    0.0030   -0.0028   -0.0085
    11 C1     2pz        0.0035    0.0006   -0.0034    0.0123    0.0012   -0.0047    0.0027   -0.0024    0.0061    0.0059
    12 C1     3pz        0.0026   -0.0121   -0.0047    0.0030    0.0041   -0.0064    0.0052   -0.0042    0.0031   -0.0046
    13 C1     4pz        0.0000   -0.0012   -0.0019    0.0029    0.0008   -0.0018    0.0002   -0.0004    0.0019   -0.0005
    14 C1     3d2-       0.0028    0.0147   -0.0009    0.0084   -0.0093    0.0064    0.0135    0.0065    0.0173    0.0064
    15 C1     3d1-       0.0001    0.0010   -0.0000   -0.0008    0.0010   -0.0004   -0.0006    0.0003    0.0016    0.0013
    16 C1     3d0        0.0006   -0.0066    0.0005   -0.0116   -0.0006    0.0046   -0.0135    0.0020    0.0058    0.0023
    17 C1     3d1+       0.0001   -0.0003    0.0002    0.0001    0.0014   -0.0004   -0.0003    0.0003    0.0004   -0.0015
    18 C1     3d2+       0.0025    0.0275   -0.0023    0.0019    0.0156   -0.0126    0.0105   -0.0004    0.0152    0.0172
    19 C3     1s        -0.0166   -0.0287   -0.0045    0.0320    0.0268   -0.0190   -0.0082   -0.0052    0.0007   -0.0001
    20 C3     2s         0.0191    0.1793    0.0041   -0.2953   -0.2589    0.3233    0.1055    0.0625   -0.0381    0.0349
    21 C3     3s        -0.0449   -0.0465   -0.0152    0.0532    0.0439   -0.0083   -0.0162   -0.0096    0.0055   -0.0014
    22 C3     4s        -0.0065   -0.0103   -0.0016    0.0155    0.0107   -0.0040   -0.0047   -0.0036    0.0028   -0.0019
    23 C3     2px        0.0290   -0.0538    0.0240   -0.0178   -0.0551    0.0239   -0.0612   -0.1237   -0.2653    0.1018
    24 C3     3px        0.0096    0.0079    0.0222   -0.0199    0.0214    0.0360    0.0066    0.0209    0.0327   -0.0135
    25 C3     4px        0.0067   -0.0051    0.0073   -0.0039    0.0009    0.0032   -0.0030   -0.0079   -0.0041    0.0029
    26 C3     2py       -0.0263   -0.0918    0.0201    0.0065   -0.0333   -0.0259    0.1399   -0.0102   -0.0315    0.2110
    27 C3     3py        0.0002    0.0114    0.0021   -0.0340    0.0132   -0.0153   -0.0074    0.0034    0.0098   -0.0322
    28 C3     4py        0.0040   -0.0030    0.0023   -0.0114   -0.0071    0.0054    0.0083    0.0069   -0.0020    0.0085
    29 C3     2pz        0.0050    0.0091   -0.0206    0.0138    0.0349    0.0596   -0.0006    0.0874    0.0522   -0.0849
    30 C3     3pz        0.0213    0.0219    0.0037   -0.0158   -0.0247    0.0373    0.0074   -0.0182   -0.0093    0.0093
    31 C3     4pz       -0.0057    0.0105   -0.0004   -0.0093   -0.0067    0.0174    0.0018    0.0031   -0.0026   -0.0004
    32 C3     3d2-       0.0013    0.0184    0.0027   -0.0030    0.0064   -0.0016   -0.0049    0.0040    0.0155   -0.0209
    33 C3     3d1-       0.0055   -0.0014   -0.0021    0.0000   -0.0011    0.0013   -0.0013   -0.0032   -0.0070    0.0012
    34 C3     3d0       -0.0026   -0.0100    0.0044    0.0033   -0.0060   -0.0027    0.0017   -0.0081   -0.0148    0.0104
    35 C3     3d1+      -0.0025   -0.0034   -0.0022    0.0052    0.0091    0.0024    0.0042    0.0118    0.0113   -0.0039
    36 C3     3d2+       0.0020   -0.0091   -0.0000    0.0006   -0.0073   -0.0016    0.0175   -0.0062   -0.0072    0.0180
    37 C4     1s        -0.0404    0.0056   -0.0061    0.0093    0.0138    0.0080   -0.0017    0.0162    0.0025   -0.0021
    38 C4     2s         0.3583    0.0178    0.1190   -0.0919   -0.2279   -0.0658    0.0116   -0.4079   -0.0721    0.0666
    39 C4     3s        -0.0112    0.0157    0.0058    0.0234    0.0092    0.0159   -0.0058    0.0090    0.0032   -0.0003
    40 C4     4s         0.0008    0.0043    0.0017    0.0073    0.0035    0.0049   -0.0016    0.0052    0.0029   -0.0019
    41 C4     2px        0.0822   -0.0416   -0.0257    0.0541    0.1149    0.0088    0.0031    0.0047    0.1014   -0.0712
    42 C4     3px       -0.0325    0.0177    0.0572   -0.0437    0.0080    0.0617    0.0086   -0.0141   -0.0406    0.0275
    43 C4     4px        0.0229   -0.0076    0.0002    0.0036    0.0166    0.0083    0.0023   -0.0043    0.0015    0.0005
    44 C4     2py       -0.0572    0.0063    0.1291   -0.0198   -0.0642   -0.0566    0.0156   -0.0765    0.0328    0.0164
    45 C4     3py        0.0572   -0.0263   -0.0295    0.0147    0.0219    0.0266    0.0130    0.0109   -0.0186    0.0021
    46 C4     4py       -0.0154   -0.0008    0.0247   -0.0011   -0.0068   -0.0041    0.0080   -0.0042    0.0026    0.0011
    47 C4     2pz       -0.0212    0.0052   -0.1302   -0.0326   -0.0437    0.0478   -0.0055    0.0815   -0.1690    0.0762
    48 C4     3pz       -0.0231   -0.0145   -0.0270    0.0228   -0.0262   -0.1192   -0.0120   -0.0108    0.0681   -0.0405
    49 C4     4pz       -0.0045    0.0010   -0.0292   -0.0046   -0.0096   -0.0062   -0.0031    0.0074   -0.0069    0.0006
    50 C4     3d2-      -0.0365    0.0070    0.0134   -0.0004    0.0033    0.0028   -0.0052   -0.0029    0.0053   -0.0099
    51 C4     3d1-      -0.0141   -0.0006   -0.0189   -0.0002    0.0065    0.0162    0.0034    0.0123   -0.0093    0.0078
    52 C4     3d0       -0.0160    0.0049    0.0180   -0.0026   -0.0039   -0.0024   -0.0021   -0.0124    0.0042   -0.0054
    53 C4     3d1+       0.0024   -0.0043   -0.0026    0.0083    0.0080   -0.0111   -0.0010    0.0137    0.0042   -0.0003
    54 C4     3d2+      -0.0033    0.0032   -0.0078   -0.0047   -0.0007    0.0113    0.0025   -0.0004   -0.0033    0.0018
    55 C6     1s        -0.0090    0.0050   -0.0347   -0.0153   -0.0361   -0.0430   -0.0040    0.0081    0.0048   -0.0061
    56 C6     2s         0.0288    0.0290    0.1589    0.0646    0.2389    0.3846    0.0306   -0.1127   -0.0378    0.0395
    57 C6     3s        -0.0135    0.0260   -0.0606   -0.0314   -0.0687   -0.0685   -0.0111    0.0161    0.0124   -0.0179
    58 C6     4s        -0.0006    0.0072   -0.0102   -0.0059   -0.0148   -0.0142   -0.0032    0.0047    0.0031   -0.0047
    59 C6     2px       -0.0135   -0.0080   -0.0729   -0.0156   -0.0129    0.0197    0.0212   -0.1263   -0.0028    0.0584
    60 C6     3px        0.0021   -0.0082    0.0126    0.0033    0.0121   -0.0001   -0.0002    0.0066    0.0047   -0.0107
    61 C6     4px       -0.0027   -0.0005   -0.0020    0.0030    0.0082    0.0135    0.0025   -0.0099    0.0002    0.0024
    62 C6     2py       -0.0057    0.0073   -0.0006    0.0007    0.0035    0.0143   -0.0025    0.0933   -0.0814    0.0511
    63 C6     3py       -0.0014    0.0066    0.0016    0.0005    0.0046    0.0130    0.0019   -0.0012    0.0065   -0.0033
    64 C6     4py       -0.0006    0.0002    0.0019   -0.0002    0.0020    0.0012   -0.0009    0.0055   -0.0046    0.0026
    65 C6     2pz        0.0201    0.0094    0.0773    0.0117    0.0075   -0.0302   -0.0154    0.0231    0.0967   -0.1159
    66 C6     3pz       -0.0031    0.0120   -0.0167   -0.0074   -0.0199   -0.0065   -0.0011   -0.0013   -0.0129    0.0159
    67 C6     4pz        0.0025    0.0014   -0.0006   -0.0020   -0.0115   -0.0156   -0.0017    0.0046    0.0051   -0.0053
    68 C6     3d2-      -0.0001    0.0004   -0.0004   -0.0005   -0.0022   -0.0017    0.0004   -0.0026   -0.0013    0.0020
    69 C6     3d1-      -0.0006    0.0004    0.0012   -0.0002   -0.0003   -0.0000   -0.0008    0.0105   -0.0066    0.0032
    70 C6     3d0        0.0017   -0.0001    0.0064    0.0012    0.0008   -0.0019   -0.0010   -0.0024    0.0054   -0.0059
    71 C6     3d1+      -0.0044   -0.0002   -0.0206   -0.0042   -0.0056    0.0022    0.0026   -0.0113   -0.0082    0.0132
    72 C6     3d2+       0.0018    0.0001    0.0102    0.0022    0.0028   -0.0010   -0.0015    0.0100    0.0014   -0.0050
    73 C19    1s         0.0010   -0.0101    0.0023   -0.0567    0.0428   -0.0200    0.0130   -0.0039   -0.0094    0.0018
    74 C19    2s         0.0070   -0.0003    0.0082    0.3041   -0.2770    0.1510   -0.0727    0.0438    0.0954    0.0016
    75 C19    3s         0.0087   -0.0286    0.0138   -0.1110    0.0797   -0.0341    0.0351   -0.0070   -0.0178    0.0113
    76 C19    4s         0.0034   -0.0034    0.0046   -0.0234    0.0179   -0.0076    0.0096   -0.0023   -0.0054    0.0032
    77 C19    2px        0.0028    0.0232   -0.0017    0.0547    0.0023   -0.0263    0.0433   -0.0265   -0.0585    0.1339
    78 C19    3px       -0.0003   -0.0024   -0.0003    0.0047    0.0048   -0.0023   -0.0020    0.0055    0.0134   -0.0126
    79 C19    4px       -0.0012    0.0005   -0.0008   -0.0079    0.0122   -0.0081    0.0014   -0.0033   -0.0058    0.0029
    80 C19    2py        0.0063    0.0088    0.0072    0.0485   -0.0108   -0.0147    0.0627   -0.0433   -0.2138   -0.0592
    81 C19    3py        0.0077   -0.0024    0.0091   -0.0292    0.0174   -0.0014   -0.0119   -0.0005    0.0222    0.0128
    82 C19    4py        0.0003    0.0011    0.0002   -0.0126    0.0145   -0.0089    0.0128   -0.0030   -0.0087   -0.0017
    83 C19    2pz        0.0034   -0.0003    0.0010   -0.0040    0.0012    0.0027   -0.0034    0.0016    0.0134    0.0007
    84 C19    3pz        0.0030    0.0008    0.0014   -0.0010   -0.0010    0.0023   -0.0005   -0.0012   -0.0028   -0.0006
    85 C19    4pz       -0.0002    0.0005    0.0003    0.0003   -0.0010    0.0005   -0.0011    0.0006    0.0001    0.0002
    86 C19    3d2-       0.0006    0.0060   -0.0005    0.0107   -0.0019   -0.0025    0.0074   -0.0036   -0.0141   -0.0008
    87 C19    3d1-      -0.0001    0.0003   -0.0001   -0.0011    0.0006   -0.0000   -0.0005    0.0005    0.0017   -0.0002
    88 C19    3d0       -0.0002   -0.0008    0.0001   -0.0089    0.0036    0.0006   -0.0034    0.0028    0.0084   -0.0083
    89 C19    3d1+      -0.0004   -0.0001   -0.0000   -0.0006   -0.0000    0.0001   -0.0006    0.0003    0.0004   -0.0005
    90 C19    3d2+       0.0004    0.0022   -0.0002   -0.0075    0.0048   -0.0009   -0.0033    0.0026    0.0143    0.0050
    91 N2     1s        -0.0050   -0.0407    0.0029   -0.0048   -0.0046    0.0019    0.0045    0.0003    0.0027   -0.0008
    92 N2     2s         0.0582    0.5892   -0.0447   -0.0274    0.2081   -0.1063   -0.1500    0.0087    0.1250   -0.0528
    93 N2     3s        -0.0082   -0.0761    0.0063   -0.0144    0.0011   -0.0004    0.0088   -0.0001    0.0130   -0.0016
    94 N2     4s        -0.0022   -0.0247    0.0022   -0.0018   -0.0022    0.0013    0.0033   -0.0007    0.0005    0.0002
    95 N2     2px        0.0225   -0.0352    0.0136   -0.1479   -0.0498    0.1157   -0.3651    0.0129   -0.0973   -0.2769
    96 N2     3px        0.0183   -0.0168    0.0151    0.0220    0.0430   -0.0588    0.1156   -0.0169    0.0017    0.0617
    97 N2     4px        0.0048    0.0008    0.0023   -0.0061    0.0074   -0.0049   -0.0011   -0.0015   -0.0017    0.0065
    98 N2     2py        0.0021   -0.0077    0.0054   -0.1166   -0.0509    0.1103    0.2210    0.1282    0.2528   -0.2061
    99 N2     3py       -0.0084   -0.0495   -0.0014    0.0461    0.0559   -0.0545   -0.0372   -0.0390   -0.0560    0.0264
   100 N2     4py       -0.0007   -0.0139   -0.0001    0.0002    0.0052   -0.0053    0.0090   -0.0028   -0.0013    0.0048
   101 N2     2pz       -0.0103    0.0082   -0.0027    0.0100    0.0135   -0.0078   -0.0245    0.0214    0.0127   -0.0232
   102 N2     3pz       -0.0124    0.0077   -0.0010    0.0006   -0.0010   -0.0081   -0.0068    0.0067   -0.0017    0.0049
   103 N2     4pz       -0.0021    0.0016    0.0002    0.0004    0.0009   -0.0005   -0.0023    0.0020   -0.0011    0.0012
   104 N2     3d2-       0.0014    0.0072   -0.0000   -0.0021   -0.0085    0.0088    0.0072    0.0039    0.0065   -0.0029
   105 N2     3d1-      -0.0007   -0.0009   -0.0003    0.0006    0.0004    0.0005    0.0011    0.0018    0.0010   -0.0011
   106 N2     3d0       -0.0020   -0.0167    0.0014    0.0016   -0.0040    0.0015    0.0004   -0.0005   -0.0018   -0.0002
   107 N2     3d1+      -0.0006    0.0003   -0.0001   -0.0001    0.0004   -0.0003   -0.0003    0.0007    0.0003   -0.0006
   108 N2     3d2+       0.0010    0.0056   -0.0000    0.0100    0.0062   -0.0104    0.0191   -0.0052   -0.0027    0.0141
   109 N5     1s        -0.0201   -0.0018   -0.0427   -0.0019    0.0019    0.0024    0.0010   -0.0038    0.0034   -0.0026
   110 N5     2s         0.1311   -0.0094    0.5747    0.0414   -0.0094   -0.2235   -0.0476    0.1703    0.0793   -0.1049
   111 N5     3s        -0.0504   -0.0049   -0.0807   -0.0062    0.0001   -0.0160   -0.0011   -0.0003    0.0148   -0.0134
   112 N5     4s        -0.0119   -0.0003   -0.0266   -0.0029   -0.0012   -0.0019   -0.0003   -0.0020    0.0017   -0.0014
   113 N5     2px        0.0228   -0.0276   -0.0053    0.0461    0.0874    0.0871    0.0069   -0.1564    0.1476   -0.1340
   114 N5     3px        0.0025   -0.0320   -0.0339    0.0089   -0.0326   -0.0773   -0.0042    0.0392   -0.0253    0.0283
   115 N5     4px       -0.0056   -0.0048   -0.0092    0.0024    0.0010   -0.0048   -0.0006   -0.0071    0.0017   -0.0001
   116 N5     2py       -0.0329    0.0043   -0.0076    0.0091    0.0419    0.0345   -0.0288    0.3060   -0.1773    0.0813
   117 N5     3py        0.0079   -0.0024    0.0228   -0.0002    0.0050    0.0006   -0.0011   -0.0771    0.0287   -0.0151
   118 N5     4py       -0.0013   -0.0018    0.0080    0.0027    0.0036   -0.0010   -0.0003    0.0054   -0.0013    0.0015
   119 N5     2pz        0.0088    0.0248    0.0153   -0.0521   -0.1452   -0.1361    0.0070   -0.2009    0.0593    0.0276
   120 N5     3pz       -0.0193    0.0371    0.0058    0.0088    0.0299    0.0713   -0.0062    0.0533   -0.0065   -0.0127
   121 N5     4pz        0.0066    0.0066   -0.0009   -0.0014   -0.0049    0.0034   -0.0019    0.0003   -0.0006   -0.0010
   122 N5     3d2-      -0.0018    0.0006   -0.0043   -0.0016   -0.0012    0.0043    0.0011   -0.0106    0.0020   -0.0008
   123 N5     3d1-      -0.0055    0.0004   -0.0130    0.0010    0.0057    0.0085   -0.0007    0.0115   -0.0048    0.0007
   124 N5     3d0        0.0006    0.0006    0.0076   -0.0009   -0.0018    0.0013    0.0012   -0.0107    0.0030   -0.0012
   125 N5     3d1+       0.0015   -0.0012   -0.0111   -0.0014   -0.0051   -0.0080    0.0000   -0.0028    0.0006    0.0019
   126 N5     3d2+      -0.0027    0.0007    0.0006    0.0013    0.0049    0.0067   -0.0003    0.0075   -0.0026   -0.0003
   127 O7     1s         0.0008    0.0025   -0.0007   -0.0043    0.0023    0.0003   -0.0133    0.0008    0.0141    0.0217
   128 O7     2s        -0.0615   -0.3058    0.0153   -0.2079    0.0555    0.0270   -0.3482    0.0084    0.2352    0.3532
   129 O7     3s        -0.0010   -0.0098   -0.0022   -0.0203    0.0102    0.0000   -0.0423    0.0010    0.0395    0.0618
   130 O7     4s         0.0004   -0.0002   -0.0009   -0.0035    0.0025   -0.0005   -0.0081   -0.0003    0.0078    0.0130
   131 O7     2px       -0.0070   -0.0028   -0.0033   -0.0037    0.0277   -0.0292    0.1731    0.0005   -0.0997   -0.2296
   132 O7     3px       -0.0016   -0.0009   -0.0036   -0.0088    0.0022    0.0037   -0.0220    0.0004    0.0073    0.0189
   133 O7     4px       -0.0002    0.0002   -0.0005   -0.0012   -0.0005    0.0013   -0.0017    0.0004    0.0004    0.0012
   134 O7     2py        0.0089    0.0404   -0.0030   -0.0332    0.0240    0.0041   -0.1526    0.0165    0.2659    0.4080
   135 O7     3py       -0.0036   -0.0008   -0.0018    0.0123   -0.0002   -0.0002    0.0231   -0.0059   -0.0317   -0.0434
   136 O7     4py       -0.0009   -0.0016   -0.0002   -0.0008    0.0005    0.0012    0.0028   -0.0007   -0.0040   -0.0068
   137 O7     2pz       -0.0017    0.0007    0.0001    0.0030    0.0015   -0.0014    0.0103   -0.0006   -0.0162   -0.0269
   138 O7     3pz       -0.0013    0.0008    0.0010    0.0002    0.0010   -0.0001   -0.0031    0.0001    0.0009    0.0029
   139 O7     4pz       -0.0004    0.0002    0.0004    0.0005    0.0004   -0.0001   -0.0007   -0.0002    0.0001    0.0005
   140 O7     3d2-       0.0012    0.0037   -0.0002    0.0008   -0.0021    0.0023   -0.0118    0.0006    0.0100    0.0184
   141 O7     3d1-       0.0002    0.0006    0.0000   -0.0000    0.0001   -0.0001   -0.0005   -0.0000    0.0012    0.0022
   142 O7     3d0        0.0008    0.0043   -0.0004    0.0015    0.0001   -0.0002   -0.0049   -0.0000    0.0062    0.0119
   143 O7     3d1+      -0.0001   -0.0002    0.0000    0.0000    0.0003   -0.0002    0.0007   -0.0000   -0.0005   -0.0013
   144 O7     3d2+       0.0006    0.0048   -0.0004   -0.0024    0.0045   -0.0026    0.0013    0.0010    0.0110    0.0118
   145 O8     1s        -0.0233    0.0023    0.0041    0.0007    0.0026    0.0005   -0.0002    0.0123    0.0022   -0.0000
   146 O8     2s         0.6690   -0.1457   -0.3218    0.1058    0.1566    0.0101    0.0167    0.3512    0.0444    0.0140
   147 O8     3s        -0.0272   -0.0032   -0.0089    0.0059    0.0129    0.0013    0.0019    0.0457    0.0077    0.0002
   148 O8     4s        -0.0121   -0.0002    0.0000    0.0002    0.0014   -0.0000    0.0012    0.0095    0.0018    0.0000
   149 O8     2px       -0.0947    0.0088    0.0367    0.0157    0.0174   -0.0137    0.0077    0.1114    0.0668   -0.0141
   150 O8     3px        0.0288   -0.0035   -0.0042    0.0020   -0.0114   -0.0080   -0.0011   -0.0187   -0.0081    0.0006
   151 O8     4px        0.0009   -0.0004   -0.0021    0.0016   -0.0002   -0.0008   -0.0005   -0.0021   -0.0018    0.0004
   152 O8     2py        0.1034   -0.0221   -0.0244    0.0034   -0.0110   -0.0169    0.0048   -0.1467    0.0163   -0.0231
   153 O8     3py       -0.0325    0.0022    0.0005    0.0038    0.0065    0.0004    0.0006    0.0224    0.0018    0.0011
   154 O8     4py       -0.0010   -0.0001    0.0005    0.0004   -0.0004    0.0004    0.0015    0.0029    0.0004    0.0006
   155 O8     2pz       -0.0222    0.0121   -0.0116   -0.0183   -0.0107    0.0409   -0.0085    0.0564   -0.0915    0.0423
   156 O8     3pz        0.0082    0.0057    0.0060   -0.0035    0.0018    0.0106    0.0022   -0.0045    0.0091   -0.0028
   157 O8     4pz        0.0015    0.0020    0.0021   -0.0011   -0.0002    0.0010    0.0001   -0.0001    0.0026   -0.0010
[...]
AIVX     1  Mu1.0001  In1.027 Se1.047               0.18704962      0.00135922     -0.00284958     -0.00000387
AIVX     1  Mu1.0001  In1.028 Se1.047               0.06474202     -0.00027415      0.00072369     -0.00000020
AIVX     1  Mu1.0001  In1.029 Se1.047               0.02790351     -0.00008665      0.00038075     -0.00000003
AIVX     1  Mu1.0001  In1.018 Se1.048               0.27362794      0.00066559     -0.00080112     -0.00000053
AIVX     1  Mu1.0001  In1.021 Se1.048               0.21885626     -0.00048590      0.00078194     -0.00000038
AIVX     1  Mu1.0001  In1.022 Se1.048               0.11709523     -0.00000037     -0.00006262      0.00000000
AIVX     1  Mu1.0001  In1.023 Se1.048               0.29726475      0.00062574     -0.00002041     -0.00000001
AIVX     1  Mu1.0001  In1.024 Se1.048               0.13365616     -0.00016867      0.00044083     -0.00000007
AIVX     1  Mu1.0001  In1.025 Se1.048               0.25670865      0.00046437     -0.00078395     -0.00000036
AIVX     1  Mu1.0001  In1.026 Se1.048               0.23764202      0.00086780     -0.00197100     -0.00000171
AIVX     1  Mu1.0001  In1.027 Se1.048               0.20450524     -0.00029382      0.00053436     -0.00000016
AIVX     1  Mu1.0001  In1.028 Se1.048               0.08219764     -0.00034466      0.00081724     -0.00000028
AIVX     1  Mu1.0001  In1.029 Se1.048               0.04535912     -0.00046542      0.00099847     -0.00000046
AIVX     1  Mu1.0001  In1.018 Se1.049               0.29299175      0.00011788     -0.00016919     -0.00000002
AIVX     1  Mu1.0001  In1.021 Se1.049               0.23822007      0.00009600     -0.00005088     -0.00000000
AIVX     1  Mu1.0001  In1.022 Se1.049               0.13645904     -0.00010940     -0.00003361      0.00000000
AIVX     1  Mu1.0001  In1.024 Se1.049               0.15301998      0.00008319     -0.00021883     -0.00000002
AIVX     1  Mu1.0001  In1.025 Se1.049               0.27607246     -0.00025117      0.00049720     -0.00000012
AIVX     1  Mu1.0001  In1.026 Se1.049               0.25700584      0.00077213     -0.00137483     -0.00000106
AIVX     1  Mu1.0001  In1.027 Se1.049               0.22386905      0.00036817     -0.00077073     -0.00000028
AIVX     1  Mu1.0001  In1.028 Se1.049               0.10156145     -0.00003198      0.00017313     -0.00000001
AIVX     1  Mu1.0001  In1.029 Se1.049               0.06472293     -0.00018826      0.00065673     -0.00000012
AIVX     1  Mu1.0001  In1.021 Se1.050               0.25796613     -0.00097506      0.00213440     -0.00000208
AIVX     1  Mu1.0001  In1.022 Se1.050               0.15620510     -0.00021141      0.00001239     -0.00000000
AIVX     1  Mu1.0001  In1.024 Se1.050               0.17276603     -0.00000763     -0.00003699      0.00000000
AIVX     1  Mu1.0001  In1.025 Se1.050               0.29581851     -0.00055419      0.00069190     -0.00000038
AIVX     1  Mu1.0001  In1.026 Se1.050               0.27675189     -0.00217483      0.00358624     -0.00000780
AIVX     1  Mu1.0001  In1.027 Se1.050               0.24361510     -0.00064047      0.00130202     -0.00000083
AIVX     1  Mu1.0001  In1.028 Se1.050               0.12130750      0.00007367      0.00027815      0.00000002
AIVX     1  Mu1.0001  In1.029 Se1.050               0.08446899     -0.00008486      0.00056620     -0.00000005
AIVX     1  Mu1.0001  In1.021 Se1.051               0.26680344     -0.00084168      0.00200744     -0.00000169
AIVX     1  Mu1.0001  In1.022 Se1.051               0.16504241     -0.00008140     -0.00044927      0.00000004
AIVX     1  Mu1.0001  In1.024 Se1.051               0.18160335     -0.00003368      0.00021914     -0.00000001
AIVX     1  Mu1.0001  In1.026 Se1.051               0.28558921      0.00118947     -0.00200232     -0.00000238
AIVX     1  Mu1.0001  In1.027 Se1.051               0.25245242     -0.00273760      0.00446027     -0.00001221
AIVX     1  Mu1.0001  In1.028 Se1.051               0.13014482      0.00067148     -0.00079939     -0.00000054
AIVX     1  Mu1.0001  In1.029 Se1.051               0.09330630      0.00065791     -0.00159098     -0.00000105
AIVX     1  Mu1.0001  In1.021 Se1.052               0.28516846     -0.00033969      0.00029522     -0.00000010
AIVX     1  Mu1.0001  In1.022 Se1.052               0.18340743      0.00030215     -0.00028175     -0.00000009
AIVX     1  Mu1.0001  In1.024 Se1.052               0.19996837      0.00000186      0.00000898      0.00000000
AIVX     1  Mu1.0001  In1.027 Se1.052               0.27081744     -0.00118965      0.00205521     -0.00000244
AIVX     1  Mu1.0001  In1.028 Se1.052               0.14850984      0.00024630     -0.00093259     -0.00000023
AIVX     1  Mu1.0001  In1.029 Se1.052               0.11167132      0.00027958     -0.00070796     -0.00000020
AIVX     1  Mu1.0001  In1.022 Se1.053               0.22563147      0.00019630     -0.00026131     -0.00000005
AIVX     1  Mu1.0001  In1.024 Se1.053               0.24219240      0.00010128     -0.00024134     -0.00000002
AIVX     1  Mu1.0001  In1.028 Se1.053               0.19073388      0.00013045      0.00011063      0.00000001
AIVX     1  Mu1.0001  In1.029 Se1.053               0.15389536      0.00078907     -0.00189895     -0.00000150
AIVX     1  Mu1.0001  In1.022 Se1.054               0.24242724     -0.00010390      0.00026184     -0.00000003
AIVX     1  Mu1.0001  In1.024 Se1.054               0.25898817     -0.00015251      0.00044624     -0.00000007
AIVX     1  Mu1.0001  In1.028 Se1.054               0.20752965     -0.00001731      0.00018976     -0.00000000
AIVX     1  Mu1.0001  In1.029 Se1.054               0.17069113     -0.00022661      0.00055807     -0.00000013
AIVX     1  Mu1.0001  In1.022 Se1.055               0.20819557     -0.00003442      0.00041187     -0.00000001
AIVX     1  Mu1.0001  In1.024 Se1.055               0.22475650     -0.00002468     -0.00000792      0.00000000
AIVX     1  Mu1.0001  In1.027 Se1.055               0.29560558      0.00072720     -0.00115892     -0.00000084
AIVX     1  Mu1.0001  In1.028 Se1.055               0.17329798      0.00007800     -0.00043016     -0.00000003
AIVX     1  Mu1.0001  In1.029 Se1.055               0.13645946      0.00036681     -0.00098305     -0.00000036
AIVX     1  Mu1.0001  In1.022 Se1.056               0.24841754      0.00058764     -0.00096077     -0.00000056
AIVX     1  Mu1.0001  In1.024 Se1.056               0.26497847     -0.00040569      0.00104724     -0.00000042
AIVX     1  Mu1.0001  In1.028 Se1.056               0.21351995     -0.00061427      0.00109832     -0.00000067
AIVX     1  Mu1.0001  In1.029 Se1.056               0.17668143     -0.00042189      0.00078545     -0.00000033
AIVX     1  Mu1.0001  In1.022 Se1.057               0.28510481      0.00022073     -0.00024222     -0.00000005
AIVX     1  Mu1.0001  In1.028 Se1.057               0.25020722     -0.00111936      0.00184801     -0.00000207
AIVX     1  Mu1.0001  In1.029 Se1.057               0.21336870     -0.00015823     -0.00018207      0.00000003
AIVX     1  Mu1.0001  In1.022 Se1.058               0.25804396     -0.00013665      0.00021797     -0.00000003
AIVX     1  Mu1.0001  In1.024 Se1.058               0.27460489     -0.00008079      0.00023881     -0.00000002
AIVX     1  Mu1.0001  In1.028 Se1.058               0.22314637     -0.00019427      0.00036425     -0.00000007
AIVX     1  Mu1.0001  In1.029 Se1.058               0.18630785      0.00035606     -0.00094616     -0.00000034
AIVX     1  Mu1.0001  In1.022 Se1.059               0.28586725      0.00042218      0.00013015      0.00000005
AIVX     1  Mu1.0001  In1.028 Se1.059               0.25096966     -0.00083364      0.00119894     -0.00000100
AIVX     1  Mu1.0001  In1.029 Se1.059               0.21413114     -0.00033970      0.00053528     -0.00000018
AIVX     1  Mu1.0001  In1.029 Se1.060               0.27701888     -0.00050178      0.00135133     -0.00000068
AIVX     1  Mu1.0001  In1.029 Se1.061               0.26923691      0.00099460     -0.00189417     -0.00000188
AIVX     1  Mu1.0001  In1.028 Se1.062               0.26583760      0.00023264     -0.00036475     -0.00000008
AIVX     1  Mu1.0001  In1.029 Se1.062               0.22899908      0.00024190     -0.00027692     -0.00000007
AIVX     1  Mu1.0001  In1.028 Se1.064               0.28170208      0.00078262     -0.00105628     -0.00000083
AIVX     1  Mu1.0001  In1.029 Se1.064               0.24486357      0.00073114     -0.00126376     -0.00000092
--
 
   (Skipping property calculation,
    use PROP keyword to activate)
--
 
  Total CASPT2 energies:
::    CASPT2 Root  1     Total energy:   -455.38040006
::    CASPT2 Root  2     Total energy:   -455.16623612
::    CASPT2 Root  3     Total energy:   -455.17239290
::    CASPT2 Root  4     Total energy:   -455.13468333
::    CASPT2 Root  5     Total energy:   -455.11674957
::    CASPT2 Root  6     Total energy:   -455.12353373
::    CASPT2 Root  7     Total energy:   -455.07941657
 
++ Multi-State CASPT2 section:
********************************************************************************
  MULTI-STATE CASPT2 SECTION
--------------------------------------------------------------------------------
 
  Output diagonal energies have been shifted. Add   -455.000000000000     
 
  Effective Hamiltonian matrix (Symmetric):
 
                1               2               3               4               5
   1        -0.38040006
   2         0.00018396     -0.16623612
   3        -0.00063997     -0.00063060     -0.17239290
   4         0.01654139      0.00005246      0.00086217     -0.13468333
   5        -0.00364974      0.00090990     -0.00200716     -0.00697683     -0.11674957
   6         0.01812927     -0.00176184     -0.00162157     -0.00541147      0.01196235
   7         0.01261847     -0.00075375     -0.00118858     -0.00451113      0.00608430
 
                6               7
   6        -0.12353373
   7        -0.01473978     -0.07941657
 
       Total MS-CASPT2 energies:
::    MS-CASPT2 Root  1     Total energy:   -455.38353167
::    MS-CASPT2 Root  2     Total energy:   -455.17259485
::    MS-CASPT2 Root  3     Total energy:   -455.16630078
::    MS-CASPT2 Root  4     Total energy:   -455.13632474
::    MS-CASPT2 Root  5     Total energy:   -455.13506681
::    MS-CASPT2 Root  6     Total energy:   -455.10511188
::    MS-CASPT2 Root  7     Total energy:   -455.07448156
 
       Eigenvectors:
            0.99372065     -0.00019331      0.00706905      0.07836074      0.07588209
           -0.00164577      0.10697723      0.99206333     -0.00337691     -0.06575229
            0.00261050      0.99316568     -0.10805500     -0.00143315     -0.01104823
           -0.06805570     -0.01137009      0.00060656      0.95257074     -0.03322670
            0.01621366      0.02317865     -0.03612664      0.22234237     -0.57972822
           -0.07406428      0.03494842      0.04985828      0.17514127      0.76942684
           -0.04614937      0.01702481      0.01712133      0.07965249      0.24615036
 
            0.01181507      0.02076445
           -0.00490740     -0.00215833
           -0.04153598     -0.00948046
           -0.28993370     -0.05178988
            0.77915552      0.07273564
            0.54936368     -0.25751633
            0.07187320      0.96186640
 
--
 
  THE ORIGINAL CI ARRAYS ARE NOW MIXED AS LINEAR
  COMBINATIONS, GIVEN BY THE EIGENVECTORS.
  A NEW JOBIPH FILE NAMED 'JOBMIX' IS PREPARED.
********************************************************************************
 
++ Mixed CI coefficients:
  The CI coefficients for the MIXED state nr.   1
--------------------------------------------------------------------------------
 CI COEFFICIENTS LARGER THAN  0.50D-01
  Occupation of active orbitals, and spin coupling
  of open shells. (u,d: Spin up or down).
  SGUGA info is (Midvert:IsyUp:UpperWalk/LowerWalk)
        Conf  SGUGA info        Occupation    Coefficient         Weight
           1  ( 1:1:   1/   1)   22222200        0.970588       0.942041
           6  ( 1:1:   6/   1)   22220220       -0.091151       0.008309
          15  ( 1:1:  15/   1)   22222002       -0.097037       0.009416
          64  ( 2:1:   4/   3)   2u22220d       -0.077716       0.006040
          81  ( 2:1:   1/   4)   u22222d0       -0.107192       0.011490
         175  ( 3:1:   5/   8)   20222202       -0.086620       0.007503
         191  ( 3:1:   1/  10)   02222220       -0.076140       0.005797
 
  The CI coefficients for the MIXED state nr.   2
--------------------------------------------------------------------------------
 CI COEFFICIENTS LARGER THAN  0.50D-01
  Occupation of active orbitals, and spin coupling
  of open shells. (u,d: Spin up or down).
  SGUGA info is (Midvert:IsyUp:UpperWalk/LowerWalk)
        Conf  SGUGA info        Occupation    Coefficient         Weight
           2  ( 1:1:   2/   1)   22222ud0       -0.287083       0.082417
           3  ( 1:1:   3/   1)   2222u2d0       -0.059679       0.003562
          21  ( 2:1:   1/   1)   222u22d0       -0.071399       0.005098
          24  ( 2:1:   4/   1)   222u220d       -0.068571       0.004702
          41  ( 2:1:   1/   2)   22u222d0       -0.899650       0.809370
          43  ( 2:1:   3/   2)   22u2d220       -0.165354       0.027342
          45  ( 2:1:   5/   2)   22u22dud       -0.065458       0.004285
          47  ( 2:1:   7/   2)   22u22udd        0.115485       0.013337
          55  ( 2:1:  15/   2)   22u220d2       -0.078569       0.006173
         161  ( 3:1:   1/   7)   u2d22220       -0.119369       0.014249
         219  ( 4:1:   1/   4)   2uu222dd        0.062917       0.003959
         222  ( 4:1:   4/   4)   2uu22dd2       -0.051175       0.002619
         294  ( 5:1:   2/  15)   20u222d2        0.090777       0.008241
 
  The CI coefficients for the MIXED state nr.   3
--------------------------------------------------------------------------------
 CI COEFFICIENTS LARGER THAN  0.50D-01
  Occupation of active orbitals, and spin coupling
  of open shells. (u,d: Spin up or down).
  SGUGA info is (Midvert:IsyUp:UpperWalk/LowerWalk)
        Conf  SGUGA info        Occupation    Coefficient         Weight
           7  ( 1:1:   7/   1)   22222u0d        0.059371       0.003525
          21  ( 2:1:   1/   1)   222u22d0       -0.116640       0.013605
          24  ( 2:1:   4/   1)   222u220d       -0.950231       0.902939
          32  ( 2:1:  12/   1)   222u022d        0.082921       0.006876
          33  ( 2:1:  13/   1)   222u2d02        0.092098       0.008482
          41  ( 2:1:   1/   2)   22u222d0        0.068328       0.004669
         115  ( 3:1:   5/   2)   22ud2202       -0.054660       0.002988
         125  ( 3:1:   5/   3)   2u2d2202       -0.181414       0.032911
         213  ( 4:1:   1/   3)   u22u22dd       -0.079494       0.006319
         269  ( 5:1:   1/   9)   022u222d       -0.077382       0.005988
 
  The CI coefficients for the MIXED state nr.   4
--------------------------------------------------------------------------------
 CI COEFFICIENTS LARGER THAN  0.50D-01
  Occupation of active orbitals, and spin coupling
  of open shells. (u,d: Spin up or down).
  SGUGA info is (Midvert:IsyUp:UpperWalk/LowerWalk)
        Conf  SGUGA info        Occupation    Coefficient         Weight
           2  ( 1:1:   2/   1)   22222ud0        0.093048       0.008658
           3  ( 1:1:   3/   1)   2222u2d0       -0.823334       0.677879
           7  ( 1:1:   7/   1)   22222u0d        0.433800       0.188182
          12  ( 1:1:  12/   1)   2222uudd        0.089351       0.007984
          15  ( 1:1:  15/   1)   22222002        0.081817       0.006694
          18  ( 1:1:  18/   1)   2222u0d2       -0.069811       0.004874
          68  ( 2:1:   8/   3)   2u22u2dd        0.061951       0.003838
          73  ( 2:1:  13/   3)   2u222d02        0.115183       0.013267
          81  ( 2:1:   1/   4)   u22222d0        0.088866       0.007897
          83  ( 2:1:   3/   4)   u222d220       -0.204757       0.041926
         175  ( 3:1:   5/   8)   20222202       -0.051740       0.002677
         177  ( 3:1:   7/   8)   2022u2d2        0.082461       0.006800
 
  The CI coefficients for the MIXED state nr.   5
--------------------------------------------------------------------------------
 CI COEFFICIENTS LARGER THAN  0.50D-01
  Occupation of active orbitals, and spin coupling
  of open shells. (u,d: Spin up or down).
  SGUGA info is (Midvert:IsyUp:UpperWalk/LowerWalk)
        Conf  SGUGA info        Occupation    Coefficient         Weight
           2  ( 1:1:   2/   1)   22222ud0        0.116915       0.013669
           3  ( 1:1:   3/   1)   2222u2d0        0.452917       0.205134
           7  ( 1:1:   7/   1)   22222u0d        0.798076       0.636926
          14  ( 1:1:  14/   1)   22220u2d        0.075639       0.005721
          15  ( 1:1:  15/   1)   22222002        0.153127       0.023448
          24  ( 2:1:   4/   1)   222u220d        0.067820       0.004600
          41  ( 2:1:   1/   2)   22u222d0       -0.065870       0.004339
          73  ( 2:1:  13/   3)   2u222d02        0.213098       0.045411
          83  ( 2:1:   3/   4)   u222d220        0.125203       0.015676
          87  ( 2:1:   7/   4)   u2222udd        0.076322       0.005825
         175  ( 3:1:   5/   8)   20222202       -0.093019       0.008653
         193  ( 3:1:   3/  10)   02222u2d        0.059640       0.003557
 
  The CI coefficients for the MIXED state nr.   6
--------------------------------------------------------------------------------
 CI COEFFICIENTS LARGER THAN  0.50D-01
  Occupation of active orbitals, and spin coupling
  of open shells. (u,d: Spin up or down).
  SGUGA info is (Midvert:IsyUp:UpperWalk/LowerWalk)
        Conf  SGUGA info        Occupation    Coefficient         Weight
           2  ( 1:1:   2/   1)   22222ud0       -0.885987       0.784974
           7  ( 1:1:   7/   1)   22222u0d        0.147683       0.021810
          21  ( 2:1:   1/   1)   222u22d0        0.149708       0.022412
          41  ( 2:1:   1/   2)   22u222d0        0.266871       0.071220
          65  ( 2:1:   5/   3)   2u222dud       -0.146216       0.021379
          67  ( 2:1:   7/   3)   2u222udd        0.203154       0.041272
         176  ( 3:1:   6/   8)   20222ud2        0.127461       0.016246
 
  The CI coefficients for the MIXED state nr.   7
--------------------------------------------------------------------------------
 CI COEFFICIENTS LARGER THAN  0.50D-01
  Occupation of active orbitals, and spin coupling
  of open shells. (u,d: Spin up or down).
  SGUGA info is (Midvert:IsyUp:UpperWalk/LowerWalk)
        Conf  SGUGA info        Occupation    Coefficient         Weight
           2  ( 1:1:   2/   1)   22222ud0       -0.126246       0.015938
          21  ( 2:1:   1/   1)   222u22d0       -0.875119       0.765834
          24  ( 2:1:   4/   1)   222u220d        0.114948       0.013213
          25  ( 2:1:   5/   1)   222u2dud        0.226536       0.051319
          27  ( 2:1:   7/   1)   222u2udd       -0.317068       0.100532
          41  ( 2:1:   1/   2)   22u222d0        0.100706       0.010142
         112  ( 3:1:   2/   2)   22ud22ud        0.069509       0.004832
         201  ( 4:1:   1/   1)   22uu22dd        0.073078       0.005340
         210  ( 4:1:   4/   2)   2u2u2dd2        0.079280       0.006285
         262  ( 5:1:   2/   7)   202u22d2        0.082357       0.006783
 
--
 
--- Stop Module: caspt2 at Tue Jun 10 17:51:23 2025 /rc=_RC_ALL_IS_WELL_ ---
*** files: xmldump
    saved to directory /home/pcaah4/diamide_project
--- Module caspt2 spent 6 minutes 59 seconds ---

.##################.
.# Happy landing! #.
.##################.

    Timing: Wall=669.82 User=581.25 System=78.92
******************************************************
*** WorkDir at /srv/COMMUNAL_SCRATCH/12391 cleaned ***
******************************************************
