   This run of MOLCAS is using the pymolcas driver

                             OPE
                             OPE          NMOL  CASOP  ENMOLC A   SO
                 OPE        NMOLC        AS  OP EN  MO LC     AS  OP
                OPENM       OL CA        SO  PE NM  OL CA     SOP EN
                OP EN      MO   LC       AS  OP ENMOL  CASO   PENMOL
                OP  EN     MO   LC       AS  OP EN     MO     LC ASO
               OP   E  NMOL  C  AS       OP  EN MO     LC     AS  OP
               OP  E   NMO   LC AS        OPEN  MO     LCASOP EN   M
               O  PEN   MO  LCA  SO
            OPE   NMO   L   CAS    OP
        OPENMOL  CASOP     ENMOL   CASOPE
     OPENMOLCA   SOPENMOLCASOPEN   MOLCASOPE
    OPENMOLCAS   OP           EN   MOL    CAS
    OPENMOLCAS       OP  ENM        O     LCA
    OPENMOLCAS    OPEN  MOLCASO     P  E  NMO
    OPENMOLCAS     OP               E  N  MOL
    OPENMOLCA   SO           PENM   O  L  CAS    OPEN    MO    LCAS
    OPENMOLCA   SOP           ENM   O  L  CAS   OP  EN  MOLC  AS   O
    OPENMOLCA   SOPE           NM      O  LCA   S      OP  EN MO
    OPENMOLC                AS         O  PEN   M      OL  CA  SOPE
    OPENMO        LCASOPE  NMOL        C  ASO   P      ENMOLC     AS
    OPE     NMO      LCA  SO     P     E   NM   OL  CA SO  PE N   MO
          OPENMOLCA            SOPE   NMO        LCAS  O    P  ENMO
     OPENMOLCASOPENMOLCASOPENMOLCASOPENMOLCA
        OPENMOLCASOPENMOLCASOPENMOLCASOPE
            OPENMOLCASOPENMOLCASOPENM
               OPENMOLCASOPENMOLCA        version: v23.06
                   OPENMOLCASO
                       OPE                tag:

 OpenMolcas is free software; you can redistribute it and/or modify it
 under the terms of the GNU Lesser General Public License version 2.1.
 OpenMolcas is distributed in the hope that it will be useful, but it
 is provided "as is" and without any express or implied warranties.
 For more details see the full text of the license in the file
 LICENSE or in <http://www.gnu.org/licenses/>.

                 Copyright (C) The OpenMolcas Authors
           For the author list and the recommended citation,
                   consult the file CONTRIBUTORS.md

           *************************************************
           * pymolcas version py2.24                       *
           *   build 4567b286dd94b1984b333a4ddf893180      *
           *   (after the EMIL interpreter by V. Veryazov) *
           *************************************************

configuration info
------------------
Host name: loginchem01.nottingham.ac.uk (Linux)
C Compiler ID: Intel
C flags: -std=gnu99 -gcc-sys -qopenmp
Fortran Compiler ID: Intel
Fortran flags: -fpp -i8 -heap-arrays -qopenmp
Definitions: _MOLCAS_;_I8_;_LINUX_
Parallel: OFF (GA=OFF)


   ---------------------------------------------------------------------------------------------------
  |
  |              Project: orca_geometry_optimisation_45_345_BP86_def2-SVP_def2J_scf_cas1_ras12i11_cas8
  |       Submitted from: /home/pcaah4/diamide_project
  |         Scratch area: /srv/COMMUNAL_SCRATCH/12500
  |      Save outputs to: /home/pcaah4/diamide_project
  |               Molcas: /software/chemistry/openmolcas/openmolcas-23.06-openmp
  |
  | Scratch area is empty
  |
  |       MOLCAS_DRIVER = /software/chemistry/openmolcas/openmolcas-23.06-openmp/sbin/pymolcas
  | MOLCAS_KEEP_WORKDIR = NO
  |       MOLCAS_NPROCS = 1
  |       MOLCAS_SOURCE = /software/chemistry/openmolcas/openmolcas-23.06-openmp
  |    MOLCAS_STRUCTURE = 0
  |
   ---------------------------------------------------------------------------------------------------

++ ---------   Input file   ---------

&SEWARD
TITLE
orca_geometry_optimisation_45_345_BP86_def2-SVP_def2J_scf_cas1_ras12i11
MULTIPOLES
2
SDIPOLE
ANGMOM
0 0 0
BASIS SET
C.ANO-S...4S3P1D.
C1           -0.141305   -0.384188   -0.126558 /Angstrom
C3            1.943831    1.008665    0.454303 /Angstrom
C4            1.461657    2.110890    1.435366 /Angstrom
C6           -0.364202    3.149107    2.686840 /Angstrom
C19          -0.552641   -1.809319   -0.479706 /Angstrom
END OF BASIS
BASIS SET
N.ANO-S...4S3P1D.
N2            1.185777   -0.213499    0.151575 /Angstrom
N5            0.156575    2.109790    1.816568 /Angstrom
END OF BASIS
BASIS SET
O.ANO-S...4S3P1D.
O7           -0.981146    0.526971   -0.106929 /Angstrom
O8            2.317497    2.906277    1.828495 /Angstrom
END OF BASIS
BASIS SET
H.ANO-S...2S1P.
H9           -1.037170   -1.795216   -1.476076 /Angstrom
H10          -1.320350   -2.146119    0.245165 /Angstrom
H11           0.278973   -2.540503   -0.493560 /Angstrom
H12           1.749405   -1.064543    0.134952 /Angstrom
H13           2.921316    0.694083    0.864875 /Angstrom
H14           2.174884    1.548952   -0.493445 /Angstrom
H15          -0.493688    1.575729    1.206186 /Angstrom
H16           0.489192    3.640935    3.190597 /Angstrom
H17          -0.926328    3.924691    2.120641 /Angstrom
H18          -1.044573    2.716833    3.449483 /Angstrom
END OF BASIS
END OF INPUT

&RASSCF
TITLE
orca_geometry_optimisation_45_345_BP86_def2-SVP_def2J_scf_cas1_ras12i11
LUMORB
SPIN
1
SYMMETRY
1
NACTEL
12  0  0
INACTIVE
29
DELETED  ! delete Rydberg orbitals from an initial CAS(12,11) if done
3
FROZEN
0
RAS2
8
ITERATIONS
64 25
CIROOT
7 7
1 2 3 4 5 6 7
1 1 1 1 1 1 1
LEVSHFT
0.3
CIMX
20
FILEorb = /home/pcaah4/diamide_project/cas/ras12i11/ras_orb/orca_geometry_optimisation_45_345_BP86_def2-SVP_def2J_scf_cas1_ras12i11.RasOrb
ALTEr
0
END OF INPUT

&RASSI
NROF JOBIPH
    1 7
    1 2 3 5 4 6 7
TOFILE
TRDI
TDMN
1.0D-6
END OF INPUT

&CASPT2
TITLE
orca_geometry_optimisation_45_345_BP86_def2-SVP_def2J_scf_cas1_ras12i11
MULTISTATE
7 1 2 3 4 5 6 7
SHIFT
0.35
MAXITER
50
END OF INPUT

-- ----------------------------------

--- Start Module: seward at Tue Jun 10 22:26:55 2025 ---
 
()()()()()()()()()()()()()()()()()()()()()()()()()()()()()()()()()()()()()()()()()()()()()()()()()()

                                              &SEWARD

                                   only a single process is used
                       available to each process: 2.0 GB of memory, 1 thread
                                            pid: 3143485
()()()()()()()()()()()()()()()()()()()()()()()()()()()()()()()()()()()()()()()()()()()()()()()()()()
 
               SEWARD will generate:
                  Multipole Moment integrals up to order  2
                  Kinetic Energy integrals
                  Nuclear Attraction integrals (point charge)
                  One-Electron Hamiltonian integrals
                  Velocity integrals
                  Orbital angular momentum around ( 0.0000  0.0000  0.0000 )
                  Velocity quadrupole around ( 1.0337  1.9900  1.6207 )
                  Two-Electron Repulsion integrals
 
 Title:
            orca_geometry_optimisation_45_345_BP86_def2-SVP_def2J_scf_cas1_ras12i11     
 
 
                   Integrals are discarded if absolute value <: 0.10E-13
                   Integral cutoff threshold is set to       <: 0.10E-15
 
++    Symmetry information:
      ---------------------
 
                    Character Table for C1 
 
                             E  
                    a        1  x, y, xy, Rz, z, xz, Ry, yz, Rx, I
--
 
 
++    Basis set information:
      ----------------------
 
 
      Basis set label: C.ANO-S...4S3P1D......
 
      Electronic valence basis set:
      ------------------
      Associated Effective Charge   6.000000 au
      Associated Actual Charge      6.000000 au
      Nuclear Model: Point charge
 
      Shell  nPrim  nBasis  Cartesian Spherical Contaminant
         s      10       4        X                  
         p       6       3        X                  
         d       3       1                 X         
 
 
      Basis set label: N.ANO-S...4S3P1D......
 
      Electronic valence basis set:
      ------------------
      Associated Effective Charge   7.000000 au
      Associated Actual Charge      7.000000 au
      Nuclear Model: Point charge
 
      Shell  nPrim  nBasis  Cartesian Spherical Contaminant
         s      10       4        X                  
         p       6       3        X                  
         d       3       1                 X         
 
 
      Basis set label: O.ANO-S...4S3P1D......
 
      Electronic valence basis set:
      ------------------
      Associated Effective Charge   8.000000 au
      Associated Actual Charge      8.000000 au
      Nuclear Model: Point charge
 
      Shell  nPrim  nBasis  Cartesian Spherical Contaminant
         s      10       4        X                  
         p       6       3        X                  
         d       3       1                 X         
 
 
      Basis set label: H.ANO-S...2S1P......
 
      Electronic valence basis set:
      ------------------
      Associated Effective Charge   1.000000 au
      Associated Actual Charge      1.000000 au
      Nuclear Model: Point charge
 
      Shell  nPrim  nBasis  Cartesian Spherical Contaminant
         s       7       2        X                  
         p       3       1        X                  
--
 
 
++    Molecular structure info:
      -------------------------
 
                    ************************************************ 
                    **** Cartesian Coordinates / Bohr, Angstrom **** 
                    ************************************************ 
 
     Center  Label                x              y              z                     x              y              z
        1      C1              -0.267028      -0.726010      -0.239160             -0.141305      -0.384188      -0.126558
        2      C3               3.673308       1.906101       0.858508              1.943831       1.008665       0.454303
        3      C4               2.762131       3.989004       2.712449              1.461657       2.110890       1.435366
        4      C6              -0.688242       5.950950       5.077392             -0.364202       3.149107       2.686840
        5      C19             -1.044340      -3.419117      -0.906513             -0.552641      -1.809319      -0.479706
        6      N2               2.240794      -0.403455       0.286435              1.185777      -0.213499       0.151575
        7      N5               0.295884       3.986925       3.432816              0.156575       2.109790       1.816568
        8      O7              -1.854097       0.995831      -0.202067             -0.981146       0.526971      -0.106929
        9      O8               4.379435       5.492068       3.455355              2.317497       2.906277       1.828495
       10      H9              -1.959967      -3.392467      -2.789379             -1.037170      -1.795216      -1.476076
       11      H10             -2.495100      -4.055577       0.463295             -1.320350      -2.146119       0.245165
       12      H11              0.527183      -4.800855      -0.932693              0.278973      -2.540503      -0.493560
       13      H12              3.305896      -2.011695       0.255022              1.749405      -1.064543       0.134952
       14      H13              5.520487       1.311627       1.634377              2.921316       0.694083       0.864875
       15      H14              4.109935       2.927095      -0.932476              2.174884       1.548952      -0.493445
       16      H15             -0.932935       2.977696       2.279361             -0.493688       1.575729       1.206186
       17      H16              0.924439       6.880370       6.029355              0.489192       3.640935       3.190597
       18      H17             -1.750506       7.416591       4.007431             -0.926328       3.924691       2.120641
       19      H18             -1.973957       5.134070       6.518578             -1.044573       2.716833       3.449483
 
                    ************************************************* 
                    **** InterNuclear Distances / Bohr, Angstrom **** 
                    ************************************************* 
 
     Atom centers         Bohr        Angstrom
   13 H12       6 N2      1.929214        1.020896
   16 H15       7 N5      1.964433        1.039533
   14 H13       2 C3      2.089842        1.105897
   17 H16       4 C6      2.090645        1.106321
   12 H11       5 C19     2.092742        1.107431
   10 H9        5 C19     2.093865        1.108025
   11 H10       5 C19     2.094316        1.108264
   19 H18       4 C6      2.096991        1.109680
   18 H17       4 C6      2.102695        1.112698
   15 H14       2 C3      2.107296        1.115133
    9 O8        3 C4      2.329545        1.232742
    8 O7        1 C1      2.341987        1.239326
    7 N5        3 C4      2.569302        1.359616
    6 N2        1 C1      2.582530        1.366616
    7 N5        4 C6      2.744180        1.452158
    6 N2        2 C3      2.777303        1.469685
    5 C19       1 C1      2.881389        1.524765
    3 C4        2 C3      2.933569        1.552378
   16 H15       8 O7      3.306632        1.749794
   15 H14      14 H13     3.344866        1.770027
   11 H10      10 H9      3.362435        1.779324
   18 H17      17 H16     3.395739        1.796947
   19 H18      18 H17     3.400837        1.799645
   12 H11      10 H9      3.408336        1.803614
   12 H11      11 H10     3.411512        1.805294
   19 H18      17 H16     3.419006        1.809260
   13 H12       1 C1      3.829228        2.026340
   16 H15       3 C4      3.855363        2.040170
   17 H16       7 N5      3.938161        2.083985
   14 H13       6 N2      3.938888        2.084370
   13 H12       2 C3      3.980993        2.106651
   14 H13       3 C4      3.992382        2.112678
   19 H18       7 N5      3.998756        2.116050
   15 H14       6 N2      4.008989        2.121466
   15 H14       3 C4      4.028610        2.131849
   18 H17       7 N5      4.034910        2.135183
   10 H9        1 C1      4.059514        2.148202
   11 H10       1 C1      4.067403        2.152377
   16 H15       4 C6      4.090121        2.164399
   13 H12      12 H11     4.112339        2.176156
   12 H11       1 C1      4.209052        2.227334
   14 H13      13 H12     4.225103        2.235828
    9 O8        7 N5      4.352166        2.303067
    8 O7        6 N2      4.354855        2.304490
    9 O8        2 C3      4.483457        2.372543
   17 H16       9 O8      4.526572        2.395359
   16 H15       1 C1      4.528115        2.396175
    8 O7        5 C19     4.543536        2.404336
    6 N2        5 C19     4.616216        2.442796
    4 C6        3 C4      4.620310        2.444963
   14 H13       9 O8      4.700430        2.487361
   13 H12       5 C19     4.717474        2.496380
    7 N5        2 C3      4.729047        2.502504
   17 H16       3 C4      4.768540        2.523403
   18 H17      16 H15     4.833056        2.557543
    2 C3        1 C1      4.864065        2.573952
   19 H18      16 H15     4.868741        2.576427
   12 H11       6 N2      4.874409        2.579426
   16 H15       2 C3      4.938078        2.613119
    6 N2        3 C4      5.044901        2.669647
   16 H15       6 N2      5.047424        2.670982
   15 H14       9 O8      5.089673        2.693339
   10 H9        8 O7      5.095346        2.696341
   11 H10       8 O7      5.135203        2.717433
   15 H14      13 H12     5.142789        2.721447
    8 O7        7 N5      5.175078        2.738534
    9 O8        4 C6      5.340686        2.826169
--
 
 
            Nuclear Potential Energy            459.94213049 au
 
 
      Basis set specifications :
      Symmetry species         a  
      Basis functions          212
 
 
      Input file to MOLDEN was generated!
 
--- Stop Module: seward at Tue Jun 10 22:28:46 2025 /rc=_RC_ALL_IS_WELL_ ---
*** files: orca_geometry_optimisation_45_345_BP86_def2-SVP_def2J_scf_cas1_ras12i11_cas8.GssOrb
           orca_geometry_optimisation_45_345_BP86_def2-SVP_def2J_scf_cas1_ras12i11_cas8.guessorb.molden xmldump
    saved to directory /home/pcaah4/diamide_project
--- Module seward spent 1 minute 50 seconds ---

*** symbolic link created: INPORB -> orca_geometry_optimisation_45_345_BP86_def2-SVP_def2J_scf_cas1_ras12i11_cas8.GssOrb
--- Start Module: rasscf at Tue Jun 10 22:28:46 2025 ---
 
()()()()()()()()()()()()()()()()()()()()()()()()()()()()()()()()()()()()()()()()()()()()()()()()()()

                                              &RASSCF

                                   only a single process is used
                       available to each process: 2.0 GB of memory, 1 thread
                                            pid: 3143531
()()()()()()()()()()()()()()()()()()()()()()()()()()()()()()()()()()()()()()()()()()()()()()()()()()
 
 
      Header of the ONEINT file:
      --------------------------
      orca_geometry_optimisation_45_345_BP86_def2-SVP_def2J_scf_cas1_ras12i11
      Integrals generated by Gateway/Seward, Tue Jun 10 22:26:56 2025
 
 
      OrdInt status: non-squared
 
 
      Cartesian coordinates in Angstrom:
      -----------------------------------------------------
      No.  Label        X            Y            Z        
      -----------------------------------------------------
       1   C1        -0.14130500  -0.38418800  -0.12655800
       2   C3         1.94383100   1.00866500   0.45430300
       3   C4         1.46165700   2.11089000   1.43536600
       4   C6        -0.36420200   3.14910700   2.68684000
       5   C19       -0.55264100  -1.80931900  -0.47970600
       6   N2         1.18577700  -0.21349900   0.15157500
       7   N5         0.15657500   2.10979000   1.81656800
       8   O7        -0.98114600   0.52697100  -0.10692900
       9   O8         2.31749700   2.90627700   1.82849500
      10   H9        -1.03717000  -1.79521600  -1.47607600
      11   H10       -1.32035000  -2.14611900   0.24516500
      12   H11        0.27897300  -2.54050300  -0.49356000
      13   H12        1.74940500  -1.06454300   0.13495200
      14   H13        2.92131600   0.69408300   0.86487500
      15   H14        2.17488400   1.54895200  -0.49344500
      16   H15       -0.49368800   1.57572900   1.20618600
      17   H16        0.48919200   3.64093500   3.19059700
      18   H17       -0.92632800   3.92469100   2.12064100
      19   H18       -1.04457300   2.71683300   3.44948300
      -----------------------------------------------------
      Nuclear repulsion energy =  459.94213049
 
++    Wave function specifications:
      -----------------------------
 
      Number of closed shell electrons          58
      Number of electrons in active shells      12
      Max number of holes in RAS1 space          0
      Max nr of electrons in RAS3 space          0
      Number of inactive orbitals               29
      Number of active orbitals                  8
      Number of secondary orbitals             172
      Spin quantum number                      0.0
      State symmetry                             1
--
 
++    Orbital specifications:
      -----------------------
 
      Symmetry species                           1
                                                 a
      Frozen orbitals                            0
      Inactive orbitals                         29
      Active orbitals                            8
      RAS1 orbitals                              0
      RAS2 orbitals                              8
      RAS3 orbitals                              0
      Secondary orbitals                       172
      Deleted orbitals                           3
      Number of basis functions                212
--
 
++    CI expansion specifications:
      ----------------------------
 
      Number of CSFs                           336
      Number of determinants                   406
      Number of root(s) required                 7
      Root chosen for geometry opt.              7
      CI roots used                              1     2     3     4     5     6     7
      weights                                0.143 0.143 0.143 0.143 0.143 0.143 0.143
      highest root included in the CI            7
      max. size of the explicit Hamiltonian    200
--
 
++    Optimization specifications:
      ----------------------------
 
      RASSCF algorithm: Conventional
      Maximum number of macro iterations        64
      Maximum number of SX iterations           25
      Threshold for RASSCF energy            0.100E-07
      Threshold for max MO rotation          0.100E+00
      Threshold for max BLB element          0.100E-03
      Level shift parameter                  0.300E+00
      Make Quasi-Newton update
--
 
      The MO-coefficients are taken from the file:
      /home/pcaah4/diamide_project/cas/ras12i11/ras_orb/orca_geometry_optimisation_45_345_BP86_def2-SVP_def2J_scf_cas1_ras12i11.RasOrb                                                                                                                                
      Title: RASSCF average (pseudo-natural) orbitals                                      
 
      Total molecular charge    0.00
 
      ************************************************************************************************************************
      *                                                                                                                      *
      *                                            Wave function control section                                             *
      *                                                                                                                      *
      ************************************************************************************************************************
 
 
                                         RASSCF iterations: Energy and convergence statistics
                                         ----------------------------------------------------
 
      Iter CI   SX   CI       RASSCF       Energy    max ROT     max BLB   max BLB  Level Ln srch  Step   QN   Walltime
          iter iter root      energy       change     param      element    value   shift minimum  type update hh:mm:ss
 Nr of preliminary CI iterations:   5
        1   1   25    0  -453.69002211    0.00E+00   0.56E-01   34  40 1 -0.24E-01*  0.20   0.00    SX    NO    0:00:13
        2   4   18    0  -453.70080862   -0.11E-01*  0.25E-01   32  38 1 -0.76E-02*  0.19   0.00    SX    NO    0:00:06
        3   3   11    0  -453.70212433   -0.13E-02* -0.13E-01   34  40 1 -0.39E-02*  0.20   0.00    SX    NO    0:00:07
        4   5   11    0  -453.70255442   -0.43E-03*  0.76E-02   32  38 1 -0.28E-02*  0.19   0.00    SX    NO    0:00:07
        5   3   11    0  -453.70266429   -0.11E-03* -0.98E-02   36  39 1  0.12E-02*  0.20   1.58    QN   YES    0:00:06
        6   5    9    0  -453.70271931   -0.55E-04* -0.12E-02   32  38 1  0.35E-03*  0.20   1.07    QN   YES    0:00:06
        7   3    9    0  -453.70272217   -0.29E-05* -0.82E-03   22  96 1  0.24E-03*  0.20   1.05    QN   YES    0:00:07
        8   5    8    0  -453.70272349   -0.13E-05*  0.65E-03   34  40 1  0.76E-04   0.20   1.32    QN   YES    0:00:07
        9   3    8    0  -453.70272384   -0.36E-06*  0.51E-03   37  41 1  0.40E-04   0.20   1.34    QN   YES    0:00:06
       10   3    7    0  -453.70272393   -0.88E-07*  0.20E-03   37  41 1  0.19E-04   0.20   1.14    QN   YES    0:00:06
       11   1    7    0  -453.70272395   -0.21E-07*  0.21E-03   37  41 1  0.11E-04   0.20   1.70    QN   YES    0:00:06
       12   1    6    0  -453.70272396   -0.89E-08   0.36E-04   22  96 1 -0.59E-05   0.20   1.09    QN   YES    0:00:07
      Convergence after 12 iterations
       13   1    6    0  -453.70272396   -0.15E-08   0.36E-04   31  39 1  0.26E-05   0.20   1.09    QN   YES    0:00:06
 
      ************************************************************************************************************************
                                                      Wave function printout:
                       occupation of active orbitals, and spin coupling of open shells (u,d: Spin up or down)
      ************************************************************************************************************************
 
      Note: transformation to natural orbitals
      has been made, which may change the order of the CSFs.
 
      printout of CI-coefficients larger than  0.05 for root  1
      energy=    -453.947804
      conf/sym  11111111     Coeff  Weight
             1  22222200   0.96240 0.92621
             2  22222ud0  -0.10610 0.01126
             4  22222020  -0.09444 0.00892
            61  2u2222d0  -0.09018 0.00813
            62  2u222d20  -0.05891 0.00347
            84  u222220d  -0.12128 0.01471
           105  22202202  -0.07879 0.00621
           171  20222220  -0.09369 0.00878
           195  02222202  -0.07629 0.00582
 
      printout of CI-coefficients larger than  0.05 for root  2
      energy=    -453.732338
      conf/sym  11111111     Coeff  Weight
             2  22222ud0   0.06425 0.00413
             3  2222u2d0  -0.95741 0.91664
             5  2222ud20  -0.12861 0.01654
            63  2u22d220  -0.16171 0.02615
            86  u222d2ud   0.06520 0.00425
            88  u222u2dd   0.10705 0.01146
           107  2220u2d2   0.07919 0.00627
           197  0222u2d2   0.07669 0.00588
 
      printout of CI-coefficients larger than  0.05 for root  3
      energy=    -453.719717
      conf/sym  11111111     Coeff  Weight
             7  22222u0d  -0.13181 0.01737
             8  2222u20d  -0.07207 0.00519
            44  22u2220d  -0.94459 0.89224
            45  22u22dud   0.06512 0.00424
            47  22u22udd   0.11021 0.01215
            49  22u2202d   0.08712 0.00759
           115  22ud2202  -0.15299 0.02341
           165  u2d22202  -0.11179 0.01250
           219  2uu222dd  -0.07051 0.00497
           220  2uu22d2d  -0.05478 0.00300
           293  20u2222d  -0.09456 0.00894
 
      printout of CI-coefficients larger than  0.05 for root  4
      energy=    -453.651302
      conf/sym  11111111     Coeff  Weight
             2  22222ud0  -0.30070 0.09042
             4  22222020   0.06226 0.00388
             7  22222u0d  -0.49703 0.24704
             8  2222u20d   0.44219 0.19553
            10  2222udud   0.07362 0.00542
            12  2222uudd   0.10937 0.01196
            24  222u220d  -0.59486 0.35386
            27  222u2udd   0.05130 0.00263
            29  222u202d   0.06360 0.00404
            44  22u2220d   0.05114 0.00262
            62  2u222d20  -0.07818 0.00611
            65  2u222dud  -0.08896 0.00791
            67  2u222udd  -0.09617 0.00925
           135  u22d2202  -0.14083 0.01983
           173  20222u2d  -0.06949 0.00483
           207  2u2u22dd  -0.06488 0.00421
           261  202u222d  -0.05737 0.00329
 
      printout of CI-coefficients larger than  0.05 for root  5
      energy=    -453.638316
      conf/sym  11111111     Coeff  Weight
             2  22222ud0   0.10017 0.01003
             7  22222u0d  -0.79416 0.63069
             8  2222u20d  -0.19073 0.03638
            24  222u220d   0.46036 0.21193
            25  222u2dud  -0.06601 0.00436
            44  22u2220d   0.11504 0.01323
            65  2u222dud  -0.13105 0.01717
            67  2u222udd  -0.14334 0.02055
            93  u2222d02  -0.06460 0.00417
           135  u22d2202   0.10731 0.01152
           173  20222u2d  -0.10952 0.01200
 
      printout of CI-coefficients larger than  0.05 for root  6
      energy=    -453.617017
      conf/sym  11111111     Coeff  Weight
             1  22222200   0.07109 0.00505
             2  22222ud0   0.75487 0.56982
             3  2222u2d0   0.05089 0.00259
             4  22222020  -0.12877 0.01658
             7  22222u0d  -0.11621 0.01350
             8  2222u20d  -0.21853 0.04776
            10  2222udud  -0.07172 0.00514
            12  2222uudd  -0.10819 0.01171
            24  222u220d  -0.48006 0.23046
            62  2u222d20   0.20445 0.04180
            87  u2222udd  -0.07814 0.00611
           106  22202ud2  -0.06692 0.00448
           135  u22d2202  -0.11489 0.01320
           171  20222220   0.07916 0.00627
           196  02222ud2  -0.05311 0.00282
 
      printout of CI-coefficients larger than  0.05 for root  7
      energy=    -453.612574
      conf/sym  11111111     Coeff  Weight
             1  22222200  -0.07915 0.00626
             2  22222ud0  -0.42032 0.17667
             4  22222020   0.10550 0.01113
             8  2222u20d  -0.75606 0.57163
            10  2222udud  -0.15486 0.02398
            12  2222uudd  -0.22863 0.05227
            24  222u220d  -0.30766 0.09465
            44  22u2220d   0.07498 0.00562
            61  2u2222d0   0.05891 0.00347
            62  2u222d20  -0.10535 0.01110
            71  2u22ud2d   0.05989 0.00359
            87  u2222udd   0.06469 0.00418
            94  u222d202  -0.05519 0.00305
           135  u22d2202  -0.06873 0.00472
           174  2022u22d  -0.06600 0.00436
 
      Natural orbitals and occupation numbers for root  1
      sym 1:   1.955918   1.974888   1.999899   1.993289   1.999697   1.993960   0.050336   0.032013
 
      Natural orbitals and occupation numbers for root  2
      sym 1:   1.973608   1.999733   1.999867   1.993293   1.010329   1.999191   0.990914   0.033064
 
      Natural orbitals and occupation numbers for root  3
      sym 1:   1.999909   1.994587   1.003991   1.999643   1.999359   1.953491   0.051703   0.997317
 
      Natural orbitals and occupation numbers for root  4
      sym 1:   1.993252   1.939578   1.999508   1.108303   1.976185   1.882727   0.168759   0.931688
 
      Natural orbitals and occupation numbers for root  5
      sym 1:   1.992998   1.917561   1.999553   1.976990   1.997647   1.023701   0.092666   0.998885
 
      Natural orbitals and occupation numbers for root  6
      sym 1:   1.990969   1.966314   1.999217   1.708443   1.949183   1.285853   0.761100   0.338920
 
      Natural orbitals and occupation numbers for root  7
      sym 1:   1.994399   1.973934   1.999028   1.970318   1.350986   1.730203   0.298801   0.682331
 
      ************************************************************************************************************************
      *                                                                                                                      *
      *                                                    Final results                                                     *
      *                                                                                                                      *
      ************************************************************************************************************************
 
 
++    Wave function specifications:
      -----------------------------
 
      Number of closed shell electrons          58
      Number of electrons in active shells      12
      Max number of holes in RAS1 space          0
      Max nr of electrons in RAS3 space          0
      Number of inactive orbitals               29
      Number of active orbitals                  8
      Number of secondary orbitals             172
      Spin quantum number                      0.0
      State symmetry                             1
--
 
++    Orbital specifications:
      -----------------------
 
      Symmetry species                           1
                                                 a
      Frozen orbitals                            0
      Inactive orbitals                         29
      Active orbitals                            8
      RAS1 orbitals                              0
      RAS2 orbitals                              8
      RAS3 orbitals                              0
      Secondary orbitals                       172
      Deleted orbitals                           3
      Number of basis functions                212
--
 
++    CI expansion specifications:
      ----------------------------
 
      Number of CSFs                           336
      Number of determinants                   406
      Number of root(s) required                 7
      CI roots used                              1     2     3     4     5     6     7
      weights                                0.143 0.143 0.143 0.143 0.143 0.143 0.143
      highest root included in the CI            7
      Root passed to geometry opt.               7
--
 
++    Final optimization conditions:
      ------------------------------
 
      Average CI energy                            -453.70272396
      RASSCF energy for state  7                   -453.61257417
      Super-CI energy                                -0.00000000
      RASSCF energy change                            0.00000000
      Max change in MO coefficients              -0.416E-04
      Max non-diagonal density matrix element     0.356E-04
      Maximum BLB matrix element                  0.260E-05
      (orbital pair  31,  39 in symmetry   1)
      Norm of electronic gradient            0.252E+00
--
 
 
      Final state energy(ies):
      ------------------------
 
::    RASSCF root number  1 Total energy:   -453.94780404
::    RASSCF root number  2 Total energy:   -453.73233752
::    RASSCF root number  3 Total energy:   -453.71971677
::    RASSCF root number  4 Total energy:   -453.65130230
::    RASSCF root number  5 Total energy:   -453.63831631
::    RASSCF root number  6 Total energy:   -453.61701661
::    RASSCF root number  7 Total energy:   -453.61257417
 
++    Molecular orbitals:
      -------------------
 
      Pseudonatural active orbitals and approximate occupation numbers
 
 
 
 
      Molecular orbitals for symmetry species 1: a  
 
 
      Orbital                 1         2         3         4         5         6         7         8         9        10
      Energy           -20.5980  -20.5264  -15.6213  -15.5982  -11.3390  -11.3007  -11.2870  -11.2833  -11.2284   -1.4222
      Occ. No.           2.0000    2.0000    2.0000    2.0000    2.0000    2.0000    2.0000    2.0000    2.0000    2.0000
 
     1 C1     1s        -0.0001    0.0003    0.0000    0.0002   -0.0001   -0.0010    1.0000   -0.0000   -0.0052   -0.0003
     2 C1     2s        -0.0008    0.0007    0.0001    0.0005   -0.0004   -0.0015    0.0023   -0.0002   -0.0004    0.0307
     3 C1     3s        -0.0006   -0.0006    0.0000    0.0001   -0.0003   -0.0011   -0.0001   -0.0001   -0.0006    0.0113
     4 C1     4s        -0.0001   -0.0004   -0.0000    0.0001   -0.0001   -0.0003    0.0013   -0.0000   -0.0002    0.0036
     5 C1     2px       -0.0000   -0.0017    0.0000    0.0014   -0.0004   -0.0008    0.0013   -0.0002   -0.0002    0.0104
     6 C1     3px       -0.0001   -0.0010    0.0000    0.0011   -0.0005   -0.0010    0.0011   -0.0004    0.0001    0.0162
     7 C1     4px       -0.0000    0.0003   -0.0000   -0.0000   -0.0001   -0.0002    0.0003   -0.0001    0.0001    0.0033
     8 C1     2py        0.0000    0.0027    0.0001    0.0002   -0.0005   -0.0001    0.0009   -0.0002   -0.0006    0.0176
     9 C1     3py        0.0001    0.0017    0.0000    0.0001   -0.0005   -0.0005    0.0010   -0.0002    0.0002    0.0167
    10 C1     4py        0.0001   -0.0004   -0.0000   -0.0001   -0.0000   -0.0003    0.0007   -0.0000    0.0003    0.0051
    11 C1     2pz       -0.0000    0.0003    0.0000    0.0003   -0.0003   -0.0001    0.0005    0.0001   -0.0001    0.0070
    12 C1     3pz       -0.0000    0.0002   -0.0000    0.0003   -0.0003   -0.0002    0.0006    0.0001    0.0001    0.0075
    13 C1     4pz        0.0000   -0.0000   -0.0000   -0.0000   -0.0000   -0.0000    0.0003   -0.0000    0.0001    0.0019
    14 C1     3d2-       0.0000    0.0001   -0.0000    0.0000    0.0000   -0.0000   -0.0003    0.0000    0.0000   -0.0010
    15 C1     3d1-      -0.0000    0.0000   -0.0000    0.0000   -0.0000   -0.0000    0.0000    0.0000   -0.0000    0.0002
    16 C1     3d0        0.0000   -0.0000   -0.0000    0.0001    0.0000   -0.0000   -0.0003    0.0000    0.0001   -0.0015
    17 C1     3d1+      -0.0000    0.0000   -0.0000   -0.0001   -0.0000    0.0000    0.0001    0.0000   -0.0000    0.0004
    18 C1     3d2+       0.0000    0.0000    0.0000   -0.0002    0.0000    0.0000    0.0002    0.0000   -0.0001    0.0001
    19 C3     1s         0.0001    0.0001    0.0000    0.0005    0.0071    0.9995    0.0008    0.0000    0.0000   -0.0137
    20 C3     2s         0.0007    0.0003    0.0002    0.0026    0.0004   -0.0009   -0.0001    0.0006    0.0003    0.0049
    21 C3     3s         0.0004    0.0001    0.0001    0.0012   -0.0000   -0.0023   -0.0002    0.0003    0.0002   -0.0391
    22 C3     4s         0.0000   -0.0000   -0.0000    0.0001    0.0000    0.0007   -0.0001   -0.0000    0.0000   -0.0048
    23 C3     2px       -0.0006   -0.0000    0.0003   -0.0005    0.0001   -0.0000    0.0007   -0.0002    0.0001    0.0103
    24 C3     3px       -0.0005    0.0001    0.0003    0.0000    0.0002   -0.0001    0.0009   -0.0003    0.0002    0.0132
    25 C3     4px        0.0001    0.0000    0.0000    0.0003   -0.0000   -0.0007    0.0002   -0.0001    0.0001   -0.0031
    26 C3     2py       -0.0004   -0.0002    0.0005   -0.0005    0.0001   -0.0004    0.0004   -0.0001   -0.0000    0.0175
    27 C3     3py       -0.0005   -0.0001    0.0004    0.0000   -0.0005   -0.0004    0.0004   -0.0004    0.0001    0.0005
    28 C3     4py       -0.0002    0.0000   -0.0001    0.0002   -0.0002   -0.0005    0.0000   -0.0002    0.0001    0.0068
    29 C3     2pz       -0.0005    0.0000    0.0002    0.0001    0.0000   -0.0002    0.0002   -0.0000    0.0001    0.0234
    30 C3     3pz       -0.0007    0.0001    0.0002    0.0003   -0.0004   -0.0002    0.0004   -0.0002    0.0002    0.0069
    31 C3     4pz       -0.0002   -0.0000   -0.0001    0.0000   -0.0001    0.0000    0.0001   -0.0001    0.0001    0.0059
    32 C3     3d2-      -0.0000    0.0000    0.0000    0.0000   -0.0001   -0.0001    0.0000   -0.0001    0.0000   -0.0009
    33 C3     3d1-      -0.0000    0.0000    0.0001   -0.0000   -0.0001   -0.0001   -0.0000    0.0000    0.0000    0.0036
    34 C3     3d0       -0.0000   -0.0000   -0.0000    0.0001    0.0001    0.0000   -0.0000    0.0000   -0.0000    0.0019
    35 C3     3d1+      -0.0001    0.0000    0.0000   -0.0000   -0.0000    0.0001    0.0000   -0.0000    0.0000    0.0018
    36 C3     3d2+       0.0001   -0.0000   -0.0000    0.0001   -0.0000    0.0000    0.0001   -0.0000   -0.0000   -0.0048
    37 C4     1s         0.0003    0.0000    0.0002   -0.0002    1.0000   -0.0070   -0.0001    0.0002   -0.0000   -0.0391
    38 C4     2s         0.0008    0.0002    0.0007   -0.0017    0.0024    0.0006   -0.0009    0.0001   -0.0001    0.3554
    39 C4     3s        -0.0005    0.0001    0.0000   -0.0012   -0.0001    0.0001   -0.0007    0.0000   -0.0000   -0.0055
    40 C4     4s        -0.0004    0.0000   -0.0001   -0.0003    0.0013    0.0000   -0.0002   -0.0001   -0.0000    0.0034
    41 C4     2px        0.0021   -0.0003   -0.0016    0.0003   -0.0005    0.0002   -0.0000    0.0002   -0.0002    0.0535
    42 C4     3px        0.0017   -0.0002   -0.0011    0.0001   -0.0004    0.0005   -0.0001    0.0007   -0.0003   -0.0542
    43 C4     4px       -0.0001    0.0000    0.0001   -0.0001   -0.0000    0.0003   -0.0001    0.0004   -0.0001    0.0137
    44 C4     2py        0.0019   -0.0005    0.0004    0.0008    0.0006   -0.0008    0.0001   -0.0000   -0.0001    0.0797
    45 C4     3py        0.0013   -0.0005    0.0002    0.0008    0.0004   -0.0001    0.0003   -0.0004    0.0000   -0.0438
    46 C4     4py       -0.0002   -0.0000   -0.0001    0.0000    0.0004    0.0003    0.0002   -0.0003    0.0000    0.0186
    47 C4     2pz        0.0011   -0.0002    0.0007    0.0003    0.0007   -0.0007    0.0001   -0.0001    0.0000    0.0454
    48 C4     3pz        0.0007   -0.0001    0.0006    0.0003    0.0004   -0.0004    0.0002   -0.0005    0.0001   -0.0238
    49 C4     4pz       -0.0001    0.0001   -0.0001    0.0000    0.0003    0.0000    0.0001   -0.0004    0.0000    0.0113
    50 C4     3d2-      -0.0001   -0.0000   -0.0001    0.0000    0.0004   -0.0000   -0.0000   -0.0000   -0.0000    0.0330
    51 C4     3d1-       0.0000   -0.0000    0.0000   -0.0000    0.0002   -0.0000   -0.0000    0.0000    0.0000    0.0180
    52 C4     3d0        0.0000   -0.0000    0.0001    0.0000   -0.0003    0.0000    0.0000   -0.0000    0.0000   -0.0185
    53 C4     3d1+      -0.0001   -0.0000    0.0001   -0.0000    0.0001    0.0000   -0.0000   -0.0001   -0.0000    0.0120
    54 C4     3d2+       0.0000    0.0000   -0.0002    0.0000    0.0003   -0.0001   -0.0000    0.0001   -0.0000    0.0093
    55 C6     1s         0.0001   -0.0001    0.0004   -0.0000   -0.0001    0.0002   -0.0000    0.9996   -0.0001   -0.0097
    56 C6     2s         0.0009   -0.0004    0.0022   -0.0003    0.0004    0.0008   -0.0002   -0.0005   -0.0004    0.0086
    57 C6     3s         0.0007   -0.0002    0.0008   -0.0002    0.0001    0.0006   -0.0002   -0.0020   -0.0003   -0.0198
    58 C6     4s         0.0002   -0.0001   -0.0000   -0.0001   -0.0001    0.0002   -0.0001    0.0008   -0.0001   -0.0017
    59 C6     2px        0.0003   -0.0003    0.0002   -0.0001   -0.0002    0.0002   -0.0003   -0.0001   -0.0001    0.0103
    60 C6     3px        0.0003   -0.0002   -0.0001   -0.0001   -0.0005    0.0001   -0.0003   -0.0001   -0.0001   -0.0021
    61 C6     4px       -0.0000    0.0000   -0.0002   -0.0000   -0.0002   -0.0000   -0.0000    0.0003   -0.0000    0.0026
    62 C6     2py       -0.0004   -0.0000   -0.0004   -0.0001    0.0001   -0.0003   -0.0001   -0.0000    0.0000   -0.0074
    63 C6     3py       -0.0003    0.0000    0.0001   -0.0001    0.0001   -0.0002   -0.0001    0.0003    0.0000    0.0050
    64 C6     4py        0.0000    0.0000    0.0002   -0.0000    0.0000    0.0000    0.0000   -0.0005   -0.0000   -0.0028
    65 C6     2pz        0.0001   -0.0000   -0.0004    0.0001    0.0000   -0.0001    0.0002   -0.0001    0.0001   -0.0132
    66 C6     3pz        0.0001   -0.0001    0.0001    0.0001    0.0001   -0.0001    0.0002    0.0002    0.0001   -0.0005
    67 C6     4pz       -0.0000   -0.0000    0.0002    0.0000    0.0001    0.0000    0.0000   -0.0004    0.0000   -0.0020
    68 C6     3d2-      -0.0000   -0.0000   -0.0000    0.0000   -0.0000   -0.0000    0.0000    0.0000    0.0000   -0.0022
    69 C6     3d1-       0.0000   -0.0000   -0.0001    0.0000    0.0000    0.0000    0.0000   -0.0001   -0.0000    0.0030
    70 C6     3d0       -0.0000    0.0000    0.0001    0.0000   -0.0000   -0.0000    0.0000   -0.0000    0.0000    0.0004
    71 C6     3d1+      -0.0000   -0.0000   -0.0000    0.0000   -0.0000   -0.0000   -0.0000   -0.0000   -0.0000   -0.0018
    72 C6     3d2+       0.0000   -0.0000    0.0000   -0.0000    0.0001   -0.0000   -0.0000    0.0001    0.0000   -0.0006
    73 C19    1s         0.0000    0.0002    0.0000    0.0000   -0.0000    0.0001    0.0052   -0.0000    1.0000   -0.0004
    74 C19    2s         0.0003    0.0010   -0.0000    0.0001   -0.0002    0.0008    0.0007   -0.0002    0.0021    0.0026
    75 C19    3s         0.0003    0.0006   -0.0000    0.0002   -0.0002    0.0004    0.0002   -0.0002   -0.0003    0.0029
    76 C19    4s         0.0001    0.0001   -0.0000    0.0000   -0.0001    0.0000    0.0001   -0.0001    0.0012    0.0022
    77 C19    2px        0.0001    0.0007    0.0001   -0.0003    0.0001    0.0003   -0.0002    0.0000   -0.0001   -0.0024
    78 C19    3px        0.0000    0.0005    0.0001   -0.0002    0.0001    0.0003   -0.0003    0.0000   -0.0000   -0.0030
    79 C19    4px       -0.0000   -0.0002   -0.0000   -0.0000    0.0000    0.0000   -0.0000    0.0000    0.0001   -0.0001
    80 C19    2py        0.0002   -0.0000   -0.0000    0.0004   -0.0002    0.0002    0.0004   -0.0001   -0.0004    0.0045
    81 C19    3py        0.0001   -0.0002   -0.0001    0.0003   -0.0002    0.0000   -0.0001   -0.0001   -0.0000    0.0037
    82 C19    4py       -0.0000   -0.0001   -0.0000   -0.0001    0.0000   -0.0001   -0.0001   -0.0000    0.0003    0.0007
    83 C19    2pz       -0.0001    0.0001    0.0001   -0.0001    0.0001    0.0001   -0.0000   -0.0001   -0.0001    0.0003
    84 C19    3pz       -0.0001    0.0000    0.0001   -0.0001    0.0001    0.0000   -0.0002   -0.0001   -0.0000   -0.0003
    85 C19    4pz        0.0000   -0.0001    0.0000   -0.0000    0.0000   -0.0000   -0.0001    0.0000    0.0001   -0.0001
    86 C19    3d2-      -0.0000    0.0001   -0.0000   -0.0000   -0.0000    0.0000    0.0000   -0.0000   -0.0001   -0.0000
    87 C19    3d1-       0.0000    0.0000    0.0000    0.0000    0.0000    0.0000   -0.0000   -0.0000   -0.0001   -0.0001
    88 C19    3d0        0.0000   -0.0001   -0.0000   -0.0001   -0.0000   -0.0000    0.0001    0.0000    0.0001    0.0002
    89 C19    3d1+       0.0000    0.0000   -0.0000    0.0000    0.0000    0.0000   -0.0000    0.0000   -0.0000   -0.0001
    90 C19    3d2+      -0.0000    0.0001   -0.0000   -0.0000    0.0000   -0.0000   -0.0001    0.0000    0.0001   -0.0001
    91 N2     1s        -0.0000    0.0001   -0.0000    0.9998    0.0001    0.0002   -0.0003   -0.0000    0.0001   -0.0016
    92 N2     2s        -0.0001    0.0006    0.0002    0.0002    0.0004    0.0021   -0.0003   -0.0000    0.0004    0.0220
    93 N2     3s        -0.0000    0.0004    0.0002   -0.0013    0.0003    0.0013   -0.0004   -0.0000    0.0003   -0.0048
    94 N2     4s         0.0000    0.0001    0.0001    0.0005    0.0001    0.0004    0.0000    0.0000    0.0001   -0.0020
    95 N2     2px       -0.0001    0.0002    0.0001    0.0001   -0.0002    0.0000   -0.0001   -0.0002   -0.0003    0.0034
    96 N2     3px       -0.0002    0.0002    0.0001   -0.0000   -0.0003   -0.0002   -0.0000   -0.0004   -0.0002    0.0071
    97 N2     4px       -0.0000    0.0000   -0.0000   -0.0000   -0.0000    0.0000   -0.0002   -0.0001    0.0001    0.0014
    98 N2     2py       -0.0001   -0.0013    0.0001   -0.0005    0.0003    0.0009    0.0006    0.0000   -0.0002    0.0049
    99 N2     3py        0.0000   -0.0016    0.0001    0.0004    0.0003    0.0008    0.0006   -0.0000   -0.0002   -0.0036
   100 N2     4py        0.0000    0.0000   -0.0000    0.0006   -0.0000    0.0001   -0.0001   -0.0000    0.0001   -0.0015
   101 N2     2pz        0.0002   -0.0002   -0.0000   -0.0000    0.0000    0.0002    0.0000    0.0000   -0.0001    0.0003
   102 N2     3pz        0.0003   -0.0003   -0.0001    0.0001    0.0001    0.0001    0.0000    0.0000   -0.0001   -0.0026
   103 N2     4pz        0.0001   -0.0000   -0.0000    0.0001    0.0000   -0.0000   -0.0001    0.0000    0.0000   -0.0003
   104 N2     3d2-       0.0000    0.0001    0.0000   -0.0002    0.0000   -0.0000   -0.0001    0.0000   -0.0000   -0.0002
   105 N2     3d1-       0.0000    0.0000   -0.0000   -0.0001    0.0000    0.0000   -0.0001    0.0000    0.0000    0.0003
   106 N2     3d0       -0.0000   -0.0000    0.0000    0.0000   -0.0000    0.0000    0.0001   -0.0000   -0.0001   -0.0005
   107 N2     3d1+       0.0000    0.0000    0.0000   -0.0000   -0.0000   -0.0000   -0.0000    0.0000    0.0000    0.0005
   108 N2     3d2+       0.0000   -0.0001   -0.0000    0.0001   -0.0000   -0.0000    0.0001   -0.0000    0.0000   -0.0004
   109 N5     1s         0.0001   -0.0000    0.9998    0.0001   -0.0003   -0.0000    0.0000    0.0001    0.0000   -0.0177
   110 N5     2s         0.0006   -0.0004   -0.0003    0.0004   -0.0004   -0.0003    0.0001    0.0019    0.0001    0.1070
   111 N5     3s         0.0005   -0.0003   -0.0016    0.0003   -0.0004   -0.0001    0.0001    0.0012    0.0001   -0.0464
   112 N5     4s         0.0001   -0.0001    0.0004    0.0001    0.0000   -0.0000    0.0000    0.0004    0.0000   -0.0109
   113 N5     2px       -0.0003    0.0001   -0.0003    0.0002    0.0002    0.0000    0.0002   -0.0007   -0.0001    0.0322
   114 N5     3px       -0.0003    0.0003   -0.0002    0.0001    0.0000    0.0001    0.0003   -0.0005   -0.0001   -0.0158
   115 N5     4px       -0.0000    0.0001    0.0004   -0.0001    0.0002    0.0000    0.0000    0.0001   -0.0000    0.0052
   116 N5     2py       -0.0011    0.0005   -0.0006    0.0002   -0.0000   -0.0002    0.0003    0.0008    0.0001    0.0346
   117 N5     3py       -0.0013    0.0007   -0.0007    0.0002   -0.0002   -0.0002    0.0006    0.0010    0.0003    0.0163
   118 N5     4py       -0.0000    0.0001    0.0005    0.0000   -0.0001    0.0000    0.0001    0.0003    0.0001   -0.0030
   119 N5     2pz       -0.0010    0.0004   -0.0007    0.0000   -0.0000   -0.0002    0.0001    0.0007    0.0001    0.0188
   120 N5     3pz       -0.0013    0.0004   -0.0004    0.0001   -0.0002   -0.0003    0.0001    0.0008    0.0002    0.0253
   121 N5     4pz       -0.0000   -0.0000    0.0000    0.0000   -0.0002    0.0000    0.0000    0.0002    0.0000   -0.0042
   122 N5     3d2-      -0.0001    0.0000    0.0001   -0.0000    0.0000    0.0000    0.0000    0.0000    0.0000    0.0028
   123 N5     3d1-       0.0001   -0.0000   -0.0000   -0.0000   -0.0002    0.0000   -0.0000   -0.0000    0.0000   -0.0008
   124 N5     3d0        0.0000   -0.0000    0.0000   -0.0000   -0.0000   -0.0000   -0.0000    0.0000   -0.0000   -0.0032
   125 N5     3d1+      -0.0000    0.0000    0.0001   -0.0000    0.0000    0.0000    0.0000    0.0001    0.0000   -0.0006
   126 N5     3d2+      -0.0000    0.0000    0.0001    0.0000    0.0000    0.0000    0.0000   -0.0000    0.0000    0.0043
   127 O7     1s         0.0000    0.9997   -0.0000    0.0000    0.0000   -0.0000   -0.0002    0.0000    0.0001   -0.0013
   128 O7     2s         0.0001   -0.0015   -0.0003    0.0002    0.0000   -0.0002    0.0005    0.0001    0.0004    0.0270
   129 O7     3s         0.0000   -0.0015   -0.0002    0.0001    0.0000   -0.0001    0.0000    0.0001    0.0003   -0.0023
   130 O7     4s        -0.0000    0.0001   -0.0001    0.0000    0.0000    0.0000    0.0000    0.0000    0.0001   -0.0009
   131 O7     2px        0.0000    0.0001   -0.0001   -0.0003    0.0000   -0.0000    0.0005    0.0001    0.0001    0.0040
   132 O7     3px        0.0000   -0.0004   -0.0001   -0.0004    0.0000    0.0001   -0.0000    0.0001    0.0002   -0.0029
   133 O7     4px       -0.0000    0.0010    0.0000   -0.0001   -0.0000    0.0001    0.0001    0.0000   -0.0000   -0.0004
   134 O7     2py       -0.0000   -0.0002   -0.0002   -0.0003   -0.0000    0.0001   -0.0006    0.0000   -0.0002   -0.0029
   135 O7     3py        0.0000    0.0004   -0.0002   -0.0002    0.0000    0.0001   -0.0004    0.0001   -0.0001    0.0009
   136 O7     4py        0.0000   -0.0009   -0.0000    0.0000    0.0000    0.0000   -0.0003    0.0000    0.0000   -0.0002
   137 O7     2pz       -0.0000   -0.0000   -0.0002   -0.0001    0.0000    0.0000   -0.0000    0.0000    0.0000    0.0028
   138 O7     3pz       -0.0001   -0.0001   -0.0002   -0.0001    0.0000    0.0001   -0.0000    0.0000    0.0000    0.0002
   139 O7     4pz       -0.0000    0.0001    0.0000   -0.0000    0.0000    0.0000    0.0000   -0.0000    0.0000   -0.0001
   140 O7     3d2-       0.0000    0.0001   -0.0000   -0.0000   -0.0000    0.0000   -0.0002   -0.0000   -0.0000   -0.0007
   141 O7     3d1-       0.0000   -0.0000   -0.0000    0.0000   -0.0000    0.0000   -0.0000    0.0000    0.0000    0.0001
   142 O7     3d0       -0.0000    0.0000   -0.0000   -0.0000    0.0000    0.0000   -0.0001   -0.0000   -0.0000   -0.0004
   143 O7     3d1+       0.0000    0.0000   -0.0000   -0.0000   -0.0000    0.0000   -0.0000    0.0000    0.0000    0.0002
   144 O7     3d2+       0.0000   -0.0000    0.0000   -0.0001    0.0000   -0.0000    0.0000    0.0000   -0.0000   -0.0000
   145 O8     1s         0.9997    0.0000    0.0000   -0.0000   -0.0003    0.0001    0.0000   -0.0000    0.0000   -0.0240
   146 O8     2s        -0.0012    0.0002    0.0001   -0.0001    0.0004    0.0005    0.0001   -0.0002    0.0001    0.6907
   147 O8     3s        -0.0012    0.0002    0.0001   -0.0001   -0.0000    0.0004    0.0000   -0.0001    0.0001   -0.0348
   148 O8     4s         0.0001    0.0000    0.0000   -0.0000    0.0000    0.0001    0.0000   -0.0000    0.0000   -0.0143
   149 O8     2px       -0.0003   -0.0000    0.0003    0.0000   -0.0005   -0.0002   -0.0001    0.0001   -0.0000   -0.1053
   150 O8     3px        0.0003    0.0000    0.0004    0.0000   -0.0001   -0.0002   -0.0001    0.0000   -0.0000    0.0336
   151 O8     4px       -0.0010    0.0000    0.0001   -0.0000   -0.0002    0.0000   -0.0000   -0.0000    0.0000    0.0018
   152 O8     2py       -0.0002   -0.0000   -0.0001   -0.0001   -0.0005   -0.0002   -0.0000    0.0000   -0.0000   -0.0938
   153 O8     3py        0.0003    0.0000   -0.0001   -0.0002   -0.0002   -0.0001   -0.0001    0.0000   -0.0000    0.0279
   154 O8     4py       -0.0009    0.0000    0.0001   -0.0001   -0.0002    0.0000   -0.0000   -0.0000    0.0000   -0.0001
   155 O8     2pz       -0.0001   -0.0001   -0.0002   -0.0000   -0.0001   -0.0001   -0.0000   -0.0000   -0.0000   -0.0422
   156 O8     3pz        0.0002   -0.0001   -0.0001   -0.0000   -0.0001   -0.0001    0.0000   -0.0000   -0.0000    0.0133
   157 O8     4pz       -0.0004   -0.0000    0.0000   -0.0000   -0.0001    0.0000    0.0000   -0.0000    0.0000   -0.0006
   158 O8     3d2-      -0.0001    0.0000   -0.0000   -0.0000    0.0002    0.0000    0.0000   -0.0000    0.0000    0.0172
   159 O8     3d1-       0.0000   -0.0000    0.0001   -0.0000    0.0000    0.0001   -0.0000    0.0000   -0.0000    0.0069
   160 O8     3d0       -0.0000   -0.0000    0.0000   -0.0000   -0.0001   -0.0000   -0.0000    0.0000   -0.0000   -0.0079
   161 O8     3d1+      -0.0000    0.0000   -0.0000   -0.0000    0.0001    0.0000    0.0000   -0.0000    0.0000    0.0082
   162 O8     3d2+       0.0000    0.0000   -0.0000   -0.0000    0.0000   -0.0000    0.0000   -0.0000    0.0000    0.0020
   163 H9     1s        -0.0001    0.0001    0.0001    0.0000   -0.0000   -0.0002   -0.0000   -0.0001    0.0003    0.0053
   164 H9     2s        -0.0001    0.0001    0.0001   -0.0000   -0.0000   -0.0002   -0.0000   -0.0001   -0.0003    0.0035
   165 H9     2px       -0.0000   -0.0000    0.0000    0.0000   -0.0000   -0.0000    0.0000   -0.0000   -0.0000    0.0004
   166 H9     2py       -0.0000   -0.0001   -0.0000   -0.0000   -0.0000   -0.0000    0.0001    0.0000    0.0000    0.0002
   167 H9     2pz       -0.0000    0.0000    0.0000   -0.0000   -0.0000   -0.0000    0.0001   -0.0000   -0.0001    0.0005
   168 H10    1s         0.0002    0.0001    0.0001    0.0001   -0.0001   -0.0003   -0.0000    0.0000    0.0003    0.0047
   169 H10    2s         0.0001    0.0000    0.0000    0.0001   -0.0001   -0.0002    0.0000   -0.0000   -0.0003    0.0032
   170 H10    2px        0.0000   -0.0000   -0.0000    0.0000   -0.0000   -0.0000    0.0000   -0.0000   -0.0001    0.0005
   171 H10    2py        0.0000   -0.0001    0.0000   -0.0000    0.0000   -0.0000    0.0001   -0.0000    0.0000    0.0003
   172 H10    2pz       -0.0000   -0.0000   -0.0000    0.0000    0.0000    0.0000   -0.0000    0.0000    0.0001   -0.0002
   173 H11    1s         0.0000   -0.0004   -0.0001    0.0003   -0.0002   -0.0002    0.0002   -0.0000    0.0002    0.0067
   174 H11    2s         0.0000   -0.0002   -0.0001    0.0003   -0.0001   -0.0001    0.0001   -0.0000   -0.0003    0.0043
   175 H11    2px       -0.0000   -0.0000    0.0000   -0.0000    0.0000    0.0000   -0.0000    0.0000    0.0001   -0.0006
   176 H11    2py        0.0000   -0.0000   -0.0000   -0.0000   -0.0000    0.0000    0.0001   -0.0000   -0.0001    0.0004
   177 H11    2pz        0.0000   -0.0000   -0.0000   -0.0000   -0.0000    0.0000    0.0000    0.0000    0.0000    0.0000
   178 H12    1s        -0.0000   -0.0009    0.0001   -0.0003    0.0002    0.0001    0.0006    0.0000   -0.0002    0.0023
   179 H12    2s        -0.0000   -0.0005    0.0000   -0.0002    0.0001    0.0001    0.0003    0.0000   -0.0001   -0.0020
   180 H12    2px       -0.0000    0.0000   -0.0000    0.0003   -0.0000    0.0000   -0.0002    0.0000   -0.0000   -0.0003
   181 H12    2py       -0.0000   -0.0000    0.0000   -0.0004   -0.0000    0.0000    0.0000   -0.0000   -0.0000    0.0010
   182 H12    2pz       -0.0000    0.0000    0.0000   -0.0000    0.0000   -0.0000   -0.0000   -0.0000   -0.0000    0.0002
   183 H13    1s         0.0001   -0.0001    0.0001   -0.0006   -0.0001    0.0007   -0.0005   -0.0002   -0.0001    0.0145
   184 H13    2s         0.0001   -0.0001    0.0001   -0.0003   -0.0001    0.0000   -0.0004   -0.0001   -0.0000   -0.0008
   185 H13    2px       -0.0000    0.0000   -0.0000    0.0000   -0.0000   -0.0000    0.0000    0.0000   -0.0000   -0.0012
   186 H13    2py       -0.0000    0.0000   -0.0000    0.0000    0.0000   -0.0000   -0.0001   -0.0000   -0.0000    0.0017
   187 H13    2pz       -0.0000   -0.0000    0.0000   -0.0000    0.0000   -0.0000    0.0000    0.0000    0.0000    0.0001
   188 H14    1s        -0.0004    0.0003    0.0001   -0.0005   -0.0002    0.0008   -0.0005   -0.0002    0.0000    0.0295
   189 H14    2s        -0.0003    0.0002    0.0001   -0.0003   -0.0001    0.0000   -0.0003   -0.0002    0.0000    0.0115
   190 H14    2px        0.0000   -0.0000   -0.0000    0.0000   -0.0000   -0.0000    0.0000    0.0000   -0.0000   -0.0012
   191 H14    2py       -0.0000   -0.0000   -0.0000    0.0001    0.0001   -0.0000    0.0001    0.0000    0.0000    0.0001
   192 H14    2pz       -0.0001    0.0000   -0.0000    0.0000    0.0000    0.0000   -0.0001   -0.0000    0.0000    0.0027
   193 H15    1s        -0.0009    0.0008   -0.0002    0.0003    0.0001   -0.0004    0.0003   -0.0006   -0.0001    0.0340
   194 H15    2s        -0.0005    0.0006   -0.0001    0.0002   -0.0001   -0.0002    0.0002   -0.0003   -0.0001   -0.0025
   195 H15    2px       -0.0000    0.0000   -0.0002    0.0000    0.0002   -0.0000    0.0000   -0.0001   -0.0000    0.0039
   196 H15    2py        0.0000   -0.0001   -0.0002    0.0000   -0.0000   -0.0000   -0.0001   -0.0000   -0.0000    0.0028
   197 H15    2pz       -0.0001   -0.0002   -0.0003    0.0000   -0.0000   -0.0000   -0.0001   -0.0000   -0.0000    0.0032
   198 H16    1s        -0.0002    0.0002   -0.0004   -0.0000   -0.0002    0.0000   -0.0001    0.0010    0.0000    0.0139
   199 H16    2s        -0.0000    0.0001   -0.0002   -0.0000   -0.0001    0.0000   -0.0001    0.0001    0.0000   -0.0012
   200 H16    2px       -0.0000   -0.0000    0.0000    0.0000    0.0000    0.0000   -0.0000   -0.0001   -0.0000   -0.0001
   201 H16    2py        0.0000   -0.0000    0.0000    0.0000    0.0000   -0.0000    0.0000   -0.0001    0.0000   -0.0010
   202 H16    2pz       -0.0000   -0.0000    0.0000   -0.0000    0.0000   -0.0000   -0.0000   -0.0001   -0.0000   -0.0009
   203 H17    1s         0.0006   -0.0002   -0.0007    0.0001   -0.0004    0.0001   -0.0000    0.0006   -0.0000    0.0056
   204 H17    2s         0.0004   -0.0001   -0.0003    0.0000   -0.0003    0.0001   -0.0000   -0.0001   -0.0000   -0.0009
   205 H17    2px        0.0000    0.0000   -0.0001    0.0000   -0.0001    0.0000    0.0000    0.0000    0.0000    0.0005
   206 H17    2py       -0.0000    0.0000    0.0000    0.0000    0.0001   -0.0000    0.0000   -0.0000    0.0000   -0.0008
   207 H17    2pz        0.0000   -0.0000    0.0000    0.0000   -0.0000    0.0000   -0.0000   -0.0000    0.0000    0.0000
   208 H18    1s         0.0000   -0.0001   -0.0005   -0.0002   -0.0002   -0.0001   -0.0003    0.0006   -0.0001    0.0108
   209 H18    2s         0.0000   -0.0001   -0.0002   -0.0001   -0.0002   -0.0000   -0.0002   -0.0001   -0.0001    0.0026
   210 H18    2px       -0.0000    0.0000   -0.0000   -0.0000   -0.0000   -0.0000   -0.0000    0.0000   -0.0000    0.0009
   211 H18    2py        0.0000   -0.0000   -0.0000   -0.0000   -0.0000    0.0000   -0.0000   -0.0000   -0.0000    0.0002
   212 H18    2pz       -0.0000    0.0000    0.0000    0.0000    0.0000   -0.0000    0.0000   -0.0000    0.0000   -0.0009
 
 
      Orbital                11        12        13        14        15        16        17        18        19        20
      Energy            -1.3660   -1.2490   -1.2240   -1.0169   -0.9670   -0.9310   -0.8131   -0.7783   -0.7146   -0.6923
      Occ. No.           2.0000    2.0000    2.0000    2.0000    2.0000    2.0000    2.0000    2.0000    2.0000    2.0000
 
     1 C1     1s        -0.0392    0.0053   -0.0077   -0.0138    0.0076    0.0024    0.0107   -0.0110   -0.0036    0.0079
     2 C1     2s         0.3527   -0.0003    0.1160    0.2236   -0.1454   -0.0078   -0.2359    0.2983    0.0896   -0.2090
     3 C1     3s        -0.0062    0.0168    0.0003   -0.0121    0.0075    0.0020    0.0049    0.0024   -0.0085    0.0120
     4 C1     4s         0.0023    0.0044    0.0002   -0.0044    0.0014    0.0018    0.0032   -0.0011   -0.0024    0.0053
     5 C1     2px       -0.0496    0.0393    0.1470    0.0466    0.0444   -0.0895   -0.0863    0.1297   -0.0641    0.0898
     6 C1     3px        0.0317   -0.0023   -0.0408   -0.0505    0.0236    0.0503   -0.0065   -0.0397    0.0204   -0.0403
     7 C1     4px       -0.0173    0.0084    0.0290   -0.0015    0.0092   -0.0076   -0.0094    0.0075   -0.0057    0.0043
     8 C1     2py        0.0818    0.0103   -0.0206   -0.1139    0.1115   -0.0465   -0.0185    0.0460    0.0776    0.0636
     9 C1     3py       -0.0579    0.0410    0.0373   -0.0161   -0.0333    0.0528    0.0326    0.0106   -0.0369   -0.0116
    10 C1     4py        0.0208    0.0046   -0.0045   -0.0216    0.0160   -0.0015    0.0017    0.0074    0.0013   -0.0009
    11 C1     2pz        0.0059    0.0082    0.0185   -0.0159    0.0250   -0.0312   -0.0150    0.0372   -0.0105    0.0345
    12 C1     3pz       -0.0068    0.0060   -0.0047   -0.0110   -0.0064    0.0100    0.0114   -0.0031   -0.0070   -0.0073
    13 C1     4pz        0.0009    0.0032    0.0032   -0.0045    0.0039   -0.0038    0.0018    0.0038   -0.0051    0.0026
    14 C1     3d2-      -0.0319    0.0080    0.0196    0.0062   -0.0067    0.0020   -0.0003    0.0152    0.0085    0.0135
    15 C1     3d1-       0.0030    0.0001    0.0013    0.0031   -0.0049    0.0020   -0.0011    0.0061    0.0030    0.0000
    16 C1     3d0       -0.0265    0.0024   -0.0042   -0.0088    0.0038    0.0021    0.0089   -0.0083   -0.0030    0.0061
    17 C1     3d1+       0.0029    0.0016    0.0087    0.0053   -0.0011   -0.0039   -0.0057    0.0067   -0.0002    0.0025
    18 C1     3d2+       0.0023    0.0030    0.0205    0.0057    0.0096   -0.0164   -0.0083    0.0061   -0.0045    0.0050
    19 C3     1s        -0.0085   -0.0099   -0.0324    0.0420   -0.0004   -0.0284   -0.0029   -0.0026   -0.0041    0.0068
    20 C3     2s         0.0249    0.0468    0.1659   -0.3328   -0.0009    0.3368    0.0509    0.1058    0.0950   -0.0520
    21 C3     3s        -0.0141   -0.0165   -0.0609    0.0787   -0.0013   -0.0363   -0.0014    0.0003   -0.0015    0.0210
    22 C3     4s        -0.0013   -0.0007   -0.0132    0.0192   -0.0011   -0.0085   -0.0007   -0.0018   -0.0012    0.0058
    23 C3     2px       -0.0269   -0.0355   -0.0528   -0.0029    0.0219    0.0548    0.0471   -0.0197   -0.0550   -0.2479
    24 C3     3px       -0.0092    0.0058    0.0110   -0.0270    0.0239    0.0047   -0.0062    0.0005    0.0119    0.0282
    25 C3     4px       -0.0025    0.0071    0.0053   -0.0174    0.0068    0.0169    0.0024    0.0025   -0.0006   -0.0078
    26 C3     2py       -0.0233   -0.0073   -0.0999   -0.0284   -0.0326    0.0284   -0.1499    0.1674   -0.1658   -0.0242
    27 C3     3py       -0.0083    0.0121   -0.0137    0.0031    0.0634   -0.0186   -0.0065   -0.0100    0.0431    0.0200
    28 C3     4py       -0.0067    0.0079   -0.0117   -0.0088    0.0030    0.0042   -0.0109    0.0081    0.0021    0.0016
    29 C3     2pz       -0.0109    0.0163   -0.0223   -0.0336   -0.0245    0.0150   -0.0685    0.0166   -0.1859    0.0392
    30 C3     3pz       -0.0089    0.0116   -0.0074    0.0044    0.0286   -0.0019    0.0038   -0.0001    0.0243   -0.0011
    31 C3     4pz       -0.0035    0.0028   -0.0067    0.0019    0.0015   -0.0063   -0.0051   -0.0036   -0.0044    0.0020
    32 C3     3d2-       0.0040   -0.0000    0.0173    0.0049    0.0113   -0.0056    0.0087   -0.0034    0.0215    0.0127
    33 C3     3d1-       0.0019    0.0019    0.0090   -0.0086   -0.0027    0.0022   -0.0051    0.0007   -0.0109    0.0132
    34 C3     3d0       -0.0019   -0.0022   -0.0088    0.0017   -0.0050    0.0010   -0.0073    0.0080   -0.0070   -0.0067
    35 C3     3d1+       0.0003   -0.0033    0.0037    0.0030    0.0062    0.0008    0.0075   -0.0031    0.0060   -0.0072
    36 C3     3d2+      -0.0008    0.0002   -0.0094    0.0050   -0.0026   -0.0024   -0.0044    0.0106    0.0058   -0.0042
    37 C4     1s         0.0028   -0.0086    0.0054    0.0108    0.0103    0.0037    0.0171    0.0046    0.0056   -0.0009
    38 C4     2s         0.0057    0.1582    0.0306   -0.2225   -0.2177    0.0270   -0.3440   -0.1128   -0.2176    0.0798
    39 C4     3s         0.0088    0.0072    0.0217    0.0089    0.0017    0.0113    0.0270   -0.0009    0.0079    0.0088
    40 C4     4s         0.0027    0.0030    0.0058    0.0042    0.0016    0.0029    0.0087   -0.0013    0.0034    0.0005
    41 C4     2px       -0.0062   -0.1764    0.0394    0.0113    0.0448    0.0912    0.0530    0.1118   -0.2002   -0.1315
    42 C4     3px        0.0161    0.0210    0.0039   -0.0094   -0.0721   -0.0501    0.0015   -0.0449    0.0686    0.0130
    43 C4     4px       -0.0003   -0.0364    0.0091   -0.0009   -0.0013    0.0044    0.0070    0.0044   -0.0119   -0.0126
    44 C4     2py       -0.0092   -0.0206   -0.0351    0.1177    0.0693   -0.0356   -0.0079   -0.0900    0.0289   -0.0910
    45 C4     3py        0.0059    0.0466   -0.0095   -0.0112    0.0293    0.0556   -0.0148    0.0381   -0.0150    0.0348
    46 C4     4py       -0.0039   -0.0022   -0.0061    0.0109    0.0120    0.0025   -0.0035   -0.0030   -0.0043   -0.0022
    47 C4     2pz       -0.0078    0.0277   -0.0354    0.0840    0.0468   -0.0506   -0.0367   -0.1141    0.0762   -0.0299
    48 C4     3pz       -0.0023    0.0324   -0.0080   -0.0075    0.0493    0.0583   -0.0174    0.0455   -0.0213    0.0297
    49 C4     4pz       -0.0032    0.0095   -0.0061    0.0080    0.0098    0.0025   -0.0064   -0.0041    0.0018    0.0023
    50 C4     3d2-      -0.0026   -0.0148    0.0001    0.0066   -0.0007   -0.0099    0.0049    0.0008   -0.0112    0.0062
    51 C4     3d1-      -0.0007   -0.0031    0.0037   -0.0100   -0.0018    0.0095   -0.0107    0.0024   -0.0073    0.0003
    52 C4     3d0        0.0005   -0.0054    0.0022    0.0006    0.0060    0.0081    0.0001    0.0060    0.0047   -0.0024
    53 C4     3d1+      -0.0014   -0.0194    0.0032    0.0083    0.0074   -0.0027    0.0123    0.0063   -0.0116    0.0045
    54 C4     3d2+       0.0007    0.0203   -0.0069   -0.0011   -0.0125   -0.0136   -0.0040   -0.0090    0.0057    0.0007
    55 C6     1s         0.0013   -0.0326    0.0113   -0.0256   -0.0383   -0.0308    0.0083   -0.0025    0.0064   -0.0078
    56 C6     2s         0.0215    0.1548   -0.0249    0.1999    0.3123    0.2952   -0.1222   -0.0062   -0.0293    0.0746
    57 C6     3s         0.0120   -0.0524    0.0306   -0.0383   -0.0659   -0.0450    0.0179   -0.0088    0.0179   -0.0240
    58 C6     4s         0.0037   -0.0075    0.0074   -0.0078   -0.0148   -0.0089    0.0060   -0.0019    0.0035   -0.0072
    59 C6     2px        0.0067    0.0383   -0.0082    0.0132   -0.0117   -0.0178   -0.0508   -0.0962    0.1522   -0.0992
    60 C6     3px        0.0058   -0.0117    0.0073   -0.0047   -0.0147   -0.0035   -0.0010    0.0057   -0.0134    0.0131
    61 C6     4px        0.0003   -0.0013    0.0025   -0.0051   -0.0096   -0.0059   -0.0019   -0.0073    0.0066   -0.0063
    62 C6     2py       -0.0047   -0.0788    0.0144   -0.0218   -0.0099    0.0116   -0.0973   -0.0294   -0.0300    0.2206
    63 C6     3py       -0.0012    0.0072   -0.0083    0.0089    0.0028   -0.0073    0.0042    0.0035    0.0118   -0.0329
    64 C6     4py       -0.0003   -0.0013   -0.0007    0.0064    0.0112    0.0095   -0.0089   -0.0024   -0.0009    0.0098
    65 C6     2pz       -0.0082   -0.0636    0.0094   -0.0160    0.0113    0.0230   -0.0825   -0.0210   -0.0311    0.1578
    66 C6     3pz       -0.0048    0.0107   -0.0105    0.0089    0.0172    0.0029   -0.0045   -0.0047    0.0076   -0.0236
    67 C6     4pz        0.0001   -0.0013   -0.0006    0.0065    0.0102    0.0092   -0.0068   -0.0013   -0.0013    0.0073
    68 C6     3d2-      -0.0007   -0.0108    0.0025   -0.0022    0.0011    0.0027   -0.0015    0.0036   -0.0072    0.0138
    69 C6     3d1-       0.0008    0.0177   -0.0048    0.0063    0.0033   -0.0020    0.0105   -0.0002    0.0111   -0.0256
    70 C6     3d0        0.0002    0.0025   -0.0004   -0.0004   -0.0008   -0.0010    0.0042    0.0030   -0.0030   -0.0010
    71 C6     3d1+      -0.0002   -0.0091    0.0023   -0.0020   -0.0002    0.0020   -0.0025    0.0021   -0.0043    0.0132
    72 C6     3d2+      -0.0004   -0.0078    0.0018   -0.0022   -0.0016    0.0004   -0.0122   -0.0080    0.0033    0.0119
    73 C19    1s        -0.0155    0.0004   -0.0096   -0.0369    0.0517   -0.0363   -0.0143    0.0079   -0.0013   -0.0083
    74 C19    2s        -0.0106   -0.0010   -0.0007    0.1782   -0.3051    0.2492    0.0890   -0.0496    0.0269    0.0752
    75 C19    3s        -0.0420    0.0062   -0.0284   -0.0766    0.0993   -0.0633   -0.0312    0.0221   -0.0040   -0.0139
    76 C19    4s        -0.0042    0.0033   -0.0040   -0.0163    0.0217   -0.0137   -0.0075    0.0067   -0.0021   -0.0036
    77 C19    2px       -0.0096    0.0067    0.0210    0.0416   -0.0224   -0.0130   -0.0216    0.0381   -0.0589   -0.0287
    78 C19    3px       -0.0045    0.0023   -0.0030    0.0102   -0.0027   -0.0048    0.0078    0.0022    0.0037    0.0079
    79 C19    4px        0.0068   -0.0007   -0.0003   -0.0016    0.0087   -0.0099   -0.0020   -0.0001   -0.0051   -0.0033
    80 C19    2py        0.0204    0.0040    0.0100    0.0349   -0.0247    0.0023   -0.0596    0.0524    0.0032   -0.1718
    81 C19    3py       -0.0085    0.0072   -0.0041   -0.0210    0.0253   -0.0111    0.0051   -0.0079   -0.0070    0.0215
    82 C19    4py        0.0059    0.0002    0.0004   -0.0071    0.0150   -0.0135   -0.0097    0.0090    0.0010   -0.0074
    83 C19    2pz        0.0032    0.0029    0.0078    0.0159   -0.0044    0.0020   -0.0181    0.0162   -0.0153   -0.0377
    84 C19    3pz       -0.0012    0.0033    0.0015   -0.0004    0.0094    0.0009   -0.0002   -0.0026   -0.0001    0.0057
    85 C19    4pz        0.0027    0.0004    0.0006   -0.0020    0.0047   -0.0040   -0.0023    0.0023   -0.0008   -0.0021
    86 C19    3d2-      -0.0005    0.0007    0.0061    0.0067   -0.0041   -0.0010   -0.0049    0.0055    0.0003   -0.0083
    87 C19    3d1-       0.0008    0.0001    0.0012    0.0044   -0.0040    0.0015   -0.0023    0.0027   -0.0014   -0.0059
    88 C19    3d0        0.0012   -0.0000   -0.0003   -0.0052    0.0053   -0.0021    0.0020   -0.0023    0.0038    0.0053
    89 C19    3d1+      -0.0016    0.0005    0.0014    0.0019   -0.0016   -0.0002   -0.0007    0.0015   -0.0011   -0.0015
    90 C19    3d2+      -0.0065    0.0010    0.0009   -0.0060    0.0066   -0.0037    0.0039   -0.0031   -0.0015    0.0125
    91 N2     1s        -0.0196   -0.0066   -0.0399   -0.0057   -0.0013    0.0021   -0.0018    0.0036    0.0020    0.0037
    92 N2     2s         0.1387    0.0912    0.5737    0.0850    0.1554   -0.1971    0.0376   -0.1036    0.0013    0.1232
    93 N2     3s        -0.0493   -0.0125   -0.0718   -0.0056    0.0078   -0.0110   -0.0028    0.0064    0.0040    0.0187
    94 N2     4s        -0.0121   -0.0043   -0.0245   -0.0007   -0.0008   -0.0006   -0.0014    0.0027    0.0002    0.0022
    95 N2     2px       -0.0304    0.0121   -0.0158   -0.1095    0.0733    0.0816    0.2058   -0.3467   -0.0046   -0.0467
    96 N2     3px        0.0186    0.0124   -0.0062    0.0373    0.0270   -0.0433   -0.0789    0.0816   -0.0002    0.0091
    97 N2     4px       -0.0057    0.0037    0.0017   -0.0032    0.0101   -0.0039   -0.0024   -0.0027   -0.0040    0.0011
    98 N2     2py        0.0237   -0.0070   -0.0235   -0.1187    0.0368    0.0693   -0.0044    0.1141    0.3325    0.1660
    99 N2     3py        0.0064   -0.0246   -0.0490    0.0480    0.0124   -0.0541   -0.0272   -0.0289   -0.0636   -0.0379
   100 N2     4py       -0.0083   -0.0025   -0.0143   -0.0014    0.0016   -0.0040   -0.0079    0.0051   -0.0018   -0.0024
   101 N2     2pz       -0.0001   -0.0004   -0.0099   -0.0511    0.0108    0.0283    0.0217   -0.0472    0.0072    0.0439
   102 N2     3pz        0.0058   -0.0052   -0.0065    0.0086    0.0015   -0.0136   -0.0180    0.0121    0.0009   -0.0116
   103 N2     4pz       -0.0025    0.0001   -0.0014   -0.0023    0.0006   -0.0006   -0.0014    0.0004    0.0006   -0.0018
   104 N2     3d2-      -0.0013    0.0016    0.0088   -0.0025   -0.0024    0.0073    0.0008    0.0076    0.0146    0.0035
   105 N2     3d1-      -0.0004    0.0010    0.0051   -0.0019   -0.0002    0.0012    0.0012   -0.0008    0.0003    0.0034
   106 N2     3d0       -0.0032   -0.0023   -0.0146   -0.0007   -0.0034    0.0029   -0.0008    0.0011   -0.0007   -0.0002
   107 N2     3d1+       0.0016    0.0008    0.0072    0.0014    0.0000   -0.0015   -0.0029    0.0038    0.0005    0.0006
   108 N2     3d2+       0.0054    0.0002    0.0043    0.0088    0.0001   -0.0077   -0.0108    0.0154   -0.0004   -0.0041
   109 N5     1s        -0.0030   -0.0405    0.0072   -0.0013    0.0009   -0.0006    0.0004    0.0020    0.0011   -0.0019
   110 N5     2s         0.0298    0.5773   -0.1445    0.0212   -0.1100   -0.1947    0.2150    0.0560    0.0885   -0.1566
   111 N5     3s        -0.0061   -0.0768    0.0107   -0.0086   -0.0132   -0.0206    0.0105    0.0069    0.0085   -0.0134
   112 N5     4s        -0.0015   -0.0255    0.0048   -0.0036   -0.0033   -0.0027   -0.0002    0.0009   -0.0000   -0.0009
   113 N5     2px       -0.0006    0.0317    0.0106   -0.0734   -0.1309   -0.0568   -0.3097   -0.2862    0.1859    0.1289
   114 N5     3px        0.0065   -0.0127    0.0171    0.0161    0.0282    0.0333    0.0803    0.0464   -0.0317   -0.0342
   115 N5     4px        0.0009   -0.0034    0.0046   -0.0067   -0.0039    0.0017    0.0008    0.0002   -0.0031   -0.0041
   116 N5     2py       -0.0181    0.0104   -0.0189    0.0692    0.0828    0.0603   -0.1001   -0.1321    0.1243   -0.2022
   117 N5     3py       -0.0190   -0.0392   -0.0086   -0.0435   -0.0531   -0.0555    0.0248    0.0150   -0.0332    0.0315
   118 N5     4py       -0.0036   -0.0059   -0.0031   -0.0049   -0.0040   -0.0072   -0.0003    0.0006   -0.0024    0.0032
   119 N5     2pz       -0.0135   -0.0292   -0.0066    0.0741    0.0971    0.0832   -0.0557   -0.0639    0.0907   -0.2143
   120 N5     3pz       -0.0079   -0.0178   -0.0104   -0.0346   -0.0605   -0.0536    0.0196    0.0164   -0.0299    0.0371
   121 N5     4pz       -0.0011   -0.0050   -0.0031   -0.0009   -0.0036   -0.0059    0.0001    0.0020   -0.0019    0.0037
   122 N5     3d2-      -0.0001   -0.0029   -0.0006   -0.0011   -0.0041   -0.0073    0.0027   -0.0015   -0.0009    0.0043
   123 N5     3d1-       0.0013    0.0125   -0.0031    0.0041    0.0057    0.0021    0.0086    0.0063   -0.0000   -0.0074
   124 N5     3d0        0.0003   -0.0052    0.0013    0.0003    0.0026    0.0029    0.0057    0.0065   -0.0035   -0.0010
   125 N5     3d1+       0.0001   -0.0093    0.0010    0.0010    0.0016   -0.0024    0.0123    0.0082   -0.0072    0.0000
   126 N5     3d2+       0.0003    0.0094   -0.0020   -0.0062   -0.0114   -0.0092   -0.0081   -0.0073    0.0013    0.0112
   127 O7     1s        -0.0224    0.0020    0.0030   -0.0028    0.0031   -0.0013    0.0060   -0.0087   -0.0089    0.0097
   128 O7     2s         0.6852   -0.1180   -0.3159   -0.1700    0.1429   -0.0117    0.1463   -0.2621   -0.1778    0.1633
   129 O7     3s        -0.0243   -0.0021   -0.0122   -0.0175    0.0160   -0.0079    0.0200   -0.0318   -0.0286    0.0297
   130 O7     4s        -0.0123   -0.0004   -0.0005   -0.0033    0.0028   -0.0027    0.0032   -0.0064   -0.0057    0.0058
   131 O7     2px        0.1037   -0.0107   -0.0116    0.0049    0.0108   -0.0345   -0.0901    0.1387    0.1279   -0.0797
   132 O7     3px       -0.0288   -0.0010   -0.0004   -0.0077    0.0046   -0.0044    0.0107   -0.0162   -0.0127    0.0066
   133 O7     4px       -0.0030   -0.0015    0.0006   -0.0009   -0.0006    0.0003   -0.0003   -0.0033   -0.0001   -0.0002
   134 O7     2py       -0.0928    0.0267    0.0372   -0.0159    0.0237   -0.0490    0.0909   -0.0269   -0.1555    0.1900
   135 O7     3py        0.0306   -0.0009   -0.0041    0.0085   -0.0102   -0.0067   -0.0074    0.0116    0.0122   -0.0207
   136 O7     4py       -0.0001    0.0009   -0.0023   -0.0002   -0.0010   -0.0007    0.0006    0.0018    0.0024   -0.0036
   137 O7     2pz        0.0063    0.0091   -0.0019   -0.0110    0.0037   -0.0208    0.0248    0.0363   -0.0286    0.0308
   138 O7     3pz       -0.0008    0.0011   -0.0033   -0.0022   -0.0021   -0.0052    0.0026   -0.0009    0.0002   -0.0056
   139 O7     4pz       -0.0025   -0.0003   -0.0002   -0.0003   -0.0008   -0.0006   -0.0002   -0.0003    0.0015   -0.0020
   140 O7     3d2-      -0.0177    0.0029    0.0052    0.0003   -0.0008   -0.0004    0.0066   -0.0050   -0.0096    0.0092
   141 O7     3d1-       0.0011    0.0005   -0.0018   -0.0006   -0.0003    0.0002    0.0024   -0.0009   -0.0009    0.0002
   142 O7     3d0       -0.0097    0.0020    0.0038    0.0011   -0.0008   -0.0010    0.0036   -0.0017   -0.0058    0.0048
   143 O7     3d1+       0.0007    0.0007   -0.0005   -0.0008    0.0007   -0.0015    0.0012    0.0021   -0.0012    0.0018
   144 O7     3d2+      -0.0002    0.0005    0.0034   -0.0003    0.0033   -0.0049   -0.0027    0.0053    0.0000    0.0048
   145 O8     1s         0.0010    0.0023   -0.0002    0.0026    0.0033   -0.0020    0.0136    0.0054    0.0164    0.0070
   146 O8     2s        -0.0664   -0.3075    0.0022    0.1708    0.1265   -0.0746    0.3367    0.1245    0.2780    0.1262
   147 O8     3s        -0.0012   -0.0106   -0.0002    0.0133    0.0123   -0.0093    0.0436    0.0159    0.0472    0.0204
   148 O8     4s         0.0002   -0.0006    0.0001    0.0022    0.0017   -0.0023    0.0084    0.0029    0.0098    0.0046
   149 O8     2px        0.0092    0.0113    0.0081    0.0028    0.0271    0.0194    0.1664    0.1262    0.1607    0.1100
   150 O8     3px       -0.0004    0.0041    0.0008   -0.0023   -0.0064    0.0017   -0.0240   -0.0158   -0.0166   -0.0076
   151 O8     4px        0.0001    0.0004   -0.0001    0.0002   -0.0017   -0.0006   -0.0020   -0.0021   -0.0019   -0.0007
   152 O8     2py        0.0081    0.0315   -0.0035    0.0297    0.0194   -0.0304    0.1305    0.0269    0.2464    0.1091
   153 O8     3py       -0.0011   -0.0020    0.0022   -0.0090   -0.0088    0.0012   -0.0194   -0.0045   -0.0279   -0.0124
   154 O8     4py       -0.0003   -0.0019    0.0006   -0.0001    0.0001    0.0005   -0.0016   -0.0002   -0.0039   -0.0024
   155 O8     2pz        0.0042    0.0186   -0.0053    0.0188    0.0048   -0.0282    0.0518   -0.0081    0.1409    0.0593
   156 O8     3pz       -0.0005   -0.0043   -0.0000   -0.0070   -0.0064   -0.0014   -0.0084    0.0023   -0.0160   -0.0085
   157 O8     4pz       -0.0002   -0.0022   -0.0000   -0.0006    0.0005   -0.0002   -0.0008    0.0006   -0.0020   -0.0021
   158 O8     3d2-      -0.0015   -0.0045   -0.0003    0.0000   -0.0012   -0.0004   -0.0091   -0.0052   -0.0123   -0.0066
   159 O8     3d1-      -0.0006   -0.0050    0.0009   -0.0004    0.0009    0.0031   -0.0019    0.0023   -0.0093   -0.0040
   160 O8     3d0        0.0007    0.0016    0.0006   -0.0010    0.0006    0.0014    0.0044    0.0042    0.0033    0.0029
[...]
AIVX     1  Mu1.0001  In1.024 Se1.047               0.24540498      0.00047621     -0.00092238     -0.00000044
AIVX     1  Mu1.0001  In1.025 Se1.047               0.23617765      0.00031215     -0.00043875     -0.00000014
AIVX     1  Mu1.0001  In1.026 Se1.047               0.10162160      0.00149209     -0.00288514     -0.00000430
AIVX     1  Mu1.0001  In1.027 Se1.047               0.17784430      0.00203068     -0.00392575     -0.00000797
AIVX     1  Mu1.0001  In1.028 Se1.047               0.12415092      0.00044192     -0.00111950     -0.00000049
AIVX     1  Mu1.0001  In1.029 Se1.047               0.11466792     -0.00032073      0.00108298     -0.00000035
AIVX     1  Mu1.0001  In1.022 Se1.048               0.24250243     -0.00084767      0.00044575     -0.00000038
AIVX     1  Mu1.0001  In1.023 Se1.048               0.29046565     -0.00046837      0.00082000     -0.00000038
AIVX     1  Mu1.0001  In1.024 Se1.048               0.26477959      0.00055567     -0.00145474     -0.00000081
AIVX     1  Mu1.0001  In1.025 Se1.048               0.25555227     -0.00510143      0.00830835     -0.00004238
AIVX     1  Mu1.0001  In1.026 Se1.048               0.12099622     -0.00093399      0.00072679     -0.00000068
AIVX     1  Mu1.0001  In1.027 Se1.048               0.19721892     -0.00284438      0.00507023     -0.00001442
AIVX     1  Mu1.0001  In1.028 Se1.048               0.14352554     -0.00041888      0.00149922     -0.00000063
AIVX     1  Mu1.0001  In1.029 Se1.048               0.13404254     -0.00068659      0.00159052     -0.00000109
AIVX     1  Mu1.0001  In1.022 Se1.049               0.24687367      0.00230720     -0.00336068     -0.00000775
AIVX     1  Mu1.0001  In1.023 Se1.049               0.29483689     -0.00109673      0.00188722     -0.00000207
AIVX     1  Mu1.0001  In1.024 Se1.049               0.26915084      0.00169351     -0.00246236     -0.00000417
AIVX     1  Mu1.0001  In1.025 Se1.049               0.25992351      0.00210621     -0.00348001     -0.00000733
AIVX     1  Mu1.0001  In1.026 Se1.049               0.12536747      0.00050651     -0.00076553     -0.00000039
AIVX     1  Mu1.0001  In1.027 Se1.049               0.20159016     -0.00019225      0.00070140     -0.00000013
AIVX     1  Mu1.0001  In1.028 Se1.049               0.14789678      0.00074587     -0.00176075     -0.00000131
AIVX     1  Mu1.0001  In1.029 Se1.049               0.13841378      0.00045886     -0.00105366     -0.00000048
AIVX     1  Mu1.0001  In1.022 Se1.050               0.27134233      0.00161601     -0.00293375     -0.00000474
AIVX     1  Mu1.0001  In1.024 Se1.050               0.29361950      0.00034254     -0.00104794     -0.00000036
AIVX     1  Mu1.0001  In1.025 Se1.050               0.28439218     -0.00189749      0.00281192     -0.00000534
AIVX     1  Mu1.0001  In1.026 Se1.050               0.14983613     -0.00102946      0.00168135     -0.00000173
AIVX     1  Mu1.0001  In1.027 Se1.050               0.22605882     -0.00201794      0.00310376     -0.00000626
AIVX     1  Mu1.0001  In1.028 Se1.050               0.17236545     -0.00016675      0.00024692     -0.00000004
AIVX     1  Mu1.0001  In1.029 Se1.050               0.16288245     -0.00133388      0.00261172     -0.00000348
AIVX     1  Mu1.0001  In1.022 Se1.051               0.25839796      0.00117656     -0.00176882     -0.00000208
AIVX     1  Mu1.0001  In1.024 Se1.051               0.28067512      0.00160802     -0.00225536     -0.00000363
AIVX     1  Mu1.0001  In1.025 Se1.051               0.27144780     -0.00089287      0.00159257     -0.00000142
AIVX     1  Mu1.0001  In1.026 Se1.051               0.13689175     -0.00028613      0.00067120     -0.00000019
AIVX     1  Mu1.0001  In1.027 Se1.051               0.21311445     -0.00052739      0.00077766     -0.00000041
AIVX     1  Mu1.0001  In1.028 Se1.051               0.15942107     -0.00043237      0.00123293     -0.00000053
AIVX     1  Mu1.0001  In1.029 Se1.051               0.14993807     -0.00090761      0.00171097     -0.00000155
AIVX     1  Mu1.0001  In1.022 Se1.052               0.29791444      0.00431991     -0.00577899     -0.00002496
AIVX     1  Mu1.0001  In1.026 Se1.052               0.17640824     -0.00109164      0.00194146     -0.00000212
AIVX     1  Mu1.0001  In1.027 Se1.052               0.25263093      0.00110877     -0.00190457     -0.00000211
AIVX     1  Mu1.0001  In1.028 Se1.052               0.19893756      0.00024953     -0.00041612     -0.00000010
AIVX     1  Mu1.0001  In1.029 Se1.052               0.18945456     -0.00024114      0.00017030     -0.00000004
AIVX     1  Mu1.0001  In1.026 Se1.053               0.18329759      0.00096264     -0.00155324     -0.00000150
AIVX     1  Mu1.0001  In1.027 Se1.053               0.25952029      0.00042093     -0.00000466     -0.00000000
AIVX     1  Mu1.0001  In1.028 Se1.053               0.20582691     -0.00086999      0.00177032     -0.00000154
AIVX     1  Mu1.0001  In1.029 Se1.053               0.19634391      0.00124874     -0.00211802     -0.00000264
AIVX     1  Mu1.0001  In1.026 Se1.054               0.21793218      0.00013616      0.00036021      0.00000005
AIVX     1  Mu1.0001  In1.027 Se1.054               0.29415488      0.00014409     -0.00024676     -0.00000004
AIVX     1  Mu1.0001  In1.028 Se1.054               0.24046150     -0.00203377      0.00419962     -0.00000854
AIVX     1  Mu1.0001  In1.029 Se1.054               0.23097850     -0.00067239      0.00106889     -0.00000072
AIVX     1  Mu1.0001  In1.026 Se1.055               0.20885043      0.00087055     -0.00149835     -0.00000130
AIVX     1  Mu1.0001  In1.027 Se1.055               0.28507312      0.00039228     -0.00097314     -0.00000038
AIVX     1  Mu1.0001  In1.028 Se1.055               0.23137975     -0.00059697      0.00149770     -0.00000089
AIVX     1  Mu1.0001  In1.029 Se1.055               0.22189675     -0.00118999      0.00202567     -0.00000241
AIVX     1  Mu1.0001  In1.026 Se1.056               0.23423642      0.00148389     -0.00253629     -0.00000376
AIVX     1  Mu1.0001  In1.028 Se1.056               0.25676573     -0.00000987     -0.00002602      0.00000000
AIVX     1  Mu1.0001  In1.029 Se1.056               0.24728273      0.00026915     -0.00050905     -0.00000014
AIVX     1  Mu1.0001  In1.026 Se1.057               0.24059305      0.00125103     -0.00181423     -0.00000227
AIVX     1  Mu1.0001  In1.028 Se1.057               0.26312236      0.00054830     -0.00102801     -0.00000056
AIVX     1  Mu1.0001  In1.029 Se1.057               0.25363936     -0.00176797      0.00276427     -0.00000489
AIVX     1  Mu1.0001  In1.026 Se1.058               0.26646186     -0.00087693      0.00112934     -0.00000099
AIVX     1  Mu1.0001  In1.028 Se1.058               0.28899118      0.00013238     -0.00023928     -0.00000003
AIVX     1  Mu1.0001  In1.029 Se1.058               0.27950818     -0.00124571      0.00182744     -0.00000228
AIVX     1  Mu1.0001  In1.026 Se1.059               0.25772195      0.00145008     -0.00295041     -0.00000428
AIVX     1  Mu1.0001  In1.028 Se1.059               0.28025127     -0.00053315      0.00068969     -0.00000037
AIVX     1  Mu1.0001  In1.029 Se1.059               0.27076827     -0.00076672      0.00171012     -0.00000131
AIVX     1  Mu1.0001  In1.026 Se1.060               0.28699162     -0.00045002      0.00020400     -0.00000009
--
 
   (Skipping property calculation,
    use PROP keyword to activate)
--
 
  Total CASPT2 energies:
::    CASPT2 Root  1     Total energy:   -455.37759532
::    CASPT2 Root  2     Total energy:   -455.16152604
::    CASPT2 Root  3     Total energy:   -455.16676610
::    CASPT2 Root  4     Total energy:   -455.13620475
::    CASPT2 Root  5     Total energy:   -455.10633305
::    CASPT2 Root  6     Total energy:   -455.12486783
::    CASPT2 Root  7     Total energy:   -455.10252241
 
++ Multi-State CASPT2 section:
********************************************************************************
  MULTI-STATE CASPT2 SECTION
--------------------------------------------------------------------------------
 
  Output diagonal energies have been shifted. Add   -455.000000000000     
 
  Effective Hamiltonian matrix (Symmetric):
 
                1               2               3               4               5
   1        -0.37759532
   2        -0.00097902     -0.16152604
   3         0.00095135     -0.00021357     -0.16676610
   4         0.01234466      0.00248689      0.00103295     -0.13620475
   5        -0.00577027     -0.00038785     -0.00028696      0.01266865     -0.10633305
   6        -0.01479292     -0.00249597     -0.00101082      0.00122467      0.00292721
   7         0.01901032      0.00103541     -0.00026705     -0.01094498      0.00758786
 
                6               7
   6        -0.12486783
   7         0.01782785     -0.10252241
 
       Total MS-CASPT2 energies:
::    MS-CASPT2 Root  1     Total energy:   -455.38079784
::    MS-CASPT2 Root  2     Total energy:   -455.16687905
::    MS-CASPT2 Root  3     Total energy:   -455.16210129
::    MS-CASPT2 Root  4     Total energy:   -455.14371194
::    MS-CASPT2 Root  5     Total energy:   -455.13080942
::    MS-CASPT2 Root  6     Total energy:   -455.10297480
::    MS-CASPT2 Root  7     Total energy:   -455.08854115
 
       Eigenvectors:
            0.99336760     -0.00348765     -0.02455970      0.09229775     -0.05815456
            0.00616669      0.08470080      0.98058799      0.16825399     -0.05244555
           -0.00390734      0.99406888     -0.09516710      0.04958086     -0.01273637
           -0.05512625     -0.05321636     -0.12739931      0.83829258      0.31179614
            0.02483171      0.01647743      0.03686322     -0.31749469     -0.17499024
            0.06264859      0.03533496      0.08491781     -0.21986889      0.86698160
           -0.07474727     -0.01698912     -0.06314045      0.32989968     -0.33794939
 
           -0.01462106      0.02215550
            0.01081801     -0.00761333
            0.00520620     -0.01036534
            0.41452004     -0.07823288
            0.85837237      0.35989636
           -0.08849527      0.42401029
           -0.28841061      0.82699047
 
--
 
  THE ORIGINAL CI ARRAYS ARE NOW MIXED AS LINEAR
  COMBINATIONS, GIVEN BY THE EIGENVECTORS.
  A NEW JOBIPH FILE NAMED 'JOBMIX' IS PREPARED.
********************************************************************************
 
++ Mixed CI coefficients:
  The CI coefficients for the MIXED state nr.   1
--------------------------------------------------------------------------------
 CI COEFFICIENTS LARGER THAN  0.50D-01
  Occupation of active orbitals, and spin coupling
  of open shells. (u,d: Spin up or down).
  SGUGA info is (Midvert:IsyUp:UpperWalk/LowerWalk)
        Conf  SGUGA info        Occupation    Coefficient         Weight
           1  ( 1:1:   1/   1)   22222200        0.968555       0.938099
           4  ( 1:1:   4/   1)   22222020       -0.114086       0.013016
          61  ( 2:1:   1/   3)   2u2222d0       -0.097084       0.009425
          84  ( 2:1:   4/   4)   u222220d       -0.121714       0.014814
         105  ( 3:1:   5/   1)   22202202       -0.079878       0.006380
         171  ( 3:1:   1/   8)   20222220       -0.082595       0.006822
         195  ( 3:1:   5/  10)   02222202       -0.075097       0.005640
 
  The CI coefficients for the MIXED state nr.   2
--------------------------------------------------------------------------------
 CI COEFFICIENTS LARGER THAN  0.50D-01
  Occupation of active orbitals, and spin coupling
  of open shells. (u,d: Spin up or down).
  SGUGA info is (Midvert:IsyUp:UpperWalk/LowerWalk)
        Conf  SGUGA info        Occupation    Coefficient         Weight
           3  ( 1:1:   3/   1)   2222u2d0       -0.073644       0.005423
           7  ( 1:1:   7/   1)   22222u0d       -0.120633       0.014552
           8  ( 1:1:   8/   1)   2222u20d       -0.095430       0.009107
          44  ( 2:1:   4/   2)   22u2220d       -0.940382       0.884318
          45  ( 2:1:   5/   2)   22u22dud        0.065005       0.004226
          47  ( 2:1:   7/   2)   22u22udd        0.109692       0.012032
          49  ( 2:1:   9/   2)   22u2202d        0.086766       0.007528
         115  ( 3:1:   5/   2)   22ud2202       -0.152432       0.023236
         165  ( 3:1:   5/   7)   u2d22202       -0.111386       0.012407
         219  ( 4:1:   1/   4)   2uu222dd       -0.070008       0.004901
         220  ( 4:1:   2/   4)   2uu22d2d       -0.054583       0.002979
         293  ( 5:1:   1/  15)   20u2222d       -0.094093       0.008854
 
  The CI coefficients for the MIXED state nr.   3
--------------------------------------------------------------------------------
 CI COEFFICIENTS LARGER THAN  0.50D-01
  Occupation of active orbitals, and spin coupling
  of open shells. (u,d: Spin up or down).
  SGUGA info is (Midvert:IsyUp:UpperWalk/LowerWalk)
        Conf  SGUGA info        Occupation    Coefficient         Weight
           2  ( 1:1:   2/   1)   22222ud0        0.199755       0.039902
           3  ( 1:1:   3/   1)   2222u2d0       -0.927594       0.860430
           5  ( 1:1:   5/   1)   2222ud20       -0.123631       0.015285
           8  ( 1:1:   8/   1)   2222u20d       -0.053639       0.002877
          24  ( 2:1:   4/   1)   222u220d        0.087667       0.007685
          44  ( 2:1:   4/   2)   22u2220d        0.082463       0.006800
          62  ( 2:1:   2/   3)   2u222d20        0.056435       0.003185
          63  ( 2:1:   3/   3)   2u22d220       -0.156103       0.024368
          86  ( 2:1:   6/   4)   u222d2ud        0.063620       0.004048
          88  ( 2:1:   8/   4)   u222u2dd        0.103679       0.010749
         107  ( 3:1:   7/   1)   2220u2d2        0.076759       0.005892
         197  ( 3:1:   7/  10)   0222u2d2        0.074353       0.005528
 
  The CI coefficients for the MIXED state nr.   4
--------------------------------------------------------------------------------
 CI COEFFICIENTS LARGER THAN  0.50D-01
  Occupation of active orbitals, and spin coupling
  of open shells. (u,d: Spin up or down).
  SGUGA info is (Midvert:IsyUp:UpperWalk/LowerWalk)
        Conf  SGUGA info        Occupation    Coefficient         Weight
           2  ( 1:1:   2/   1)   22222ud0       -0.588275       0.346067
           3  ( 1:1:   3/   1)   2222u2d0       -0.219041       0.047979
           4  ( 1:1:   4/   1)   22222020        0.117286       0.013756
           7  ( 1:1:   7/   1)   22222u0d       -0.157697       0.024868
           8  ( 1:1:   8/   1)   2222u20d        0.219042       0.047980
          12  ( 1:1:  12/   1)   2222uudd        0.052789       0.002787
          24  ( 2:1:   4/   1)   222u220d       -0.641347       0.411326
          27  ( 2:1:   7/   1)   222u2udd        0.053820       0.002897
          29  ( 2:1:   9/   1)   222u202d        0.067538       0.004561
          61  ( 2:1:   1/   3)   2u2222d0        0.056671       0.003212
          62  ( 2:1:   2/   3)   2u222d20       -0.154630       0.023910
          87  ( 2:1:   7/   4)   u2222udd        0.064699       0.004186
         135  ( 3:1:   5/   4)   u22d2202       -0.152480       0.023250
         171  ( 3:1:   1/   8)   20222220       -0.069730       0.004862
         196  ( 3:1:   6/  10)   02222ud2        0.051463       0.002648
         207  ( 4:1:   1/   2)   2u2u22dd       -0.068044       0.004630
         261  ( 5:1:   1/   7)   202u222d       -0.062331       0.003885
 
  The CI coefficients for the MIXED state nr.   5
--------------------------------------------------------------------------------
 CI COEFFICIENTS LARGER THAN  0.50D-01
  Occupation of active orbitals, and spin coupling
  of open shells. (u,d: Spin up or down).
  SGUGA info is (Midvert:IsyUp:UpperWalk/LowerWalk)
        Conf  SGUGA info        Occupation    Coefficient         Weight
           2  ( 1:1:   2/   1)   22222ud0        0.688218       0.473643
           3  ( 1:1:   3/   1)   2222u2d0        0.081775       0.006687
           4  ( 1:1:   4/   1)   22222020       -0.116263       0.013517
           7  ( 1:1:   7/   1)   22222u0d       -0.101588       0.010320
           8  ( 1:1:   8/   1)   2222u20d        0.241310       0.058230
          24  ( 2:1:   4/   1)   222u220d       -0.577421       0.333415
          27  ( 2:1:   7/   1)   222u2udd        0.055975       0.003133
          29  ( 2:1:   9/   1)   222u202d        0.060665       0.003680
          62  ( 2:1:   2/   3)   2u222d20        0.186941       0.034947
          87  ( 2:1:   7/   4)   u2222udd       -0.079360       0.006298
         106  ( 3:1:   6/   1)   22202ud2       -0.064068       0.004105
         135  ( 3:1:   5/   4)   u22d2202       -0.137091       0.018794
         171  ( 3:1:   1/   8)   20222220        0.077578       0.006018
         261  ( 5:1:   1/   7)   202u222d       -0.054153       0.002933
 
  The CI coefficients for the MIXED state nr.   6
--------------------------------------------------------------------------------
 CI COEFFICIENTS LARGER THAN  0.50D-01
  Occupation of active orbitals, and spin coupling
  of open shells. (u,d: Spin up or down).
  SGUGA info is (Midvert:IsyUp:UpperWalk/LowerWalk)
        Conf  SGUGA info        Occupation    Coefficient         Weight
           7  ( 1:1:   7/   1)   22222u0d       -0.865968       0.749901
           8  ( 1:1:   8/   1)   2222u20d        0.256715       0.065902
          10  ( 1:1:  10/   1)   2222udud        0.054655       0.002987
          12  ( 1:1:  12/   1)   2222uudd        0.083186       0.006920
          24  ( 2:1:   4/   1)   222u220d        0.280223       0.078525
          25  ( 2:1:   5/   1)   222u2dud       -0.057489       0.003305
          44  ( 2:1:   4/   2)   22u2220d        0.091084       0.008296
          65  ( 2:1:   5/   3)   2u222dud       -0.143681       0.020644
          67  ( 2:1:   7/   3)   2u222udd       -0.157878       0.024925
          93  ( 2:1:  13/   4)   u2222d02       -0.069959       0.004894
         135  ( 3:1:   5/   4)   u22d2202        0.064279       0.004132
         173  ( 3:1:   3/   8)   20222u2d       -0.119709       0.014330
 
  The CI coefficients for the MIXED state nr.   7
--------------------------------------------------------------------------------
 CI COEFFICIENTS LARGER THAN  0.50D-01
  Occupation of active orbitals, and spin coupling
  of open shells. (u,d: Spin up or down).
  SGUGA info is (Midvert:IsyUp:UpperWalk/LowerWalk)
        Conf  SGUGA info        Occupation    Coefficient         Weight
           7  ( 1:1:   7/   1)   22222u0d       -0.329741       0.108729
           8  ( 1:1:   8/   1)   2222u20d       -0.820825       0.673753
          10  ( 1:1:  10/   1)   2222udud       -0.175474       0.030791
          12  ( 1:1:  12/   1)   2222uudd       -0.259400       0.067288
          24  ( 2:1:   4/   1)   222u220d       -0.246243       0.060635
          44  ( 2:1:   4/   2)   22u2220d        0.120299       0.014472
          65  ( 2:1:   5/   3)   2u222dud       -0.060218       0.003626
          67  ( 2:1:   7/   3)   2u222udd       -0.062227       0.003872
          71  ( 2:1:  11/   3)   2u22ud2d        0.068153       0.004645
          94  ( 2:1:  14/   4)   u222d202       -0.060834       0.003701
         135  ( 3:1:   5/   4)   u22d2202       -0.056707       0.003216
         174  ( 3:1:   4/   8)   2022u22d       -0.072871       0.005310
 
--
 
--- Stop Module: caspt2 at Tue Jun 10 22:38:11 2025 /rc=_RC_ALL_IS_WELL_ ---
*** files: xmldump
    saved to directory /home/pcaah4/diamide_project
--- Module caspt2 spent 6 minutes 58 seconds ---

.##################.
.# Happy landing! #.
.##################.

    Timing: Wall=672.15 User=583.70 System=79.40
******************************************************
*** WorkDir at /srv/COMMUNAL_SCRATCH/12500 cleaned ***
******************************************************
