   This run of MOLCAS is using the pymolcas driver

                             OPE
                             OPE          NMOL  CASOP  ENMOLC A   SO
                 OPE        NMOLC        AS  OP EN  MO LC     AS  OP
                OPENM       OL CA        SO  PE NM  OL CA     SOP EN
                OP EN      MO   LC       AS  OP ENMOL  CASO   PENMOL
                OP  EN     MO   LC       AS  OP EN     MO     LC ASO
               OP   E  NMOL  C  AS       OP  EN MO     LC     AS  OP
               OP  E   NMO   LC AS        OPEN  MO     LCASOP EN   M
               O  PEN   MO  LCA  SO
            OPE   NMO   L   CAS    OP
        OPENMOL  CASOP     ENMOL   CASOPE
     OPENMOLCA   SOPENMOLCASOPEN   MOLCASOPE
    OPENMOLCAS   OP           EN   MOL    CAS
    OPENMOLCAS       OP  ENM        O     LCA
    OPENMOLCAS    OPEN  MOLCASO     P  E  NMO
    OPENMOLCAS     OP               E  N  MOL
    OPENMOLCA   SO           PENM   O  L  CAS    OPEN    MO    LCAS
    OPENMOLCA   SOP           ENM   O  L  CAS   OP  EN  MOLC  AS   O
    OPENMOLCA   SOPE           NM      O  LCA   S      OP  EN MO
    OPENMOLC                AS         O  PEN   M      OL  CA  SOPE
    OPENMO        LCASOPE  NMOL        C  ASO   P      ENMOLC     AS
    OPE     NMO      LCA  SO     P     E   NM   OL  CA SO  PE N   MO
          OPENMOLCA            SOPE   NMO        LCAS  O    P  ENMO
     OPENMOLCASOPENMOLCASOPENMOLCASOPENMOLCA
        OPENMOLCASOPENMOLCASOPENMOLCASOPE
            OPENMOLCASOPENMOLCASOPENM
               OPENMOLCASOPENMOLCA        version: v23.06
                   OPENMOLCASO
                       OPE                tag:

 OpenMolcas is free software; you can redistribute it and/or modify it
 under the terms of the GNU Lesser General Public License version 2.1.
 OpenMolcas is distributed in the hope that it will be useful, but it
 is provided "as is" and without any express or implied warranties.
 For more details see the full text of the license in the file
 LICENSE or in <http://www.gnu.org/licenses/>.

                 Copyright (C) The OpenMolcas Authors
           For the author list and the recommended citation,
                   consult the file CONTRIBUTORS.md

           *************************************************
           * pymolcas version py2.24                       *
           *   build 4567b286dd94b1984b333a4ddf893180      *
           *   (after the EMIL interpreter by V. Veryazov) *
           *************************************************

configuration info
------------------
Host name: loginchem01.nottingham.ac.uk (Linux)
C Compiler ID: Intel
C flags: -std=gnu99 -gcc-sys -qopenmp
Fortran Compiler ID: Intel
Fortran flags: -fpp -i8 -heap-arrays -qopenmp
Definitions: _MOLCAS_;_I8_;_LINUX_
Parallel: OFF (GA=OFF)


   ----------------------------------------------------------------------------------------------------
  |
  |              Project: orca_geometry_optimisation_255_175_BP86_def2-SVP_def2J_scf_cas1_ras12i11_cas8
  |       Submitted from: /home/pcaah4/diamide_project
  |         Scratch area: /srv/COMMUNAL_SCRATCH/12416
  |      Save outputs to: /home/pcaah4/diamide_project
  |               Molcas: /software/chemistry/openmolcas/openmolcas-23.06-openmp
  |
  | Scratch area is empty
  |
  |       MOLCAS_DRIVER = /software/chemistry/openmolcas/openmolcas-23.06-openmp/sbin/pymolcas
  | MOLCAS_KEEP_WORKDIR = NO
  |       MOLCAS_NPROCS = 1
  |       MOLCAS_SOURCE = /software/chemistry/openmolcas/openmolcas-23.06-openmp
  |    MOLCAS_STRUCTURE = 0
  |
   ----------------------------------------------------------------------------------------------------

++ ---------   Input file   ---------

&SEWARD
TITLE
orca_geometry_optimisation_255_175_BP86_def2-SVP_def2J_scf_cas1_ras12i11
MULTIPOLES
2
SDIPOLE
ANGMOM
0 0 0
BASIS SET
C.ANO-S...4S3P1D.
C1            0.082575   -0.036630    0.245920 /Angstrom
C3            2.177922    1.209874    0.034542 /Angstrom
C4            2.691896    1.413997   -1.405987 /Angstrom
C6            3.845247    3.004007   -2.915372 /Angstrom
C19          -0.575211   -1.389738    0.008776 /Angstrom
END OF BASIS
BASIS SET
N.ANO-S...4S3P1D.
N2            1.466541   -0.039569    0.162158 /Angstrom
N5            3.284358    2.628882   -1.630099 /Angstrom
END OF BASIS
BASIS SET
O.ANO-S...4S3P1D.
O7           -0.562063    0.976503    0.508581 /Angstrom
O8            2.616432    0.522053   -2.251172 /Angstrom
END OF BASIS
BASIS SET
H.ANO-S...2S1P.
H9           -0.917487   -1.443929   -1.045793 /Angstrom
H10          -1.468820   -1.471155    0.654898 /Angstrom
H11           0.103432   -2.244303    0.200143 /Angstrom
H12           1.893617   -0.824607   -0.338963 /Angstrom
H13           1.465322    2.014264    0.318653 /Angstrom
H14           3.042467    1.258489    0.735487 /Angstrom
H15           3.247677    3.328417   -0.886577 /Angstrom
H16           3.767549    2.119457   -3.575482 /Angstrom
H17           3.287276    3.844448   -3.381417 /Angstrom
H18           4.913198    3.296104   -2.826079 /Angstrom
END OF BASIS
END OF INPUT

&RASSCF
TITLE
orca_geometry_optimisation_255_175_BP86_def2-SVP_def2J_scf_cas1_ras12i11
LUMORB
SPIN
1
SYMMETRY
1
NACTEL
12  0  0
INACTIVE
29
DELETED  ! delete Rydberg orbitals from an initial CAS(12,11) if done
3
FROZEN
0
RAS2
8
ITERATIONS
64 25
CIROOT
7 7
1 2 3 4 5 6 7
1 1 1 1 1 1 1
LEVSHFT
0.3
CIMX
20
FILEorb = /home/pcaah4/diamide_project/cas/ras12i11/ras_orb/orca_geometry_optimisation_255_175_BP86_def2-SVP_def2J_scf_cas1_ras12i11.RasOrb
ALTEr
2
 1 36 38
 1 37 39
END OF INPUT

&RASSI
NROF JOBIPH
    1 7
    1 2 3 5 4 6 7
TOFILE
TRDI
TDMN
1.0D-6
END OF INPUT

&CASPT2
TITLE
orca_geometry_optimisation_255_175_BP86_def2-SVP_def2J_scf_cas1_ras12i11
MULTISTATE
7 1 2 3 4 5 6 7
SHIFT
0.35
MAXITER
50
END OF INPUT

-- ----------------------------------

--- Start Module: seward at Tue Jun 10 18:52:40 2025 ---
 
()()()()()()()()()()()()()()()()()()()()()()()()()()()()()()()()()()()()()()()()()()()()()()()()()()

                                              &SEWARD

                                   only a single process is used
                       available to each process: 2.0 GB of memory, 1 thread
                                            pid: 3123955
()()()()()()()()()()()()()()()()()()()()()()()()()()()()()()()()()()()()()()()()()()()()()()()()()()
 
               SEWARD will generate:
                  Multipole Moment integrals up to order  2
                  Kinetic Energy integrals
                  Nuclear Attraction integrals (point charge)
                  One-Electron Hamiltonian integrals
                  Velocity integrals
                  Orbital angular momentum around ( 0.0000  0.0000  0.0000 )
                  Velocity quadrupole around ( 3.1605  1.7521 -1.5551 )
                  Two-Electron Repulsion integrals
 
 Title:
            orca_geometry_optimisation_255_175_BP86_def2-SVP_def2J_scf_cas1_ras12i11    
 
 
                   Integrals are discarded if absolute value <: 0.10E-13
                   Integral cutoff threshold is set to       <: 0.10E-15
 
++    Symmetry information:
      ---------------------
 
                    Character Table for C1 
 
                             E  
                    a        1  x, y, xy, Rz, z, xz, Ry, yz, Rx, I
--
 
 
++    Basis set information:
      ----------------------
 
 
      Basis set label: C.ANO-S...4S3P1D......
 
      Electronic valence basis set:
      ------------------
      Associated Effective Charge   6.000000 au
      Associated Actual Charge      6.000000 au
      Nuclear Model: Point charge
 
      Shell  nPrim  nBasis  Cartesian Spherical Contaminant
         s      10       4        X                  
         p       6       3        X                  
         d       3       1                 X         
 
 
      Basis set label: N.ANO-S...4S3P1D......
 
      Electronic valence basis set:
      ------------------
      Associated Effective Charge   7.000000 au
      Associated Actual Charge      7.000000 au
      Nuclear Model: Point charge
 
      Shell  nPrim  nBasis  Cartesian Spherical Contaminant
         s      10       4        X                  
         p       6       3        X                  
         d       3       1                 X         
 
 
      Basis set label: O.ANO-S...4S3P1D......
 
      Electronic valence basis set:
      ------------------
      Associated Effective Charge   8.000000 au
      Associated Actual Charge      8.000000 au
      Nuclear Model: Point charge
 
      Shell  nPrim  nBasis  Cartesian Spherical Contaminant
         s      10       4        X                  
         p       6       3        X                  
         d       3       1                 X         
 
 
      Basis set label: H.ANO-S...2S1P......
 
      Electronic valence basis set:
      ------------------
      Associated Effective Charge   1.000000 au
      Associated Actual Charge      1.000000 au
      Nuclear Model: Point charge
 
      Shell  nPrim  nBasis  Cartesian Spherical Contaminant
         s       7       2        X                  
         p       3       1        X                  
--
 
 
++    Molecular structure info:
      -------------------------
 
                    ************************************************ 
                    **** Cartesian Coordinates / Bohr, Angstrom **** 
                    ************************************************ 
 
     Center  Label                x              y              z                     x              y              z
        1      C1               0.156044      -0.069221       0.464721              0.082575      -0.036630       0.245920
        2      C3               4.115676       2.286331       0.065275              2.177922       1.209874       0.034542
        3      C4               5.086946       2.672067      -2.656930              2.691896       1.413997      -1.405987
        4      C6               7.266464       5.676751      -5.509255              3.845247       3.004007      -2.915372
        5      C19             -1.086991      -2.626224       0.016584             -0.575211      -1.389738       0.008776
        6      N2               2.771361      -0.074775       0.306434              1.466541      -0.039569       0.162158
        7      N5               6.206537       4.967867      -3.080441              3.284358       2.628882      -1.630099
        8      O7              -1.062145       1.845323       0.961079             -0.562063       0.976503       0.508581
        9      O8               4.944340       0.986537      -4.254099              2.616432       0.522053      -2.251172
       10      H9              -1.733799      -2.728630      -1.976262             -0.917487      -1.443929      -1.045793
       11      H10             -2.775668      -2.780080       1.237578             -1.468820      -1.471155       0.654898
       12      H11              0.195458      -4.241118       0.378215              0.103432      -2.244303       0.200143
       13      H12              3.578418      -1.558281      -0.640547              1.893617      -0.824607      -0.338963
       14      H13              2.769057       3.806407       0.602167              1.465322       2.014264       0.318653
       15      H14              5.749429       2.378200       1.389869              3.042467       1.258489       0.735487
       16      H15              6.137220       6.289797      -1.675388              3.247677       3.328417      -0.886577
       17      H16              7.119636       4.005193      -6.756682              3.767549       2.119457      -3.575482
       18      H17              6.212051       7.264954      -6.389952              3.287276       3.844448      -3.381417
       19      H18              9.284599       6.228734      -5.340515              4.913198       3.296104      -2.826079
 
                    ************************************************* 
                    **** InterNuclear Distances / Bohr, Angstrom **** 
                    ************************************************* 
 
     Atom centers         Bohr        Angstrom
   16 H15       7 N5      1.930408        1.021528
   13 H12       6 N2      1.936209        1.024598
   11 H10       5 C19     2.089527        1.105730
   17 H16       4 C6      2.090870        1.106441
   12 H11       5 C19     2.093642        1.107907
   10 H9        5 C19     2.097686        1.110047
   19 H18       4 C6      2.099054        1.110771
   18 H17       4 C6      2.099953        1.111247
   14 H13       2 C3      2.100540        1.111558
   15 H14       2 C3      2.105265        1.114058
    8 O7        1 C1      2.322893        1.229222
    9 O8        3 C4      2.326434        1.231096
    7 N5        3 C4      2.589120        1.370103
    6 N2        1 C1      2.620108        1.386502
    6 N2        2 C3      2.727665        1.443418
    7 N5        4 C6      2.743191        1.451634
    5 C19       1 C1      2.878234        1.523096
    3 C4        2 C3      2.915915        1.543036
   11 H10      10 H9      3.378891        1.788032
   15 H14      14 H13     3.397480        1.797869
   12 H11      10 H9      3.399003        1.798675
   18 H17      17 H16     3.403563        1.801088
   19 H18      18 H17     3.408169        1.803525
   19 H18      17 H16     3.411264        1.805163
   12 H11      11 H10     3.420632        1.810121
   14 H13       6 N2      3.892433        2.059787
   13 H12       1 C1      3.892501        2.059823
   16 H15       3 C4      3.892874        2.060020
   17 H16       7 N5      3.908355        2.068212
   13 H12       2 C3      3.945614        2.087929
   15 H14       6 N2      4.007469        2.120661
   19 H18       7 N5      4.021466        2.128068
   18 H17       7 N5      4.028586        2.131836
   16 H15       4 C6      4.043458        2.139706
   11 H10       1 C1      4.067063        2.152197
   10 H9        1 C1      4.074601        2.156186
   15 H14       3 C4      4.111183        2.175544
   14 H13       3 C4      4.157048        2.199815
   12 H11       1 C1      4.172980        2.208246
   14 H13       8 O7      4.318886        2.285456
    8 O7        6 N2      4.337177        2.295135
    9 O8        7 N5      4.338387        2.295776
   13 H12      12 H11     4.436204        2.347538
   17 H16       9 O8      4.484096        2.372882
    8 O7        5 C19     4.570276        2.418486
    9 O8        2 C3      4.586189        2.426907
    2 C3        1 C1      4.624593        2.447229
   13 H12       9 O8      4.625970        2.447958
    7 N5        2 C3      4.632263        2.451288
    6 N2        5 C19     4.634737        2.452597
    6 N2        3 C4      4.657103        2.464433
   14 H13       1 C1      4.676240        2.474560
    4 C6        3 C4      4.681258        2.477215
   16 H15      14 H13     4.764347        2.521184
   17 H16       3 C4      4.766237        2.522184
   16 H15       2 C3      4.810851        2.545793
   18 H17      16 H15     4.814940        2.547957
   13 H12       5 C19     4.830979        2.556444
   19 H18      16 H15     4.831447        2.556692
   12 H11       6 N2      4.898862        2.592366
   13 H12       3 C4      4.923140        2.605214
   15 H14      13 H12     4.932724        2.610285
   11 H10       8 O7      4.940341        2.614316
   16 H15      15 H14     4.984654        2.637765
    9 O8        6 N2      5.162042        2.731635
   14 H13       7 N5      5.169802        2.735742
   15 H14       7 N5      5.186424        2.744537
    8 O7        2 C3      5.273214        2.790465
    9 O8        4 C6      5.381986        2.848025
   10 H9        8 O7      5.477239        2.898430
   14 H13      13 H12     5.565904        2.945350
   13 H12      10 H9      5.601205        2.964030
   17 H16      16 H15     5.657217        2.993670
--
 
 
            Nuclear Potential Energy            451.65708349 au
 
 
      Basis set specifications :
      Symmetry species         a  
      Basis functions          212
 
 
      Input file to MOLDEN was generated!
 
--- Stop Module: seward at Tue Jun 10 18:54:29 2025 /rc=_RC_ALL_IS_WELL_ ---
*** files: orca_geometry_optimisation_255_175_BP86_def2-SVP_def2J_scf_cas1_ras12i11_cas8.GssOrb
           orca_geometry_optimisation_255_175_BP86_def2-SVP_def2J_scf_cas1_ras12i11_cas8.guessorb.molden xmldump
    saved to directory /home/pcaah4/diamide_project
--- Module seward spent 1 minute 49 seconds ---

*** symbolic link created: INPORB -> orca_geometry_optimisation_255_175_BP86_def2-SVP_def2J_scf_cas1_ras12i11_cas8.GssOrb
--- Start Module: rasscf at Tue Jun 10 18:54:30 2025 ---
 
()()()()()()()()()()()()()()()()()()()()()()()()()()()()()()()()()()()()()()()()()()()()()()()()()()

                                              &RASSCF

                                   only a single process is used
                       available to each process: 2.0 GB of memory, 1 thread
                                            pid: 3123989
()()()()()()()()()()()()()()()()()()()()()()()()()()()()()()()()()()()()()()()()()()()()()()()()()()
 
 
      Header of the ONEINT file:
      --------------------------
      orca_geometry_optimisation_255_175_BP86_def2-SVP_def2J_scf_cas1_ras12i11
      Integrals generated by Gateway/Seward, Tue Jun 10 18:52:41 2025
 
 
      OrdInt status: non-squared
 
 
      Cartesian coordinates in Angstrom:
      -----------------------------------------------------
      No.  Label        X            Y            Z        
      -----------------------------------------------------
       1   C1         0.08257500  -0.03663000   0.24592000
       2   C3         2.17792200   1.20987400   0.03454200
       3   C4         2.69189600   1.41399700  -1.40598700
       4   C6         3.84524700   3.00400700  -2.91537200
       5   C19       -0.57521100  -1.38973800   0.00877600
       6   N2         1.46654100  -0.03956900   0.16215800
       7   N5         3.28435800   2.62888200  -1.63009900
       8   O7        -0.56206300   0.97650300   0.50858100
       9   O8         2.61643200   0.52205300  -2.25117200
      10   H9        -0.91748700  -1.44392900  -1.04579300
      11   H10       -1.46882000  -1.47115500   0.65489800
      12   H11        0.10343200  -2.24430300   0.20014300
      13   H12        1.89361700  -0.82460700  -0.33896300
      14   H13        1.46532200   2.01426400   0.31865300
      15   H14        3.04246700   1.25848900   0.73548700
      16   H15        3.24767700   3.32841700  -0.88657700
      17   H16        3.76754900   2.11945700  -3.57548200
      18   H17        3.28727600   3.84444800  -3.38141700
      19   H18        4.91319800   3.29610400  -2.82607900
      -----------------------------------------------------
      Nuclear repulsion energy =  451.65708349
 
++    Wave function specifications:
      -----------------------------
 
      Number of closed shell electrons          58
      Number of electrons in active shells      12
      Max number of holes in RAS1 space          0
      Max nr of electrons in RAS3 space          0
      Number of inactive orbitals               29
      Number of active orbitals                  8
      Number of secondary orbitals             172
      Spin quantum number                      0.0
      State symmetry                             1
--
 
++    Orbital specifications:
      -----------------------
 
      Symmetry species                           1
                                                 a
      Frozen orbitals                            0
      Inactive orbitals                         29
      Active orbitals                            8
      RAS1 orbitals                              0
      RAS2 orbitals                              8
      RAS3 orbitals                              0
      Secondary orbitals                       172
      Deleted orbitals                           3
      Number of basis functions                212
--
 
++    CI expansion specifications:
      ----------------------------
 
      Number of CSFs                           336
      Number of determinants                   406
      Number of root(s) required                 7
      Root chosen for geometry opt.              7
      CI roots used                              1     2     3     4     5     6     7
      weights                                0.143 0.143 0.143 0.143 0.143 0.143 0.143
      highest root included in the CI            7
      max. size of the explicit Hamiltonian    200
--
 
++    Optimization specifications:
      ----------------------------
 
      RASSCF algorithm: Conventional
      Maximum number of macro iterations        64
      Maximum number of SX iterations           25
      Threshold for RASSCF energy            0.100E-07
      Threshold for max MO rotation          0.100E+00
      Threshold for max BLB element          0.100E-03
      Level shift parameter                  0.300E+00
      Make Quasi-Newton update
--
 
      The MO-coefficients are taken from the file:
      /home/pcaah4/diamide_project/cas/ras12i11/ras_orb/orca_geometry_optimisation_255_175_BP86_def2-SVP_def2J_scf_cas1_ras12i11.RasOrb                                                                                                                               
      Title: RASSCF average (pseudo-natural) orbitals                                      
 
      Total molecular charge    0.00
 
      Molecular orbitals exchanged:
        In symmetry  1 :  36  38
        In symmetry  1 :  37  39
 
 
      ************************************************************************************************************************
      *                                                                                                                      *
      *                                            Wave function control section                                             *
      *                                                                                                                      *
      ************************************************************************************************************************
 
 
                                         RASSCF iterations: Energy and convergence statistics
                                         ----------------------------------------------------
 
      Iter CI   SX   CI       RASSCF       Energy    max ROT     max BLB   max BLB  Level Ln srch  Step   QN   Walltime
          iter iter root      energy       change     param      element    value   shift minimum  type update hh:mm:ss
 Nr of preliminary CI iterations:   5
        1   1   16    0  -453.70354378    0.00E+00   0.13E-01   34  38 1 -0.21E-01*  0.20   0.00    SX    NO    0:00:13
        2   3   11    0  -453.70699297   -0.34E-02*  0.11E-01   30  38 1 -0.44E-02*  0.19   0.00    SX    NO    0:00:07
        3   1   11    0  -453.70727583   -0.28E-03*  0.42E-02   34  38 1 -0.28E-02*  0.20   0.00    SX    NO    0:00:07
        4   6   11    0  -453.70743697   -0.16E-03* -0.36E-02   33  39 1  0.19E-02*  0.20   0.00    SX    NO    0:00:06
        5   3   10    0  -453.70747317   -0.36E-04*  0.37E-02   21  83 1  0.62E-03*  0.20   1.22    QN   YES    0:00:06
        6   4   10    0  -453.70748701   -0.14E-04* -0.79E-03   34  38 1 -0.42E-03*  0.20   1.14    QN   YES    0:00:06
        7   4    9    0  -453.70748890   -0.19E-05*  0.10E-02   33  39 1 -0.15E-03*  0.20   1.51    QN   YES    0:00:07
        8   4    8    0  -453.70748969   -0.79E-06*  0.53E-03   34  38 1  0.91E-04   0.20   1.16    QN   YES    0:00:07
        9   4    8    0  -453.70748985   -0.16E-06*  0.46E-03   34  38 1  0.60E-04   0.20   1.87    LS   YES    0:00:06
       10   3    8    0  -453.70748987   -0.25E-07*  0.11E-03   33  39 1  0.39E-04   0.20   0.74    QN   YES    0:00:06
       11   1    8    0  -453.70748992   -0.44E-07*  0.13E-03   32  40 1 -0.14E-04   0.20   1.48    QN   YES    0:00:07
       12   1    7    0  -453.70748993   -0.16E-07* -0.13E-03   34  38 1 -0.14E-04   0.20   1.33    QN   YES    0:00:06
       13   1    6    0  -453.70748994   -0.47E-08  -0.62E-04   30  38 1  0.62E-05   0.20   1.35    QN   YES    0:00:06
      Convergence after 13 iterations
       14   1    6    0  -453.70748994   -0.12E-08  -0.62E-04   30  38 1  0.27E-05   0.20   1.35    QN   YES    0:00:06
 
      ************************************************************************************************************************
                                                      Wave function printout:
                       occupation of active orbitals, and spin coupling of open shells (u,d: Spin up or down)
      ************************************************************************************************************************
 
      Note: transformation to natural orbitals
      has been made, which may change the order of the CSFs.
 
      printout of CI-coefficients larger than  0.05 for root  1
      energy=    -453.961059
      conf/sym  11111111     Coeff  Weight
             1  22222200   0.96368 0.92868
             2  22222ud0   0.12585 0.01584
             4  22222020  -0.07757 0.00602
            17  22220202  -0.08095 0.00655
            61  2u2222d0   0.07844 0.00615
            62  2u222d20  -0.07290 0.00531
            84  u222220d  -0.09427 0.00889
            94  u222d202   0.05354 0.00287
           171  20222220  -0.10369 0.01075
           195  02222202  -0.08252 0.00681
 
      printout of CI-coefficients larger than  0.05 for root  2
      energy=    -453.752613
      conf/sym  11111111     Coeff  Weight
             2  22222ud0   0.07302 0.00533
            21  222u22d0  -0.95763 0.91705
            22  222u2d20   0.10330 0.01067
            38  222u02d2  -0.08024 0.00644
           121  2u2d2220   0.19295 0.03723
           213  u22u22dd   0.08173 0.00668
           270  022u22d2   0.08299 0.00689
 
      printout of CI-coefficients larger than  0.05 for root  3
      energy=    -453.734676
      conf/sym  11111111     Coeff  Weight
             7  22222u0d   0.08807 0.00776
            44  22u2220d   0.94409 0.89131
            45  22u22dud   0.06314 0.00399
            47  22u22udd   0.11344 0.01287
            49  22u2202d  -0.07738 0.00599
            54  22u2d202  -0.16919 0.02863
           165  u2d22202   0.14083 0.01983
           219  2uu222dd  -0.07209 0.00520
           220  2uu22d2d   0.06383 0.00407
           293  20u2222d   0.10284 0.01058
 
      printout of CI-coefficients larger than  0.05 for root  4
      energy=    -453.642826
      conf/sym  11111111     Coeff  Weight
             2  22222ud0  -0.14632 0.02141
             7  22222u0d  -0.40520 0.16419
             8  2222u20d  -0.83538 0.69786
            12  2222uudd  -0.08655 0.00749
            13  2222u02d   0.07091 0.00503
            17  22220202  -0.05893 0.00347
            24  222u220d   0.08194 0.00671
            65  2u222dud   0.05330 0.00284
            67  2u222udd   0.07948 0.00632
            68  2u22u2dd   0.06036 0.00364
            71  2u22ud2d  -0.05193 0.00270
            84  u222220d  -0.07881 0.00621
            94  u222d202  -0.19320 0.03733
           173  20222u2d  -0.05786 0.00335
           174  2022u22d  -0.08843 0.00782
           195  02222202   0.06215 0.00386
 
      printout of CI-coefficients larger than  0.05 for root  5
      energy=    -453.633003
      conf/sym  11111111     Coeff  Weight
             7  22222u0d   0.84549 0.71485
             8  2222u20d  -0.41161 0.16942
            24  222u220d  -0.11011 0.01212
            44  22u2220d  -0.07341 0.00539
            65  2u222dud  -0.13091 0.01714
            67  2u222udd  -0.18343 0.03365
            94  u222d202  -0.09662 0.00934
           173  20222u2d   0.12564 0.01579
 
      printout of CI-coefficients larger than  0.05 for root  6
      energy=    -453.623289
      conf/sym  11111111     Coeff  Weight
             1  22222200   0.11647 0.01357
             2  22222ud0  -0.85965 0.73900
             4  22222020  -0.16937 0.02869
             7  22222u0d   0.07609 0.00579
             8  2222u20d   0.15827 0.02505
            19  22220ud2   0.07596 0.00577
            21  222u22d0  -0.07323 0.00536
            24  222u220d   0.27734 0.07692
            25  222u2dud  -0.06972 0.00486
            27  222u2udd  -0.10004 0.01001
            62  2u222d20   0.21011 0.04415
            85  u2222dud   0.05201 0.00271
            87  u2222udd   0.08305 0.00690
           171  20222220   0.10460 0.01094
           196  02222ud2   0.07092 0.00503
 
      printout of CI-coefficients larger than  0.05 for root  7
      energy=    -453.604963
      conf/sym  11111111     Coeff  Weight
             2  22222ud0   0.28917 0.08362
             4  22222020   0.07087 0.00502
             7  22222u0d   0.12434 0.01546
            24  222u220d   0.85652 0.73363
            25  222u2dud  -0.20646 0.04262
            27  222u2udd  -0.28967 0.08391
            62  2u222d20  -0.06622 0.00439
           208  2u2u2d2d  -0.06699 0.00449
           261  202u222d   0.07905 0.00625
 
      Natural orbitals and occupation numbers for root  1
      sym 1:   1.968586   1.951327   1.999845   1.999754   1.995577   1.996784   0.052113   0.036015
 
      Natural orbitals and occupation numbers for root  2
      sym 1:   1.967483   1.999913   1.999818   1.004810   1.995877   1.999573   0.995645   0.036880
 
      Natural orbitals and occupation numbers for root  3
      sym 1:   1.999940   1.996336   1.002408   1.999535   1.999447   1.949128   0.054313   0.998893
 
      Natural orbitals and occupation numbers for root  4
      sym 1:   1.976895   1.973254   1.999573   1.998610   1.105563   1.930258   0.083573   0.932272
 
      Natural orbitals and occupation numbers for root  5
      sym 1:   1.997701   1.911121   1.999712   1.991006   1.980377   1.039103   0.092668   0.988311
 
      Natural orbitals and occupation numbers for root  6
      sym 1:   1.975864   1.960232   1.999711   1.900969   1.991669   1.101938   0.936335   0.133282
 
      Natural orbitals and occupation numbers for root  7
      sym 1:   1.998441   1.980248   1.999482   1.240664   1.993871   1.846039   0.169277   0.771977
 
      ************************************************************************************************************************
      *                                                                                                                      *
      *                                                    Final results                                                     *
      *                                                                                                                      *
      ************************************************************************************************************************
 
 
++    Wave function specifications:
      -----------------------------
 
      Number of closed shell electrons          58
      Number of electrons in active shells      12
      Max number of holes in RAS1 space          0
      Max nr of electrons in RAS3 space          0
      Number of inactive orbitals               29
      Number of active orbitals                  8
      Number of secondary orbitals             172
      Spin quantum number                      0.0
      State symmetry                             1
--
 
++    Orbital specifications:
      -----------------------
 
      Symmetry species                           1
                                                 a
      Frozen orbitals                            0
      Inactive orbitals                         29
      Active orbitals                            8
      RAS1 orbitals                              0
      RAS2 orbitals                              8
      RAS3 orbitals                              0
      Secondary orbitals                       172
      Deleted orbitals                           3
      Number of basis functions                212
--
 
++    CI expansion specifications:
      ----------------------------
 
      Number of CSFs                           336
      Number of determinants                   406
      Number of root(s) required                 7
      CI roots used                              1     2     3     4     5     6     7
      weights                                0.143 0.143 0.143 0.143 0.143 0.143 0.143
      highest root included in the CI            7
      Root passed to geometry opt.               7
--
 
++    Final optimization conditions:
      ------------------------------
 
      Average CI energy                            -453.70748994
      RASSCF energy for state  7                   -453.60496322
      Super-CI energy                                -0.00000000
      RASSCF energy change                            0.00000000
      Max change in MO coefficients               0.600E-04
      Max non-diagonal density matrix element    -0.625E-04
      Maximum BLB matrix element                  0.267E-05
      (orbital pair  30,  38 in symmetry   1)
      Norm of electronic gradient            0.359E+00
--
 
 
      Final state energy(ies):
      ------------------------
 
::    RASSCF root number  1 Total energy:   -453.96105859
::    RASSCF root number  2 Total energy:   -453.75261337
::    RASSCF root number  3 Total energy:   -453.73467621
::    RASSCF root number  4 Total energy:   -453.64282558
::    RASSCF root number  5 Total energy:   -453.63300342
::    RASSCF root number  6 Total energy:   -453.62328918
::    RASSCF root number  7 Total energy:   -453.60496322
 
++    Molecular orbitals:
      -------------------
 
      Pseudonatural active orbitals and approximate occupation numbers
 
 
 
 
      Molecular orbitals for symmetry species 1: a  
 
 
      Orbital                 1         2         3         4         5         6         7         8         9        10
      Energy           -20.5983  -20.5169  -15.6344  -15.5817  -11.3402  -11.2855  -11.2848  -11.2614  -11.2545   -1.4233
      Occ. No.           2.0000    2.0000    2.0000    2.0000    2.0000    2.0000    2.0000    2.0000    2.0000    2.0000
 
     1 C1     1s         0.0003   -0.0001    0.0003    0.0000    1.0000    0.0000    0.0001   -0.0000   -0.0036   -0.0401
     2 C1     2s         0.0008   -0.0005    0.0014    0.0003    0.0024   -0.0009    0.0000   -0.0000   -0.0001    0.3450
     3 C1     3s        -0.0006   -0.0004    0.0006    0.0002    0.0000   -0.0008    0.0000   -0.0001   -0.0004   -0.0121
     4 C1     4s        -0.0004   -0.0001    0.0001    0.0001    0.0013   -0.0003   -0.0000   -0.0000   -0.0001    0.0014
     5 C1     2px       -0.0011   -0.0004    0.0017   -0.0001    0.0012   -0.0002    0.0004   -0.0001   -0.0002   -0.0496
     6 C1     3px       -0.0007   -0.0006    0.0012   -0.0001    0.0014   -0.0005    0.0002   -0.0002    0.0004    0.0147
     7 C1     4px        0.0001   -0.0001   -0.0001   -0.0000    0.0006   -0.0003   -0.0001   -0.0001    0.0003   -0.0155
     8 C1     2py        0.0027   -0.0002    0.0000   -0.0001    0.0010   -0.0001    0.0005   -0.0002   -0.0006    0.0955
     9 C1     3py        0.0019   -0.0003   -0.0001   -0.0000    0.0008   -0.0006    0.0003   -0.0002    0.0002   -0.0677
    10 C1     4py       -0.0003   -0.0001   -0.0000    0.0000    0.0007   -0.0004   -0.0001   -0.0001    0.0003    0.0225
    11 C1     2pz        0.0006    0.0001   -0.0002   -0.0001    0.0002    0.0002   -0.0001   -0.0000   -0.0000    0.0207
    12 C1     3pz        0.0003    0.0001   -0.0000   -0.0001    0.0001    0.0001   -0.0001    0.0000    0.0001   -0.0177
    13 C1     4pz       -0.0001    0.0000    0.0000   -0.0001    0.0001   -0.0001   -0.0000    0.0000    0.0000    0.0067
    14 C1     3d2-       0.0002   -0.0000    0.0001   -0.0000   -0.0004    0.0000    0.0000   -0.0000    0.0000   -0.0311
    15 C1     3d1-      -0.0000   -0.0000   -0.0000    0.0000    0.0002   -0.0000   -0.0000    0.0000   -0.0000    0.0145
    16 C1     3d0       -0.0000    0.0000    0.0001   -0.0000   -0.0004   -0.0001   -0.0000   -0.0000    0.0001   -0.0243
    17 C1     3d1+       0.0000    0.0000   -0.0000    0.0000   -0.0001   -0.0000   -0.0000   -0.0000    0.0000   -0.0099
    18 C1     3d2+       0.0001    0.0000   -0.0002   -0.0000   -0.0001    0.0000    0.0000    0.0000   -0.0000   -0.0106
    19 C3     1s         0.0001   -0.0000    0.0005   -0.0000   -0.0001    0.8968    0.4413    0.0001   -0.0000   -0.0093
    20 C3     2s         0.0006   -0.0003    0.0025   -0.0001    0.0007   -0.0008   -0.0009    0.0008    0.0003    0.0220
    21 C3     3s         0.0003   -0.0002    0.0013   -0.0001    0.0004   -0.0022   -0.0012    0.0004    0.0002   -0.0169
    22 C3     4s         0.0000   -0.0001    0.0002   -0.0001    0.0000    0.0007    0.0003    0.0000    0.0000   -0.0018
    23 C3     2px        0.0001   -0.0001   -0.0005   -0.0001    0.0005   -0.0007    0.0001    0.0002    0.0004   -0.0252
    24 C3     3px        0.0001   -0.0002   -0.0002   -0.0001    0.0008   -0.0010    0.0003    0.0002    0.0006   -0.0096
    25 C3     4px        0.0000   -0.0001    0.0001   -0.0001    0.0003   -0.0006   -0.0001   -0.0000    0.0001   -0.0037
    26 C3     2py       -0.0003    0.0006   -0.0008   -0.0004    0.0004   -0.0008   -0.0001    0.0005   -0.0002   -0.0157
    27 C3     3py       -0.0002    0.0004   -0.0002   -0.0004    0.0005   -0.0007    0.0001    0.0005   -0.0001    0.0014
    28 C3     4py        0.0000   -0.0001    0.0001   -0.0000    0.0001   -0.0008   -0.0003    0.0000    0.0000   -0.0031
    29 C3     2pz        0.0003   -0.0001   -0.0004    0.0001   -0.0005    0.0007    0.0004   -0.0003    0.0001   -0.0020
    30 C3     3pz        0.0003    0.0000   -0.0004    0.0003   -0.0007    0.0007   -0.0002   -0.0001    0.0001   -0.0008
    31 C3     4pz        0.0000    0.0001    0.0001    0.0002   -0.0001   -0.0000   -0.0002    0.0001   -0.0000    0.0016
    32 C3     3d2-       0.0000    0.0001    0.0000    0.0000    0.0000   -0.0001    0.0001   -0.0000    0.0000    0.0036
    33 C3     3d1-      -0.0000   -0.0001    0.0000    0.0000    0.0000    0.0000   -0.0000   -0.0000   -0.0000   -0.0000
    34 C3     3d0       -0.0000   -0.0000    0.0001    0.0000   -0.0001   -0.0001   -0.0000    0.0001   -0.0000   -0.0020
    35 C3     3d1+       0.0000   -0.0001    0.0000   -0.0000   -0.0000    0.0001    0.0000   -0.0000    0.0000   -0.0011
    36 C3     3d2+      -0.0000   -0.0000    0.0001   -0.0000    0.0000    0.0001   -0.0000    0.0000   -0.0000   -0.0011
    37 C4     1s         0.0000    0.0003   -0.0003    0.0003   -0.0002    0.4416   -0.8972    0.0003    0.0000   -0.0008
    38 C4     2s         0.0000    0.0008   -0.0021    0.0012   -0.0015    0.0020   -0.0019   -0.0007   -0.0000    0.0319
    39 C4     3s        -0.0000   -0.0005   -0.0015    0.0005   -0.0012    0.0003   -0.0000   -0.0006   -0.0001    0.0092
    40 C4     4s        -0.0001   -0.0004   -0.0004    0.0001   -0.0004    0.0006   -0.0013   -0.0002   -0.0001    0.0037
    41 C4     2px        0.0003   -0.0001    0.0004    0.0007    0.0003   -0.0001   -0.0009   -0.0001    0.0001   -0.0091
    42 C4     3px        0.0005   -0.0000    0.0005    0.0006    0.0004    0.0001   -0.0003   -0.0005    0.0001   -0.0119
    43 C4     4px        0.0001   -0.0000    0.0001   -0.0000    0.0001    0.0003   -0.0001   -0.0003    0.0001   -0.0035
    44 C4     2py        0.0003   -0.0021   -0.0001    0.0013    0.0000   -0.0000   -0.0008   -0.0004    0.0004   -0.0152
    45 C4     3py        0.0003   -0.0014    0.0002    0.0010    0.0002    0.0003   -0.0005   -0.0007    0.0004   -0.0127
    46 C4     4py        0.0000    0.0002    0.0002   -0.0001    0.0001    0.0003   -0.0000   -0.0003    0.0000   -0.0035
    47 C4     2pz       -0.0004   -0.0021   -0.0008   -0.0004   -0.0003    0.0009    0.0006   -0.0001   -0.0002    0.0078
    48 C4     3pz       -0.0007   -0.0014   -0.0007   -0.0003   -0.0003    0.0004    0.0003    0.0006   -0.0003    0.0131
    49 C4     4pz       -0.0002    0.0002   -0.0000    0.0001   -0.0000   -0.0002    0.0002    0.0005   -0.0001    0.0031
    50 C4     3d2-      -0.0000    0.0000    0.0000   -0.0001   -0.0000    0.0000   -0.0002    0.0001   -0.0000    0.0007
    51 C4     3d1-      -0.0000   -0.0002    0.0001   -0.0000   -0.0000    0.0001   -0.0003   -0.0000   -0.0000    0.0014
    52 C4     3d0       -0.0000    0.0000   -0.0000    0.0001    0.0000    0.0000    0.0000   -0.0000   -0.0000    0.0006
    53 C4     3d1+      -0.0000   -0.0001    0.0000   -0.0000    0.0000   -0.0000   -0.0000   -0.0000   -0.0000   -0.0003
    54 C4     3d2+       0.0000    0.0000   -0.0001    0.0001    0.0000   -0.0001    0.0003   -0.0001    0.0000   -0.0012
    55 C6     1s         0.0001    0.0001    0.0000    0.0003   -0.0001   -0.0000    0.0005    0.9997   -0.0000    0.0002
    56 C6     2s         0.0003    0.0006    0.0003    0.0014   -0.0004    0.0006    0.0006    0.0000   -0.0002    0.0061
    57 C6     3s         0.0001    0.0004    0.0001    0.0003   -0.0004    0.0004    0.0007   -0.0016   -0.0002    0.0065
    58 C6     4s        -0.0000    0.0001    0.0000   -0.0001   -0.0001    0.0000    0.0003    0.0009   -0.0001    0.0029
    59 C6     2px        0.0001   -0.0000   -0.0000   -0.0002    0.0000   -0.0002   -0.0002    0.0000    0.0001   -0.0034
    60 C6     3px        0.0001   -0.0000   -0.0000    0.0001    0.0000   -0.0001   -0.0003    0.0001    0.0001   -0.0030
    61 C6     4px        0.0000    0.0000   -0.0000    0.0001   -0.0000    0.0000   -0.0001   -0.0003    0.0000   -0.0001
    62 C6     2py        0.0001   -0.0003    0.0001    0.0000   -0.0000    0.0002   -0.0004    0.0002    0.0000   -0.0027
    63 C6     3py        0.0001   -0.0002    0.0001    0.0002    0.0001    0.0002   -0.0005    0.0000    0.0001   -0.0034
    64 C6     4py        0.0000    0.0001   -0.0000    0.0001    0.0000    0.0000   -0.0001   -0.0002    0.0000   -0.0009
    65 C6     2pz        0.0000    0.0002    0.0001    0.0004   -0.0003    0.0001    0.0003    0.0001   -0.0001    0.0051
    66 C6     3pz        0.0000    0.0002    0.0000   -0.0001   -0.0003   -0.0000    0.0003   -0.0003   -0.0001    0.0049
    67 C6     4pz       -0.0000    0.0000   -0.0000   -0.0002   -0.0000   -0.0001    0.0000    0.0006   -0.0000    0.0007
    68 C6     3d2-       0.0000    0.0000   -0.0000   -0.0000    0.0000    0.0000   -0.0000    0.0000   -0.0000    0.0000
    69 C6     3d1-       0.0000   -0.0000    0.0000   -0.0000    0.0000   -0.0000    0.0000   -0.0000    0.0000   -0.0003
    70 C6     3d0       -0.0000    0.0000    0.0000   -0.0001   -0.0000    0.0000    0.0000   -0.0001   -0.0000    0.0003
    71 C6     3d1+       0.0000   -0.0000    0.0000    0.0001    0.0000   -0.0000    0.0000    0.0001    0.0000   -0.0003
    72 C6     3d2+       0.0000   -0.0000    0.0000    0.0000   -0.0000   -0.0000    0.0000   -0.0000   -0.0000    0.0000
    73 C19    1s         0.0001    0.0000   -0.0000   -0.0000    0.0035    0.0001    0.0001   -0.0000    0.9999   -0.0135
    74 C19    2s         0.0009    0.0001   -0.0002   -0.0003    0.0002    0.0004    0.0006   -0.0001    0.0018   -0.0068
    75 C19    3s         0.0006    0.0000   -0.0001   -0.0002   -0.0000    0.0000    0.0004   -0.0001   -0.0005   -0.0359
    76 C19    4s         0.0001   -0.0000   -0.0001   -0.0001    0.0001   -0.0001    0.0001   -0.0001    0.0013   -0.0035
    77 C19    2px        0.0008    0.0002   -0.0004   -0.0000   -0.0003   -0.0000    0.0001   -0.0000   -0.0002   -0.0085
    78 C19    3px        0.0005    0.0002   -0.0004   -0.0000   -0.0005   -0.0000    0.0001   -0.0000   -0.0001   -0.0068
    79 C19    4px       -0.0002    0.0000    0.0000    0.0000   -0.0000    0.0000   -0.0000    0.0000    0.0002    0.0076
    80 C19    2py       -0.0002   -0.0001    0.0003   -0.0001    0.0004    0.0001    0.0001   -0.0001   -0.0002    0.0182
    81 C19    3py       -0.0003   -0.0001    0.0003   -0.0001   -0.0001   -0.0000    0.0000   -0.0001    0.0000   -0.0090
    82 C19    4py       -0.0001   -0.0000   -0.0001    0.0000   -0.0001   -0.0001   -0.0001   -0.0000    0.0004    0.0047
    83 C19    2pz        0.0001   -0.0002    0.0001    0.0001    0.0002    0.0001    0.0001   -0.0000   -0.0000    0.0053
    84 C19    3pz        0.0000   -0.0002    0.0000    0.0001    0.0001    0.0001    0.0001   -0.0000    0.0000   -0.0004
    85 C19    4pz       -0.0000   -0.0000   -0.0000   -0.0000   -0.0000   -0.0000    0.0000    0.0000    0.0000    0.0008
    86 C19    3d2-       0.0001    0.0000   -0.0000   -0.0000    0.0000    0.0000    0.0000    0.0000   -0.0001    0.0004
    87 C19    3d1-      -0.0000   -0.0000    0.0000   -0.0000    0.0000    0.0000    0.0000    0.0000   -0.0000    0.0017
    88 C19    3d0       -0.0001   -0.0000   -0.0001   -0.0000    0.0001   -0.0000   -0.0000    0.0000    0.0001    0.0014
    89 C19    3d1+      -0.0000   -0.0000   -0.0000   -0.0000    0.0000   -0.0000    0.0000   -0.0000   -0.0000    0.0000
    90 C19    3d2+       0.0001    0.0000   -0.0000    0.0000   -0.0001   -0.0000   -0.0000    0.0000    0.0001   -0.0065
    91 N2     1s         0.0001    0.0001    0.9998   -0.0000   -0.0002    0.0001   -0.0000    0.0000    0.0001   -0.0175
    92 N2     2s         0.0005    0.0007   -0.0005    0.0001   -0.0001    0.0013    0.0002    0.0001    0.0006    0.1144
    93 N2     3s         0.0004    0.0005   -0.0017    0.0001   -0.0003    0.0007    0.0000    0.0001    0.0005   -0.0481
    94 N2     4s         0.0001    0.0001    0.0004    0.0001    0.0001    0.0003    0.0000    0.0000    0.0001   -0.0117
    95 N2     2px        0.0001    0.0001    0.0004    0.0000   -0.0002    0.0004    0.0003   -0.0000   -0.0003   -0.0308
    96 N2     3px        0.0001    0.0001    0.0004    0.0001    0.0000    0.0001    0.0002   -0.0001   -0.0002    0.0148
    97 N2     4px        0.0000   -0.0000   -0.0003    0.0000   -0.0002   -0.0001   -0.0000   -0.0000    0.0001   -0.0058
    98 N2     2py       -0.0012    0.0001   -0.0006    0.0000    0.0002    0.0005    0.0002   -0.0000   -0.0001    0.0357
    99 N2     3py       -0.0015   -0.0000   -0.0002    0.0000    0.0002    0.0004    0.0002   -0.0000    0.0000    0.0102
   100 N2     4py       -0.0000   -0.0001    0.0005   -0.0000   -0.0000    0.0002    0.0001   -0.0000    0.0001   -0.0056
   101 N2     2pz       -0.0004    0.0001   -0.0005   -0.0002   -0.0001   -0.0004   -0.0002    0.0001   -0.0003    0.0127
   102 N2     3pz       -0.0004    0.0002   -0.0001   -0.0003   -0.0004   -0.0006   -0.0000    0.0001   -0.0004    0.0186
   103 N2     4pz        0.0000    0.0000   -0.0004   -0.0000   -0.0001   -0.0001   -0.0000    0.0000   -0.0001    0.0005
   104 N2     3d2-       0.0001    0.0000   -0.0001    0.0000   -0.0001    0.0000   -0.0000    0.0000   -0.0000   -0.0032
   105 N2     3d1-       0.0000    0.0000    0.0001   -0.0000   -0.0001    0.0000    0.0000    0.0000    0.0000   -0.0011
   106 N2     3d0       -0.0000   -0.0000    0.0001    0.0000    0.0001    0.0001    0.0000   -0.0000   -0.0001   -0.0028
   107 N2     3d1+       0.0000   -0.0000   -0.0000   -0.0000    0.0000    0.0000    0.0000    0.0000   -0.0000   -0.0013
   108 N2     3d2+      -0.0000   -0.0000   -0.0000   -0.0000    0.0001   -0.0000    0.0000   -0.0000    0.0000    0.0041
   109 N5     1s        -0.0000    0.0001    0.0001    0.9999    0.0001   -0.0001    0.0002    0.0001   -0.0000   -0.0012
   110 N5     2s        -0.0001    0.0008    0.0004    0.0006    0.0005   -0.0001    0.0002    0.0017   -0.0000    0.0031
   111 N5     3s        -0.0000    0.0006    0.0003   -0.0011    0.0003   -0.0002    0.0003    0.0010   -0.0000   -0.0030
   112 N5     4s        -0.0000    0.0001    0.0001    0.0006    0.0001   -0.0000   -0.0000    0.0004   -0.0000   -0.0004
   113 N5     2px       -0.0001   -0.0004   -0.0003   -0.0001    0.0000   -0.0001   -0.0003    0.0004    0.0000    0.0008
   114 N5     3px       -0.0002   -0.0005   -0.0003   -0.0000    0.0001   -0.0002   -0.0002    0.0003    0.0000    0.0016
   115 N5     4px       -0.0000    0.0000    0.0000   -0.0001    0.0000   -0.0000    0.0001    0.0000   -0.0000    0.0000
   116 N5     2py        0.0001    0.0005   -0.0003    0.0005    0.0001   -0.0006    0.0000    0.0003    0.0001   -0.0054
   117 N5     3py        0.0001    0.0006   -0.0003    0.0002    0.0003   -0.0004   -0.0001    0.0001    0.0002   -0.0045
   118 N5     4py       -0.0000    0.0000    0.0000   -0.0002    0.0001   -0.0000    0.0002   -0.0001    0.0000   -0.0008
   119 N5     2pz        0.0003    0.0015    0.0003    0.0008   -0.0002    0.0002    0.0004   -0.0008   -0.0001    0.0004
   120 N5     3pz        0.0004    0.0018    0.0004    0.0004   -0.0005    0.0004    0.0005   -0.0009   -0.0001    0.0025
   121 N5     4pz        0.0000    0.0000    0.0000   -0.0003   -0.0001    0.0001   -0.0001   -0.0002   -0.0000    0.0017
   122 N5     3d2-       0.0000    0.0000    0.0000   -0.0001    0.0000    0.0000    0.0001   -0.0001   -0.0000   -0.0001
   123 N5     3d1-       0.0000   -0.0000   -0.0000    0.0002    0.0000   -0.0000   -0.0000    0.0000    0.0000   -0.0003
   124 N5     3d0        0.0000    0.0001   -0.0000   -0.0001   -0.0000   -0.0001    0.0001   -0.0000    0.0000   -0.0001
   125 N5     3d1+      -0.0000   -0.0001   -0.0000    0.0001   -0.0000    0.0000   -0.0001    0.0000   -0.0000    0.0001
   126 N5     3d2+      -0.0000   -0.0000   -0.0000   -0.0000   -0.0000   -0.0000   -0.0001    0.0000   -0.0000    0.0002
   127 O7     1s         0.9997    0.0000    0.0000   -0.0000   -0.0003   -0.0000   -0.0000    0.0000    0.0000   -0.0239
   128 O7     2s        -0.0013    0.0002    0.0001   -0.0001    0.0003   -0.0001   -0.0001    0.0000    0.0003    0.6915
   129 O7     3s        -0.0013    0.0002    0.0001   -0.0000   -0.0001   -0.0000   -0.0001    0.0000    0.0002   -0.0341
   130 O7     4s         0.0001    0.0001   -0.0000   -0.0000   -0.0000    0.0000   -0.0000    0.0000    0.0001   -0.0138
   131 O7     2px        0.0002    0.0001   -0.0003    0.0000    0.0003   -0.0001   -0.0001    0.0000    0.0001    0.0850
   132 O7     3px       -0.0003    0.0002   -0.0004    0.0000   -0.0002   -0.0001   -0.0000    0.0000    0.0001   -0.0222
   133 O7     4px        0.0008    0.0000   -0.0001    0.0000    0.0000   -0.0000    0.0000    0.0000   -0.0000   -0.0007
   134 O7     2py       -0.0002    0.0000   -0.0002    0.0000   -0.0006    0.0000   -0.0001    0.0000   -0.0001   -0.1192
   135 O7     3py        0.0005    0.0000   -0.0001    0.0000   -0.0003   -0.0000   -0.0001    0.0000   -0.0001    0.0365
   136 O7     4py       -0.0011    0.0000    0.0001    0.0000   -0.0003   -0.0000   -0.0000    0.0000    0.0000   -0.0000
   137 O7     2pz       -0.0001   -0.0001   -0.0001    0.0000   -0.0001    0.0000   -0.0000   -0.0000   -0.0001   -0.0302
   138 O7     3pz        0.0001   -0.0001    0.0000   -0.0000   -0.0001   -0.0000    0.0000   -0.0000   -0.0001    0.0104
   139 O7     4pz       -0.0003   -0.0000    0.0000   -0.0000   -0.0001   -0.0000    0.0000   -0.0000   -0.0000    0.0004
   140 O7     3d2-       0.0001   -0.0000    0.0000   -0.0000   -0.0002    0.0000    0.0000    0.0000    0.0000   -0.0172
   141 O7     3d1-      -0.0000    0.0000    0.0000   -0.0000    0.0001   -0.0000    0.0000   -0.0000    0.0000    0.0064
   142 O7     3d0       -0.0000    0.0000   -0.0000    0.0000   -0.0000    0.0000   -0.0000   -0.0000   -0.0000   -0.0093
   143 O7     3d1+       0.0000   -0.0000    0.0000   -0.0000   -0.0000    0.0000   -0.0000   -0.0000   -0.0000   -0.0044
   144 O7     3d2+       0.0000    0.0000   -0.0001   -0.0000   -0.0001   -0.0000   -0.0000    0.0000   -0.0000   -0.0068
   145 O8     1s         0.0000    0.9997   -0.0000    0.0000    0.0000   -0.0001    0.0002   -0.0000    0.0000   -0.0017
   146 O8     2s         0.0002   -0.0011   -0.0002    0.0002    0.0001    0.0002   -0.0006   -0.0003    0.0001    0.0241
   147 O8     3s         0.0001   -0.0012   -0.0001    0.0001    0.0001    0.0000   -0.0001   -0.0001    0.0000   -0.0039
   148 O8     4s         0.0001    0.0002   -0.0000    0.0000    0.0000    0.0000   -0.0001   -0.0000   -0.0000   -0.0011
   149 O8     2px       -0.0001    0.0000    0.0000   -0.0002    0.0000    0.0002   -0.0003   -0.0000    0.0001    0.0001
   150 O8     3px       -0.0002   -0.0001    0.0000   -0.0001    0.0001    0.0001    0.0001   -0.0000    0.0001   -0.0014
   151 O8     4px       -0.0001    0.0001    0.0000   -0.0000    0.0000    0.0000    0.0000    0.0000    0.0000   -0.0007
   152 O8     2py       -0.0000    0.0002   -0.0000   -0.0002    0.0000    0.0003   -0.0005   -0.0001    0.0000    0.0030
   153 O8     3py       -0.0001   -0.0004    0.0000   -0.0003    0.0001    0.0002   -0.0001   -0.0000    0.0000   -0.0021
   154 O8     4py       -0.0001    0.0010    0.0000   -0.0001    0.0000    0.0001   -0.0001    0.0000    0.0000   -0.0000
   155 O8     2pz        0.0001    0.0002   -0.0001    0.0002   -0.0001    0.0001   -0.0005   -0.0000   -0.0000    0.0054
   156 O8     3pz        0.0001   -0.0003   -0.0000    0.0001   -0.0001   -0.0001   -0.0002    0.0000   -0.0000   -0.0005
   157 O8     4pz        0.0000    0.0009   -0.0000   -0.0001   -0.0000    0.0000   -0.0002    0.0000   -0.0000    0.0010
   158 O8     3d2-       0.0000    0.0000    0.0000    0.0000   -0.0000    0.0000   -0.0000   -0.0000   -0.0000    0.0001
   159 O8     3d1-       0.0000   -0.0001   -0.0000    0.0000   -0.0000    0.0001   -0.0002   -0.0000    0.0000    0.0007
   160 O8     3d0        0.0000    0.0000   -0.0000    0.0001   -0.0000    0.0000   -0.0000    0.0000   -0.0000    0.0003
   161 O8     3d1+      -0.0000   -0.0001   -0.0000   -0.0000    0.0000    0.0000   -0.0001   -0.0000    0.0000   -0.0001
   162 O8     3d2+      -0.0000    0.0000    0.0000   -0.0000    0.0000   -0.0001    0.0001    0.0000   -0.0000   -0.0003
   163 H9     1s         0.0003   -0.0002    0.0001    0.0002    0.0002   -0.0000   -0.0000   -0.0001    0.0004    0.0131
   164 H9     2s         0.0002   -0.0001    0.0000    0.0001    0.0002   -0.0001    0.0000   -0.0000   -0.0002    0.0034
   165 H9     2px       -0.0000   -0.0000    0.0000    0.0000    0.0001   -0.0000   -0.0000   -0.0000    0.0000    0.0011
   166 H9     2py       -0.0000    0.0000   -0.0000   -0.0000    0.0000   -0.0000   -0.0000   -0.0000    0.0000    0.0010
   167 H9     2pz        0.0000   -0.0000    0.0000    0.0000    0.0001   -0.0000    0.0000   -0.0000   -0.0001    0.0005
   168 H10    1s         0.0002    0.0000   -0.0001   -0.0001   -0.0000   -0.0004   -0.0000   -0.0000    0.0003    0.0101
   169 H10    2s         0.0002    0.0000   -0.0000   -0.0001   -0.0000   -0.0003   -0.0000   -0.0000   -0.0002   -0.0008
   170 H10    2px       -0.0000   -0.0000    0.0000   -0.0000    0.0000   -0.0001   -0.0000   -0.0000   -0.0000    0.0006
   171 H10    2py       -0.0000   -0.0000   -0.0000    0.0000    0.0000   -0.0000    0.0000   -0.0000    0.0000    0.0008
   172 H10    2pz       -0.0000    0.0000    0.0000    0.0000   -0.0000    0.0000   -0.0000    0.0000    0.0001   -0.0004
   173 H11    1s        -0.0004   -0.0002    0.0004   -0.0000    0.0004   -0.0000   -0.0000   -0.0000    0.0004    0.0159
   174 H11    2s        -0.0002   -0.0001    0.0003   -0.0000    0.0002   -0.0000   -0.0000   -0.0000   -0.0002    0.0032
   175 H11    2px       -0.0000    0.0000   -0.0001    0.0000   -0.0000    0.0000    0.0000    0.0000    0.0001    0.0004
   176 H11    2py       -0.0000   -0.0000    0.0000    0.0000    0.0001    0.0000   -0.0000   -0.0000   -0.0000    0.0016
   177 H11    2pz        0.0000    0.0000   -0.0000   -0.0000   -0.0000   -0.0000   -0.0000    0.0000    0.0000   -0.0009
   178 H12    1s        -0.0009   -0.0001   -0.0006   -0.0001    0.0001   -0.0004   -0.0001   -0.0000   -0.0004    0.0423
   179 H12    2s        -0.0005   -0.0000   -0.0005   -0.0000   -0.0001   -0.0002   -0.0000   -0.0000   -0.0002    0.0001
   180 H12    2px        0.0000   -0.0000    0.0002    0.0000   -0.0001    0.0001    0.0000   -0.0000    0.0000   -0.0037
   181 H12    2py       -0.0000   -0.0000   -0.0003    0.0000    0.0000    0.0000   -0.0000   -0.0000   -0.0000    0.0042
   182 H12    2pz       -0.0001    0.0000   -0.0003    0.0000    0.0001    0.0000   -0.0000   -0.0000   -0.0000    0.0031
   183 H13    1s         0.0003    0.0001   -0.0002    0.0002   -0.0003    0.0009    0.0008   -0.0003    0.0003    0.0108
   184 H13    2s         0.0003    0.0001   -0.0000    0.0001   -0.0002    0.0001    0.0003   -0.0002    0.0002   -0.0052
   185 H13    2px        0.0000   -0.0000    0.0000   -0.0000   -0.0000    0.0001   -0.0000   -0.0000   -0.0000   -0.0003
   186 H13    2py       -0.0000   -0.0000   -0.0000   -0.0000    0.0000   -0.0001   -0.0000    0.0000   -0.0000   -0.0010
   187 H13    2pz       -0.0000   -0.0000    0.0000    0.0000    0.0000   -0.0001    0.0000    0.0000   -0.0000    0.0003
   188 H14    1s         0.0000    0.0007   -0.0001   -0.0001   -0.0002    0.0007    0.0004   -0.0002   -0.0004    0.0158
   189 H14    2s         0.0000    0.0004   -0.0000   -0.0001   -0.0002    0.0001    0.0000   -0.0001   -0.0003    0.0050
   190 H14    2px       -0.0000   -0.0000    0.0000   -0.0000    0.0000    0.0000   -0.0000    0.0000    0.0000   -0.0011
   191 H14    2py       -0.0000   -0.0001    0.0000   -0.0000   -0.0000   -0.0000   -0.0000   -0.0000    0.0000   -0.0004
   192 H14    2pz        0.0000   -0.0001   -0.0000    0.0000    0.0000   -0.0000    0.0001    0.0000    0.0000   -0.0007
   193 H15    1s        -0.0004   -0.0013   -0.0001   -0.0008   -0.0001    0.0004   -0.0002   -0.0001   -0.0001    0.0088
   194 H15    2s        -0.0002   -0.0008   -0.0000   -0.0006   -0.0001    0.0002   -0.0000   -0.0000   -0.0001    0.0045
   195 H15    2px        0.0000   -0.0000    0.0000   -0.0000    0.0000   -0.0000    0.0000    0.0000   -0.0000   -0.0000
   196 H15    2py        0.0000    0.0001    0.0000    0.0003    0.0000   -0.0001    0.0001    0.0000    0.0000   -0.0007
   197 H15    2pz        0.0000    0.0001   -0.0000    0.0004    0.0000   -0.0001   -0.0000   -0.0000    0.0000   -0.0009
   198 H16    1s        -0.0001    0.0000   -0.0000   -0.0002   -0.0003    0.0000    0.0000    0.0010   -0.0001    0.0047
   199 H16    2s        -0.0000    0.0001   -0.0000   -0.0000   -0.0002    0.0000   -0.0000    0.0001   -0.0001    0.0030
   200 H16    2px       -0.0000   -0.0000    0.0000    0.0000    0.0000    0.0000    0.0000   -0.0000   -0.0000    0.0000
   201 H16    2py       -0.0000    0.0000    0.0000    0.0000   -0.0000   -0.0000    0.0000    0.0001   -0.0000    0.0003
   202 H16    2pz       -0.0000   -0.0000   -0.0000    0.0000   -0.0000    0.0000    0.0000    0.0001   -0.0000    0.0004
   203 H17    1s        -0.0001    0.0004   -0.0001   -0.0005   -0.0001   -0.0003    0.0003    0.0005   -0.0000    0.0042
   204 H17    2s        -0.0001    0.0003   -0.0001   -0.0002   -0.0001   -0.0002    0.0003   -0.0001   -0.0000    0.0030
   205 H17    2px       -0.0000    0.0000   -0.0000    0.0000    0.0000   -0.0000    0.0000   -0.0000   -0.0000    0.0002
   206 H17    2py        0.0000   -0.0000    0.0000    0.0000    0.0000    0.0000   -0.0001   -0.0000    0.0000   -0.0002
   207 H17    2pz       -0.0000    0.0000   -0.0000   -0.0000   -0.0000   -0.0000    0.0000    0.0000   -0.0000    0.0002
   208 H18    1s        -0.0001    0.0002    0.0000   -0.0004    0.0000   -0.0000    0.0003    0.0005   -0.0000    0.0029
   209 H18    2s        -0.0001    0.0001    0.0000   -0.0002    0.0000   -0.0000    0.0002   -0.0001   -0.0000    0.0019
   210 H18    2px        0.0000   -0.0000    0.0000    0.0000    0.0000    0.0000   -0.0001    0.0000    0.0000   -0.0005
   211 H18    2py        0.0000   -0.0000   -0.0000    0.0000    0.0000   -0.0000   -0.0000   -0.0000    0.0000   -0.0000
   212 H18    2pz        0.0000    0.0000    0.0000   -0.0000    0.0000   -0.0000   -0.0000    0.0000    0.0000   -0.0003
 
 
      Orbital                11        12        13        14        15        16        17        18        19        20
      Energy            -1.3598   -1.2531   -1.2118   -1.0265   -0.9697   -0.9115   -0.8103   -0.7749   -0.7157   -0.6931
      Occ. No.           2.0000    2.0000    2.0000    2.0000    2.0000    2.0000    2.0000    2.0000    2.0000    2.0000
 
     1 C1     1s         0.0038   -0.0071    0.0025   -0.0177   -0.0015    0.0070    0.0157    0.0012    0.0057    0.0040
     2 C1     2s         0.0076    0.1356    0.0104    0.2638   -0.0486   -0.0842   -0.3825   -0.0080   -0.2355   -0.0982
     3 C1     3s         0.0160    0.0030    0.0139   -0.0272   -0.0092    0.0130    0.0104    0.0039    0.0038    0.0185
     4 C1     4s         0.0047    0.0003    0.0040   -0.0076   -0.0027    0.0049    0.0037    0.0017    0.0028    0.0036
     5 C1     2px        0.0355    0.1356    0.0140   -0.0224    0.1042   -0.0986   -0.1314   -0.0013    0.1448    0.2661
     6 C1     3px        0.0185   -0.0595    0.0236   -0.0508   -0.0161    0.0332    0.0216   -0.0036   -0.0577   -0.0705
     7 C1     4px        0.0078    0.0203    0.0033   -0.0108    0.0155   -0.0082   -0.0104   -0.0000    0.0060    0.0162
     8 C1     2py        0.0080   -0.0377    0.0190   -0.1614    0.0538    0.0065   -0.0458    0.0342    0.0547   -0.1310
     9 C1     3py        0.0295    0.0445    0.0217    0.0086   -0.0501    0.0450    0.0127   -0.0082   -0.0105    0.0521
    10 C1     4py        0.0020   -0.0059    0.0041   -0.0269    0.0055    0.0057   -0.0068    0.0011   -0.0019   -0.0092
    11 C1     2pz       -0.0056   -0.0353   -0.0019   -0.0264    0.0121   -0.0007   -0.0105    0.0110    0.0067   -0.0505
    12 C1     3pz       -0.0005    0.0018   -0.0040    0.0140    0.0006   -0.0039   -0.0003    0.0016    0.0029    0.0144
    13 C1     4pz       -0.0011   -0.0032   -0.0003   -0.0009    0.0009   -0.0006   -0.0013    0.0013    0.0013   -0.0041
    14 C1     3d2-       0.0036    0.0134   -0.0001    0.0079   -0.0100    0.0078   -0.0107    0.0070    0.0148    0.0072
    15 C1     3d1-      -0.0014   -0.0046    0.0000    0.0032   -0.0021    0.0003   -0.0023   -0.0003   -0.0062   -0.0061
    16 C1     3d0        0.0004   -0.0070    0.0001   -0.0107   -0.0005    0.0054    0.0137    0.0002    0.0036    0.0016
    17 C1     3d1+      -0.0001   -0.0023   -0.0002    0.0011   -0.0020    0.0023   -0.0028    0.0027    0.0062    0.0011
    18 C1     3d2+       0.0035    0.0279   -0.0007    0.0019    0.0136   -0.0128   -0.0101   -0.0002    0.0145    0.0186
    19 C3     1s        -0.0150   -0.0306   -0.0068    0.0339    0.0246   -0.0228    0.0060   -0.0065   -0.0005    0.0019
    20 C3     2s         0.0303    0.1718    0.0141   -0.2793   -0.2543    0.3212   -0.0937    0.0703   -0.0446    0.0288
    21 C3     3s        -0.0369   -0.0536   -0.0198    0.0595    0.0392   -0.0190    0.0104   -0.0128    0.0006    0.0036
    22 C3     4s        -0.0050   -0.0120   -0.0028    0.0159    0.0104   -0.0056    0.0033   -0.0042    0.0022   -0.0014
    23 C3     2px        0.0065   -0.0521    0.0186   -0.0274   -0.0632    0.0093    0.0397   -0.0796   -0.1958    0.0159
    24 C3     3px        0.0111    0.0144    0.0111   -0.0429   -0.0090    0.0143   -0.0178    0.0195    0.0266   -0.0040
    25 C3     4px        0.0073   -0.0015    0.0044   -0.0098   -0.0055    0.0035    0.0028   -0.0018   -0.0060    0.0011
    26 C3     2py       -0.0286   -0.0877    0.0162   -0.0006   -0.0574   -0.0365   -0.1431   -0.0174   -0.0713    0.2218
    27 C3     3py       -0.0030    0.0209    0.0006   -0.0303    0.0081   -0.0283    0.0070    0.0179    0.0123   -0.0259
    28 C3     4py        0.0085   -0.0032    0.0049   -0.0092   -0.0080    0.0002   -0.0084    0.0063   -0.0024    0.0092
    29 C3     2pz       -0.0219    0.0091   -0.0200    0.0107    0.0370    0.0248   -0.0299    0.1379    0.1824   -0.0961
    30 C3     3pz        0.0085    0.0093   -0.0102   -0.0137   -0.0294    0.0051   -0.0054   -0.0114   -0.0230    0.0123
    31 C3     4pz       -0.0068    0.0078   -0.0033   -0.0072   -0.0070    0.0128   -0.0019    0.0100   -0.0009    0.0006
    32 C3     3d2-       0.0007    0.0193    0.0017   -0.0042    0.0047   -0.0007    0.0056    0.0033    0.0110   -0.0144
    33 C3     3d1-       0.0029   -0.0028   -0.0056    0.0027    0.0033    0.0019    0.0006    0.0027   -0.0043    0.0043
    34 C3     3d0        0.0033   -0.0100   -0.0005    0.0001   -0.0110   -0.0012   -0.0028   -0.0137   -0.0242    0.0137
    35 C3     3d1+      -0.0008   -0.0026   -0.0020    0.0043    0.0054    0.0008    0.0046    0.0051    0.0003   -0.0066
    36 C3     3d2+       0.0001   -0.0108    0.0003    0.0029   -0.0048   -0.0019   -0.0168   -0.0024   -0.0039    0.0133
    37 C4     1s        -0.0396    0.0087   -0.0055    0.0069    0.0151    0.0083    0.0036    0.0162    0.0026   -0.0024
    38 C4     2s         0.3632    0.0184    0.1234   -0.1081   -0.2274   -0.0445   -0.0568   -0.3970   -0.0727    0.0572
    39 C4     3s        -0.0046    0.0275    0.0096    0.0118    0.0134    0.0206    0.0040    0.0096    0.0035   -0.0021
    40 C4     4s         0.0028    0.0072    0.0028    0.0044    0.0045    0.0061    0.0011    0.0051    0.0034   -0.0022
    41 C4     2px        0.0099   -0.0242    0.0668    0.0168    0.0256   -0.0387    0.0019   -0.0613    0.0809   -0.0434
    42 C4     3px        0.0020   -0.0127    0.0082   -0.0121    0.0353    0.0471   -0.0031    0.0066   -0.0347    0.0239
    43 C4     4px        0.0016   -0.0046    0.0157   -0.0012    0.0080    0.0013   -0.0013   -0.0042    0.0014   -0.0004
    44 C4     2py       -0.0587   -0.0128    0.1634   -0.0154   -0.0352   -0.0745   -0.0215   -0.0958    0.0894   -0.0186
    45 C4     3py        0.0482   -0.0357   -0.0267   -0.0069    0.0483    0.0586   -0.0135    0.0217   -0.0402    0.0126
    46 C4     4py       -0.0157   -0.0064    0.0328   -0.0030   -0.0001   -0.0028   -0.0081   -0.0038    0.0044    0.0010
    47 C4     2pz       -0.0843    0.0487    0.0013   -0.0764   -0.1250    0.0064    0.0014    0.0055   -0.1685    0.0920
    48 C4     3pz        0.0356   -0.0135   -0.0651    0.0302   -0.0092   -0.0936    0.0125    0.0048    0.0666   -0.0432
    49 C4     4pz       -0.0237    0.0080   -0.0061   -0.0077   -0.0182   -0.0103    0.0024    0.0039   -0.0041    0.0005
    50 C4     3d2-       0.0096   -0.0004    0.0156   -0.0012   -0.0076   -0.0105    0.0010   -0.0134    0.0070   -0.0051
    51 C4     3d1-       0.0333   -0.0090   -0.0201    0.0032    0.0010   -0.0018   -0.0039    0.0125   -0.0082    0.0117
    52 C4     3d0        0.0075    0.0012   -0.0137   -0.0068   -0.0038    0.0162   -0.0039   -0.0017   -0.0131    0.0066
    53 C4     3d1+      -0.0010   -0.0034   -0.0049    0.0055    0.0060   -0.0051    0.0043    0.0103   -0.0028   -0.0003
    54 C4     3d2+      -0.0239    0.0047   -0.0058   -0.0007    0.0057    0.0114   -0.0012    0.0056   -0.0011    0.0007
    55 C6     1s        -0.0095    0.0038   -0.0349   -0.0111   -0.0381   -0.0423    0.0062    0.0074    0.0064   -0.0055
    56 C6     2s         0.0259    0.0032    0.1558    0.0969    0.2574    0.3643   -0.0362   -0.1146   -0.0494    0.0413
    57 C6     3s        -0.0147    0.0169   -0.0617   -0.0094   -0.0722   -0.0700    0.0179    0.0119    0.0172   -0.0155
    58 C6     4s        -0.0005    0.0054   -0.0102   -0.0005   -0.0157   -0.0143    0.0045    0.0034    0.0045   -0.0042
    59 C6     2px       -0.0114    0.0026   -0.0394   -0.0127   -0.0059    0.0265   -0.0121   -0.0153   -0.0665    0.0567
    60 C6     3px        0.0017   -0.0011    0.0111   -0.0015    0.0079    0.0108   -0.0025    0.0011    0.0078   -0.0088
    61 C6     4px       -0.0014   -0.0003    0.0001    0.0022    0.0060    0.0082   -0.0012   -0.0025   -0.0037    0.0027
    62 C6     2py       -0.0125   -0.0004   -0.0288   -0.0084    0.0041    0.0211    0.0012    0.0830   -0.1235    0.0931
    63 C6     3py       -0.0001   -0.0043    0.0075   -0.0002    0.0142    0.0108   -0.0027    0.0003    0.0126   -0.0093
    64 C6     4py       -0.0013   -0.0003    0.0020    0.0016    0.0059    0.0064    0.0009    0.0034   -0.0066    0.0047
    65 C6     2pz        0.0184    0.0042    0.0940    0.0216    0.0154   -0.0272    0.0372    0.1331    0.0481   -0.0837
    66 C6     3pz       -0.0030    0.0119   -0.0160   -0.0024   -0.0187    0.0039   -0.0024   -0.0075   -0.0120    0.0153
    67 C6     4pz        0.0033    0.0014    0.0018   -0.0033   -0.0124   -0.0169    0.0039    0.0113    0.0022   -0.0038
    68 C6     3d2-       0.0013   -0.0002    0.0035    0.0010    0.0012   -0.0002   -0.0001   -0.0048    0.0068   -0.0053
    69 C6     3d1-      -0.0023    0.0003   -0.0090   -0.0013   -0.0007    0.0030   -0.0007    0.0010   -0.0067    0.0057
    70 C6     3d0        0.0032   -0.0007    0.0165    0.0036    0.0053   -0.0014    0.0039    0.0152    0.0057   -0.0087
    71 C6     3d1+      -0.0032    0.0007   -0.0143   -0.0032   -0.0041    0.0021   -0.0026   -0.0061   -0.0092    0.0098
    72 C6     3d2+      -0.0002    0.0003    0.0024   -0.0002   -0.0005   -0.0008    0.0012    0.0072   -0.0046    0.0019
    73 C19    1s         0.0012   -0.0082    0.0018   -0.0569    0.0403   -0.0207   -0.0128   -0.0038   -0.0091    0.0004
    74 C19    2s         0.0073    0.0136    0.0099    0.3081   -0.2735    0.1678    0.0847    0.0309    0.0921    0.0114
    75 C19    3s         0.0081   -0.0189    0.0118   -0.1140    0.0719   -0.0320   -0.0328   -0.0082   -0.0177    0.0080
    76 C19    4s         0.0031   -0.0018    0.0039   -0.0252    0.0164   -0.0071   -0.0095   -0.0021   -0.0054    0.0022
    77 C19    2px        0.0009    0.0355    0.0026    0.0478   -0.0008   -0.0252   -0.0431   -0.0278   -0.0688    0.1141
    78 C19    3px       -0.0025    0.0096    0.0024   -0.0053    0.0046   -0.0002    0.0093    0.0005    0.0074   -0.0063
    79 C19    4px       -0.0014    0.0003   -0.0008   -0.0080    0.0117   -0.0091   -0.0028   -0.0030   -0.0063    0.0024
    80 C19    2py        0.0027    0.0021    0.0039    0.0470   -0.0104   -0.0170   -0.0690   -0.0270   -0.1925   -0.0916
    81 C19    3py        0.0041   -0.0086    0.0048   -0.0307    0.0188   -0.0045    0.0087    0.0016    0.0218    0.0146
    82 C19    4py        0.0001    0.0005    0.0001   -0.0133    0.0138   -0.0094   -0.0131   -0.0008   -0.0077   -0.0026
    83 C19    2pz        0.0040   -0.0022    0.0019    0.0097   -0.0100    0.0040   -0.0176   -0.0028   -0.0298   -0.0283
    84 C19    3pz        0.0054   -0.0021    0.0024   -0.0036   -0.0059    0.0066   -0.0035    0.0010    0.0061    0.0032
    85 C19    4pz        0.0007    0.0003    0.0003   -0.0030    0.0016   -0.0009   -0.0025   -0.0006   -0.0008   -0.0005
    86 C19    3d2-       0.0003    0.0053   -0.0003    0.0116   -0.0026   -0.0026   -0.0079   -0.0023   -0.0136   -0.0026
    87 C19    3d1-      -0.0001   -0.0007    0.0001    0.0031   -0.0018    0.0002   -0.0013   -0.0008   -0.0057   -0.0037
    88 C19    3d0       -0.0000   -0.0010   -0.0000   -0.0080    0.0035    0.0004    0.0033    0.0020    0.0080   -0.0036
    89 C19    3d1+       0.0002    0.0017    0.0002    0.0020   -0.0001   -0.0010   -0.0021   -0.0009   -0.0015    0.0054
    90 C19    3d2+       0.0006    0.0023   -0.0002   -0.0062    0.0040   -0.0007    0.0034    0.0015    0.0120    0.0053
    91 N2     1s        -0.0075   -0.0414   -0.0005   -0.0031   -0.0043    0.0013   -0.0044    0.0015    0.0025    0.0002
    92 N2     2s         0.0502    0.5795   -0.0247   -0.0148    0.2061   -0.1274    0.1475   -0.0029    0.1289   -0.0369
    93 N2     3s        -0.0203   -0.0827   -0.0059   -0.0069    0.0035   -0.0044   -0.0094    0.0080    0.0107    0.0028
    94 N2     4s        -0.0051   -0.0266   -0.0009   -0.0002   -0.0013    0.0002   -0.0034    0.0020   -0.0002    0.0008
    95 N2     2px        0.0083   -0.0317    0.0068   -0.1446   -0.0417    0.1276    0.3614   -0.0019   -0.0679   -0.2975
    96 N2     3px        0.0012   -0.0016    0.0085    0.0172    0.0380   -0.0514   -0.0869   -0.0059   -0.0080    0.0608
    97 N2     4px        0.0026    0.0027    0.0021   -0.0068    0.0071   -0.0036    0.0009   -0.0014   -0.0021    0.0074
    98 N2     2py       -0.0003    0.0092    0.0043   -0.1215   -0.0465    0.1196   -0.2017    0.1552    0.2492   -0.1449
    99 N2     3py       -0.0125   -0.0401    0.0002    0.0348    0.0454   -0.0517    0.0219   -0.0386   -0.0511    0.0204
   100 N2     4py        0.0002   -0.0114    0.0006   -0.0007    0.0041   -0.0039   -0.0077   -0.0022   -0.0011    0.0039
   101 N2     2pz       -0.0096   -0.0116    0.0078    0.0125   -0.0125    0.0044   -0.1169    0.0520    0.1277   -0.0065
   102 N2     3pz       -0.0002    0.0357    0.0044    0.0135   -0.0110    0.0000    0.0376   -0.0178   -0.0200    0.0005
   103 N2     4pz       -0.0016   -0.0005    0.0001    0.0027   -0.0025    0.0012   -0.0024   -0.0005   -0.0012    0.0017
   104 N2     3d2-       0.0011    0.0077   -0.0001   -0.0025   -0.0066    0.0093   -0.0006    0.0045    0.0055   -0.0045
   105 N2     3d1-      -0.0002    0.0020   -0.0007    0.0025    0.0042   -0.0040    0.0103   -0.0026   -0.0045    0.0001
   106 N2     3d0       -0.0010   -0.0143    0.0002    0.0014   -0.0022    0.0006    0.0066   -0.0025   -0.0069   -0.0007
   107 N2     3d1+      -0.0007   -0.0032    0.0004    0.0021   -0.0020    0.0006   -0.0064    0.0023    0.0036    0.0030
   108 N2     3d2+       0.0004    0.0050    0.0004    0.0107    0.0055   -0.0117   -0.0193   -0.0029   -0.0025    0.0142
   109 N5     1s        -0.0196    0.0019   -0.0422   -0.0018    0.0006    0.0032   -0.0016   -0.0034    0.0035   -0.0020
   110 N5     2s         0.1337   -0.0307    0.5771    0.0412   -0.0221   -0.2218    0.0662    0.1657    0.1064   -0.0986
   111 N5     3s        -0.0488    0.0050   -0.0784   -0.0028   -0.0067   -0.0126    0.0010    0.0000    0.0162   -0.0105
   112 N5     4s        -0.0116    0.0023   -0.0261   -0.0013   -0.0029   -0.0011    0.0000   -0.0021    0.0019   -0.0009
   113 N5     2px       -0.0003   -0.0047   -0.0122    0.0255    0.0794    0.0718    0.0085    0.0980   -0.0188   -0.0181
   114 N5     3px        0.0120   -0.0101   -0.0017   -0.0041   -0.0206   -0.0395   -0.0078   -0.0226    0.0022    0.0068
   115 N5     4px       -0.0042   -0.0026   -0.0002    0.0029    0.0023   -0.0023   -0.0013    0.0001    0.0004    0.0008
   116 N5     2py       -0.0349    0.0025   -0.0130    0.0272    0.1003    0.0738    0.0603    0.3669   -0.1880    0.0753
   117 N5     3py        0.0153   -0.0074    0.0178   -0.0092   -0.0105   -0.0205   -0.0093   -0.0948    0.0299   -0.0124
   118 N5     4py       -0.0030   -0.0022    0.0086    0.0021    0.0042   -0.0014    0.0005    0.0053   -0.0020    0.0019
   119 N5     2pz       -0.0260    0.0159    0.0058   -0.0372   -0.1295   -0.1233    0.0228    0.1062   -0.1614    0.1445
   120 N5     3pz       -0.0148    0.0121    0.0312    0.0318    0.0496    0.0776    0.0043   -0.0293    0.0310   -0.0286
   121 N5     4pz        0.0062    0.0018    0.0078    0.0031   -0.0005    0.0032    0.0025    0.0060   -0.0016   -0.0004
   122 N5     3d2-       0.0036   -0.0012    0.0122   -0.0006   -0.0034   -0.0047   -0.0016   -0.0096    0.0045   -0.0013
   123 N5     3d1-       0.0006   -0.0008   -0.0056    0.0010    0.0004   -0.0055    0.0026    0.0128   -0.0029    0.0021
   124 N5     3d0       -0.0030    0.0007    0.0035    0.0025    0.0082    0.0083    0.0019    0.0123   -0.0029   -0.0009
   125 N5     3d1+       0.0005   -0.0001   -0.0103   -0.0007   -0.0024   -0.0033   -0.0001   -0.0013    0.0004    0.0006
   126 N5     3d2+      -0.0044    0.0014   -0.0088    0.0004    0.0035    0.0072   -0.0001    0.0022   -0.0012   -0.0001
   127 O7     1s         0.0012    0.0029   -0.0005   -0.0042    0.0022    0.0005    0.0141   -0.0015    0.0126    0.0222
   128 O7     2s        -0.0736   -0.2991    0.0018   -0.2044    0.0585    0.0261    0.3608   -0.0408    0.2054    0.3607
   129 O7     3s        -0.0013   -0.0076   -0.0023   -0.0192    0.0095   -0.0005    0.0446   -0.0050    0.0351    0.0631
   130 O7     4s         0.0001    0.0003   -0.0007   -0.0032    0.0023   -0.0009    0.0087   -0.0011    0.0068    0.0132
   131 O7     2px       -0.0071    0.0032   -0.0024   -0.0039    0.0229   -0.0300   -0.1755    0.0245   -0.0745   -0.2054
   132 O7     3px       -0.0012    0.0049   -0.0028   -0.0057   -0.0024    0.0041    0.0242   -0.0050    0.0027    0.0173
   133 O7     4px       -0.0001    0.0016   -0.0002   -0.0006   -0.0015    0.0016    0.0024   -0.0006   -0.0006    0.0009
   134 O7     2py        0.0099    0.0393   -0.0022   -0.0322    0.0217    0.0022    0.1653   -0.0128    0.2339    0.4217
   135 O7     3py       -0.0057   -0.0015   -0.0034    0.0135   -0.0024   -0.0033   -0.0261    0.0020   -0.0289   -0.0447
   136 O7     4py       -0.0012   -0.0012   -0.0009   -0.0007   -0.0004    0.0008   -0.0033    0.0005   -0.0036   -0.0067
   137 O7     2pz        0.0025    0.0059    0.0001   -0.0063    0.0024    0.0034    0.0485   -0.0050    0.0491    0.0996
   138 O7     3pz       -0.0006    0.0002    0.0003    0.0026   -0.0002   -0.0018   -0.0066    0.0000   -0.0057   -0.0100
   139 O7     4pz       -0.0002   -0.0003   -0.0000   -0.0003    0.0003   -0.0006   -0.0008   -0.0001   -0.0003   -0.0013
   140 O7     3d2-       0.0013    0.0029   -0.0001    0.0009   -0.0021    0.0024    0.0120   -0.0011    0.0076    0.0170
   141 O7     3d1-      -0.0006   -0.0026    0.0001   -0.0002   -0.0007    0.0005   -0.0024    0.0002   -0.0046   -0.0082
   142 O7     3d0        0.0008    0.0037   -0.0001    0.0015    0.0001   -0.0002    0.0046   -0.0008    0.0044    0.0103
   143 O7     3d1+       0.0003    0.0006   -0.0000    0.0008   -0.0006    0.0006    0.0032   -0.0004    0.0014    0.0038
   144 O7     3d2+       0.0007    0.0048   -0.0002   -0.0024    0.0041   -0.0027   -0.0005    0.0006    0.0102    0.0137
   145 O8     1s        -0.0238    0.0024    0.0038    0.0007    0.0032   -0.0002    0.0015    0.0121    0.0012    0.0001
   146 O8     2s         0.6643   -0.1417   -0.3309    0.0999    0.1531    0.0054    0.0200    0.3462    0.0196    0.0204
   147 O8     3s        -0.0294   -0.0027   -0.0104    0.0057    0.0145   -0.0017    0.0027    0.0452    0.0036    0.0013
   148 O8     4s        -0.0127    0.0001   -0.0002    0.0003    0.0017   -0.0008   -0.0003    0.0094    0.0007    0.0005
   149 O8     2px        0.0202   -0.0095    0.0069    0.0044   -0.0009   -0.0213   -0.0091   -0.0364    0.0514   -0.0223
   150 O8     3px       -0.0031   -0.0037   -0.0032   -0.0030    0.0011   -0.0054    0.0024    0.0031   -0.0049   -0.0002
   151 O8     4px       -0.0007   -0.0015   -0.0012   -0.0013    0.0013   -0.0008    0.0003    0.0003   -0.0016   -0.0000
   152 O8     2py        0.1032   -0.0265   -0.0203    0.0095   -0.0065   -0.0287   -0.0240   -0.1515    0.0685   -0.0444
   153 O8     3py       -0.0327   -0.0003   -0.0015    0.0031    0.0065   -0.0038    0.0052    0.0206   -0.0050    0.0013
   154 O8     4py       -0.0010   -0.0017   -0.0001   -0.0005    0.0003   -0.0001   -0.0003    0.0023   -0.0019    0.0009
   155 O8     2pz        0.0955   -0.0040   -0.0404   -0.0167   -0.0235    0.0244   -0.0038   -0.1035   -0.0764    0.0205
   156 O8     3pz       -0.0267    0.0081    0.0078    0.0034    0.0076    0.0115   -0.0044    0.0191    0.0081    0.0008
   157 O8     4pz        0.0004    0.0021    0.0035   -0.0002   -0.0012    0.0016   -0.0018    0.0024    0.0022    0.0001
   158 O8     3d2-       0.0025   -0.0006   -0.0002    0.0011    0.0008   -0.0015   -0.0000   -0.0016    0.0032   -0.0018
   159 O8     3d1-       0.0175   -0.0027   -0.0062    0.0006   -0.0002    0.0002   -0.0012   -0.0079   -0.0003   -0.0006
[...]
AIVX     1  Mu1.0001  In1.028 Se1.047               0.03790308     -0.00002516      0.00023092     -0.00000001
AIVX     1  Mu1.0001  In1.029 Se1.047               0.07852456     -0.00030750      0.00045672     -0.00000014
AIVX     1  Mu1.0001  In1.018 Se1.048               0.28089224     -0.00114756      0.00200702     -0.00000230
AIVX     1  Mu1.0001  In1.020 Se1.048               0.23620294      0.00079813     -0.00165785     -0.00000132
AIVX     1  Mu1.0001  In1.022 Se1.048               0.13560025     -0.00062736      0.00069266     -0.00000043
AIVX     1  Mu1.0001  In1.024 Se1.048               0.20533626      0.00043089     -0.00108559     -0.00000047
AIVX     1  Mu1.0001  In1.025 Se1.048               0.14716019      0.00003660      0.00010642      0.00000000
AIVX     1  Mu1.0001  In1.026 Se1.048               0.26843517      0.00117466     -0.00215232     -0.00000253
AIVX     1  Mu1.0001  In1.027 Se1.048               0.25289959     -0.00196111      0.00301369     -0.00000591
AIVX     1  Mu1.0001  In1.028 Se1.048               0.05721311      0.00048038     -0.00122377     -0.00000059
AIVX     1  Mu1.0001  In1.029 Se1.048               0.09783459      0.00057544     -0.00141706     -0.00000082
AIVX     1  Mu1.0001  In1.018 Se1.049               0.27080727     -0.00034533      0.00092889     -0.00000032
AIVX     1  Mu1.0001  In1.020 Se1.049               0.22611798      0.00021783     -0.00075107     -0.00000016
AIVX     1  Mu1.0001  In1.022 Se1.049               0.12551529     -0.00004452     -0.00008569      0.00000000
AIVX     1  Mu1.0001  In1.024 Se1.049               0.19525130      0.00060976     -0.00123755     -0.00000075
AIVX     1  Mu1.0001  In1.025 Se1.049               0.13707522     -0.00006273     -0.00007532      0.00000000
AIVX     1  Mu1.0001  In1.026 Se1.049               0.25835020     -0.00043093      0.00034458     -0.00000015
AIVX     1  Mu1.0001  In1.027 Se1.049               0.24281462      0.00083203     -0.00129874     -0.00000108
AIVX     1  Mu1.0001  In1.028 Se1.049               0.04712814      0.00035294     -0.00085755     -0.00000030
AIVX     1  Mu1.0001  In1.029 Se1.049               0.08774962      0.00026504     -0.00067192     -0.00000018
AIVX     1  Mu1.0001  In1.018 Se1.050               0.29398082      0.00035762     -0.00125392     -0.00000045
AIVX     1  Mu1.0001  In1.020 Se1.050               0.24929153      0.00149093     -0.00272645     -0.00000406
AIVX     1  Mu1.0001  In1.022 Se1.050               0.14868883     -0.00033265      0.00004398     -0.00000001
AIVX     1  Mu1.0001  In1.024 Se1.050               0.21842484      0.00082483     -0.00171229     -0.00000141
AIVX     1  Mu1.0001  In1.025 Se1.050               0.16024877      0.00011247     -0.00015653     -0.00000002
AIVX     1  Mu1.0001  In1.026 Se1.050               0.28152375     -0.00092601      0.00158238     -0.00000147
AIVX     1  Mu1.0001  In1.027 Se1.050               0.26598817     -0.00149843      0.00215013     -0.00000322
AIVX     1  Mu1.0001  In1.028 Se1.050               0.07030169     -0.00057908      0.00175748     -0.00000102
AIVX     1  Mu1.0001  In1.029 Se1.050               0.11092317     -0.00021486      0.00087090     -0.00000019
AIVX     1  Mu1.0001  In1.020 Se1.051               0.26758008      0.00031303     -0.00071800     -0.00000022
AIVX     1  Mu1.0001  In1.022 Se1.051               0.16697739     -0.00037675      0.00066560     -0.00000025
AIVX     1  Mu1.0001  In1.024 Se1.051               0.23671340      0.00262916     -0.00443088     -0.00001165
AIVX     1  Mu1.0001  In1.025 Se1.051               0.17853732     -0.00020263      0.00028529     -0.00000006
AIVX     1  Mu1.0001  In1.026 Se1.051               0.29981230     -0.00002220     -0.00022468      0.00000000
AIVX     1  Mu1.0001  In1.027 Se1.051               0.28427673      0.00174430     -0.00273496     -0.00000477
AIVX     1  Mu1.0001  In1.028 Se1.051               0.08859025      0.00046500     -0.00113412     -0.00000053
AIVX     1  Mu1.0001  In1.029 Se1.051               0.12921173      0.00057866     -0.00106284     -0.00000062
AIVX     1  Mu1.0001  In1.020 Se1.052               0.28375305      0.00065287     -0.00044036     -0.00000029
AIVX     1  Mu1.0001  In1.022 Se1.052               0.18315036      0.00005533     -0.00009448     -0.00000001
AIVX     1  Mu1.0001  In1.024 Se1.052               0.25288637      0.00053261     -0.00102023     -0.00000054
AIVX     1  Mu1.0001  In1.025 Se1.052               0.19471030     -0.00021521      0.00045521     -0.00000010
AIVX     1  Mu1.0001  In1.028 Se1.052               0.10476322     -0.00030466      0.00050882     -0.00000016
AIVX     1  Mu1.0001  In1.029 Se1.052               0.14538470     -0.00031735      0.00014139     -0.00000004
AIVX     1  Mu1.0001  In1.022 Se1.053               0.22779878     -0.00030854      0.00011523     -0.00000004
AIVX     1  Mu1.0001  In1.024 Se1.053               0.29753479     -0.00033452      0.00030607     -0.00000010
AIVX     1  Mu1.0001  In1.025 Se1.053               0.23935872      0.00030464     -0.00021625     -0.00000007
AIVX     1  Mu1.0001  In1.028 Se1.053               0.14941164      0.00057411     -0.00143458     -0.00000082
AIVX     1  Mu1.0001  In1.029 Se1.053               0.19003312      0.00045623     -0.00094589     -0.00000043
AIVX     1  Mu1.0001  In1.022 Se1.054               0.24527548      0.00036832     -0.00062170     -0.00000023
AIVX     1  Mu1.0001  In1.025 Se1.054               0.25683542     -0.00033057      0.00087498     -0.00000029
AIVX     1  Mu1.0001  In1.028 Se1.054               0.16688834      0.00003842     -0.00033443     -0.00000001
AIVX     1  Mu1.0001  In1.029 Se1.054               0.20750982     -0.00047818      0.00129648     -0.00000062
AIVX     1  Mu1.0001  In1.022 Se1.055               0.20145442      0.00046659     -0.00045461     -0.00000021
AIVX     1  Mu1.0001  In1.024 Se1.055               0.27119043      0.00102360     -0.00112387     -0.00000115
AIVX     1  Mu1.0001  In1.025 Se1.055               0.21301436     -0.00023294      0.00021835     -0.00000005
AIVX     1  Mu1.0001  In1.028 Se1.055               0.12306728      0.00068877     -0.00154964     -0.00000107
AIVX     1  Mu1.0001  In1.029 Se1.055               0.16368876      0.00021940     -0.00046291     -0.00000010
AIVX     1  Mu1.0001  In1.022 Se1.056               0.26260043     -0.00000314      0.00020355     -0.00000000
AIVX     1  Mu1.0001  In1.025 Se1.056               0.27416036     -0.00002211      0.00026734     -0.00000001
AIVX     1  Mu1.0001  In1.028 Se1.056               0.18421328     -0.00057330      0.00164596     -0.00000094
AIVX     1  Mu1.0001  In1.029 Se1.056               0.22483476     -0.00024106      0.00026420     -0.00000006
AIVX     1  Mu1.0001  In1.022 Se1.057               0.27259713      0.00115229     -0.00199385     -0.00000230
AIVX     1  Mu1.0001  In1.025 Se1.057               0.28415706     -0.00027775      0.00059532     -0.00000017
AIVX     1  Mu1.0001  In1.028 Se1.057               0.19420999     -0.00057745      0.00162182     -0.00000094
AIVX     1  Mu1.0001  In1.029 Se1.057               0.23483147     -0.00092379      0.00184709     -0.00000171
AIVX     1  Mu1.0001  In1.022 Se1.058               0.24754350     -0.00078678      0.00105135     -0.00000083
AIVX     1  Mu1.0001  In1.025 Se1.058               0.25910344      0.00016658     -0.00028319     -0.00000005
AIVX     1  Mu1.0001  In1.028 Se1.058               0.16915636     -0.00025265      0.00063376     -0.00000016
AIVX     1  Mu1.0001  In1.029 Se1.058               0.20977784      0.00039758     -0.00061261     -0.00000024
AIVX     1  Mu1.0001  In1.022 Se1.059               0.28708293     -0.00113660      0.00219062     -0.00000249
AIVX     1  Mu1.0001  In1.025 Se1.059               0.29864286     -0.00032311      0.00061056     -0.00000020
AIVX     1  Mu1.0001  In1.028 Se1.059               0.20869578     -0.00024011      0.00071447     -0.00000017
AIVX     1  Mu1.0001  In1.029 Se1.059               0.24931726      0.00046587     -0.00074247     -0.00000035
AIVX     1  Mu1.0001  In1.028 Se1.060               0.27087371     -0.00095476      0.00206644     -0.00000197
AIVX     1  Mu1.0001  In1.022 Se1.061               0.29562941      0.00111060     -0.00171649     -0.00000191
AIVX     1  Mu1.0001  In1.028 Se1.061               0.21724227     -0.00083834      0.00199930     -0.00000168
AIVX     1  Mu1.0001  In1.029 Se1.061               0.25786375     -0.00102176      0.00198588     -0.00000203
AIVX     1  Mu1.0001  In1.028 Se1.062               0.24071734      0.00058987     -0.00123518     -0.00000073
AIVX     1  Mu1.0001  In1.029 Se1.062               0.28133882      0.00022887     -0.00043830     -0.00000010
AIVX     1  Mu1.0001  In1.028 Se1.066               0.28495357      0.00015620     -0.00043035     -0.00000007
AIVX     1  Mu1.0001  In1.028 Se1.209               0.22684573     -0.00051715      0.00146001     -0.00000076
AIVX     1  Mu1.0001  In1.029 Se1.209               0.26746721     -0.00057208      0.00098631     -0.00000056
--
 
   (Skipping property calculation,
    use PROP keyword to activate)
--
 
  Total CASPT2 energies:
::    CASPT2 Root  1     Total energy:   -455.38202094
::    CASPT2 Root  2     Total energy:   -455.17202463
::    CASPT2 Root  3     Total energy:   -455.16735318
::    CASPT2 Root  4     Total energy:   -455.13024127
::    CASPT2 Root  5     Total energy:   -455.09973292
::    CASPT2 Root  6     Total energy:   -455.12886017
::    CASPT2 Root  7     Total energy:   -455.08142653
 
++ Multi-State CASPT2 section:
********************************************************************************
  MULTI-STATE CASPT2 SECTION
--------------------------------------------------------------------------------
 
  Output diagonal energies have been shifted. Add   -455.000000000000     
 
  Effective Hamiltonian matrix (Symmetric):
 
                1               2               3               4               5
   1        -0.38202094
   2         0.00062556     -0.17202463
   3         0.00057148     -0.00006608     -0.16735318
   4        -0.01081073      0.00082284      0.00133477     -0.13024127
   5        -0.00495148      0.00001489     -0.00180014     -0.01002652     -0.09973292
   6        -0.01878327      0.00255246     -0.00018914     -0.00031344     -0.00012346
   7         0.01457172     -0.00081160      0.00053049      0.00185090      0.00006620
 
                6               7
   6        -0.12886017
   7         0.02030840     -0.08142653
 
       Total MS-CASPT2 energies:
::    MS-CASPT2 Root  1     Total energy:   -455.38483117
::    MS-CASPT2 Root  2     Total energy:   -455.17221577
::    MS-CASPT2 Root  3     Total energy:   -455.16743651
::    MS-CASPT2 Root  4     Total energy:   -455.13414320
::    MS-CASPT2 Root  5     Total energy:   -455.13265674
::    MS-CASPT2 Root  6     Total energy:   -455.09666873
::    MS-CASPT2 Root  7     Total energy:   -455.07370753
 
       Eigenvectors:
            0.99444688      0.01127735      0.00199158     -0.08325328     -0.05868344
           -0.00422350      0.99738958     -0.01149870      0.06555505      0.02752249
           -0.00252843      0.01185390      0.99917599     -0.01467752      0.01929675
            0.04347803     -0.01891364     -0.02842726     -0.12477567      0.94850675
            0.01883031     -0.00188557      0.02253345     -0.04516768      0.28161831
            0.07729721     -0.06411925      0.01100469      0.92875462      0.11218900
           -0.05321077      0.02176640     -0.00861258     -0.32918347     -0.06217797
 
           -0.00589712      0.02312183
           -0.00266257      0.00138918
           -0.02971426      0.00544909
           -0.28455209      0.02720120
            0.95790177     -0.01446788
            0.01401482      0.33826738
            0.01825076      0.94024450
 
--
 
  THE ORIGINAL CI ARRAYS ARE NOW MIXED AS LINEAR
  COMBINATIONS, GIVEN BY THE EIGENVECTORS.
  A NEW JOBIPH FILE NAMED 'JOBMIX' IS PREPARED.
********************************************************************************
 
++ Mixed CI coefficients:
  The CI coefficients for the MIXED state nr.   1
--------------------------------------------------------------------------------
 CI COEFFICIENTS LARGER THAN  0.50D-01
  Occupation of active orbitals, and spin coupling
  of open shells. (u,d: Spin up or down).
  SGUGA info is (Midvert:IsyUp:UpperWalk/LowerWalk)
        Conf  SGUGA info        Occupation    Coefficient         Weight
           1  ( 1:1:   1/   1)   22222200        0.970974       0.942791
           4  ( 1:1:   4/   1)   22222020       -0.095308       0.009084
          17  ( 1:1:  17/   1)   22220202       -0.085599       0.007327
          61  ( 2:1:   1/   3)   2u2222d0        0.080275       0.006444
          62  ( 2:1:   2/   3)   2u222d20       -0.050884       0.002589
          84  ( 2:1:   4/   4)   u222220d       -0.102304       0.010466
         171  ( 3:1:   1/   8)   20222220       -0.092057       0.008474
         195  ( 3:1:   5/  10)   02222202       -0.080629       0.006501
 
  The CI coefficients for the MIXED state nr.   2
--------------------------------------------------------------------------------
 CI COEFFICIENTS LARGER THAN  0.50D-01
  Occupation of active orbitals, and spin coupling
  of open shells. (u,d: Spin up or down).
  SGUGA info is (Midvert:IsyUp:UpperWalk/LowerWalk)
        Conf  SGUGA info        Occupation    Coefficient         Weight
           2  ( 1:1:   2/   1)   22222ud0        0.138632       0.019219
          21  ( 2:1:   1/   1)   222u22d0       -0.949971       0.902445
          22  ( 2:1:   2/   1)   222u2d20        0.102543       0.010515
          38  ( 2:1:  18/   1)   222u02d2       -0.079619       0.006339
         121  ( 3:1:   1/   3)   2u2d2220        0.190897       0.036442
         213  ( 4:1:   1/   3)   u22u22dd        0.081139       0.006584
         270  ( 5:1:   2/   9)   022u22d2        0.082320       0.006777
 
  The CI coefficients for the MIXED state nr.   3
--------------------------------------------------------------------------------
 CI COEFFICIENTS LARGER THAN  0.50D-01
  Occupation of active orbitals, and spin coupling
  of open shells. (u,d: Spin up or down).
  SGUGA info is (Midvert:IsyUp:UpperWalk/LowerWalk)
        Conf  SGUGA info        Occupation    Coefficient         Weight
           7  ( 1:1:   7/   1)   22222u0d        0.118286       0.013992
          24  ( 2:1:   4/   1)   222u220d       -0.056984       0.003247
          44  ( 2:1:   4/   2)   22u2220d        0.940114       0.883814
          45  ( 2:1:   5/   2)   22u22dud        0.062727       0.003935
          47  ( 2:1:   7/   2)   22u22udd        0.113511       0.012885
          49  ( 2:1:   9/   2)   22u2202d       -0.077218       0.005963
          54  ( 2:1:  14/   2)   22u2d202       -0.168175       0.028283
         165  ( 3:1:   5/   7)   u2d22202        0.140022       0.019606
         219  ( 4:1:   1/   4)   2uu222dd       -0.071657       0.005135
         220  ( 4:1:   2/   4)   2uu22d2d        0.063584       0.004043
         293  ( 5:1:   1/  15)   20u2222d        0.102336       0.010473
 
  The CI coefficients for the MIXED state nr.   4
--------------------------------------------------------------------------------
 CI COEFFICIENTS LARGER THAN  0.50D-01
  Occupation of active orbitals, and spin coupling
  of open shells. (u,d: Spin up or down).
  SGUGA info is (Midvert:IsyUp:UpperWalk/LowerWalk)
        Conf  SGUGA info        Occupation    Coefficient         Weight
           2  ( 1:1:   2/   1)   22222ud0       -0.879388       0.773323
           4  ( 1:1:   4/   1)   22222020       -0.170486       0.029066
           8  ( 1:1:   8/   1)   2222u20d        0.277712       0.077124
          19  ( 1:1:  19/   1)   22220ud2        0.078448       0.006154
          21  ( 2:1:   1/   1)   222u22d0       -0.128988       0.016638
          62  ( 2:1:   2/   3)   2u222d20        0.216917       0.047053
          85  ( 2:1:   5/   4)   u2222dud        0.051556       0.002658
          87  ( 2:1:   7/   4)   u2222udd        0.081122       0.006581
          94  ( 2:1:  14/   4)   u222d202        0.073752       0.005439
         171  ( 3:1:   1/   8)   20222220        0.116128       0.013486
         196  ( 3:1:   6/  10)   02222ud2        0.071590       0.005125
 
  The CI coefficients for the MIXED state nr.   5
--------------------------------------------------------------------------------
 CI COEFFICIENTS LARGER THAN  0.50D-01
  Occupation of active orbitals, and spin coupling
  of open shells. (u,d: Spin up or down).
  SGUGA info is (Midvert:IsyUp:UpperWalk/LowerWalk)
        Conf  SGUGA info        Occupation    Coefficient         Weight
           2  ( 1:1:   2/   1)   22222ud0       -0.269616       0.072693
           7  ( 1:1:   7/   1)   22222u0d       -0.143800       0.020678
           8  ( 1:1:   8/   1)   2222u20d       -0.889017       0.790352
          12  ( 1:1:  12/   1)   2222uudd       -0.089908       0.008084
          13  ( 1:1:  13/   1)   2222u02d        0.074661       0.005574
          17  ( 1:1:  17/   1)   22220202       -0.059237       0.003509
          62  ( 2:1:   2/   3)   2u222d20        0.068409       0.004680
          68  ( 2:1:   8/   3)   2u22u2dd        0.065380       0.004275
          71  ( 2:1:  11/   3)   2u22ud2d       -0.055015       0.003027
          84  ( 2:1:   4/   4)   u222220d       -0.082664       0.006833
          94  ( 2:1:  14/   4)   u222d202       -0.207051       0.042870
         174  ( 3:1:   4/   8)   2022u22d       -0.094494       0.008929
         195  ( 3:1:   5/  10)   02222202        0.070652       0.004992
 
  The CI coefficients for the MIXED state nr.   6
--------------------------------------------------------------------------------
 CI COEFFICIENTS LARGER THAN  0.50D-01
  Occupation of active orbitals, and spin coupling
  of open shells. (u,d: Spin up or down).
  SGUGA info is (Midvert:IsyUp:UpperWalk/LowerWalk)
        Conf  SGUGA info        Occupation    Coefficient         Weight
           7  ( 1:1:   7/   1)   22222u0d        0.925880       0.857254
           8  ( 1:1:   8/   1)   2222u20d       -0.155148       0.024071
          24  ( 2:1:   4/   1)   222u220d       -0.107777       0.011616
          44  ( 2:1:   4/   2)   22u2220d       -0.111681       0.012473
          65  ( 2:1:   5/   3)   2u222dud       -0.141152       0.019924
          67  ( 2:1:   7/   3)   2u222udd       -0.198920       0.039569
         173  ( 3:1:   3/   8)   20222u2d        0.137067       0.018787
 
  The CI coefficients for the MIXED state nr.   7
--------------------------------------------------------------------------------
 CI COEFFICIENTS LARGER THAN  0.50D-01
  Occupation of active orbitals, and spin coupling
  of open shells. (u,d: Spin up or down).
  SGUGA info is (Midvert:IsyUp:UpperWalk/LowerWalk)
        Conf  SGUGA info        Occupation    Coefficient         Weight
           7  ( 1:1:   7/   1)   22222u0d        0.119963       0.014391
          24  ( 2:1:   4/   1)   222u220d        0.902722       0.814907
          25  ( 2:1:   5/   1)   222u2dud       -0.218702       0.047830
          27  ( 2:1:   7/   1)   222u2udd       -0.307586       0.094609
         208  ( 4:1:   2/   2)   2u2u2d2d       -0.071554       0.005120
         261  ( 5:1:   1/   7)   202u222d        0.084479       0.007137
 
--
 
--- Stop Module: caspt2 at Tue Jun 10 19:04:11 2025 /rc=_RC_ALL_IS_WELL_ ---
*** files: xmldump
    saved to directory /home/pcaah4/diamide_project
--- Module caspt2 spent 7 minutes 8 seconds ---

.##################.
.# Happy landing! #.
.##################.

    Timing: Wall=687.35 User=596.97 System=81.14
******************************************************
*** WorkDir at /srv/COMMUNAL_SCRATCH/12416 cleaned ***
******************************************************
