   This run of MOLCAS is using the pymolcas driver

                             OPE
                             OPE          NMOL  CASOP  ENMOLC A   SO
                 OPE        NMOLC        AS  OP EN  MO LC     AS  OP
                OPENM       OL CA        SO  PE NM  OL CA     SOP EN
                OP EN      MO   LC       AS  OP ENMOL  CASO   PENMOL
                OP  EN     MO   LC       AS  OP EN     MO     LC ASO
               OP   E  NMOL  C  AS       OP  EN MO     LC     AS  OP
               OP  E   NMO   LC AS        OPEN  MO     LCASOP EN   M
               O  PEN   MO  LCA  SO
            OPE   NMO   L   CAS    OP
        OPENMOL  CASOP     ENMOL   CASOPE
     OPENMOLCA   SOPENMOLCASOPEN   MOLCASOPE
    OPENMOLCAS   OP           EN   MOL    CAS
    OPENMOLCAS       OP  ENM        O     LCA
    OPENMOLCAS    OPEN  MOLCASO     P  E  NMO
    OPENMOLCAS     OP               E  N  MOL
    OPENMOLCA   SO           PENM   O  L  CAS    OPEN    MO    LCAS
    OPENMOLCA   SOP           ENM   O  L  CAS   OP  EN  MOLC  AS   O
    OPENMOLCA   SOPE           NM      O  LCA   S      OP  EN MO
    OPENMOLC                AS         O  PEN   M      OL  CA  SOPE
    OPENMO        LCASOPE  NMOL        C  ASO   P      ENMOLC     AS
    OPE     NMO      LCA  SO     P     E   NM   OL  CA SO  PE N   MO
          OPENMOLCA            SOPE   NMO        LCAS  O    P  ENMO
     OPENMOLCASOPENMOLCASOPENMOLCASOPENMOLCA
        OPENMOLCASOPENMOLCASOPENMOLCASOPE
            OPENMOLCASOPENMOLCASOPENM
               OPENMOLCASOPENMOLCA        version: v23.06
                   OPENMOLCASO
                       OPE                tag:

 OpenMolcas is free software; you can redistribute it and/or modify it
 under the terms of the GNU Lesser General Public License version 2.1.
 OpenMolcas is distributed in the hope that it will be useful, but it
 is provided "as is" and without any express or implied warranties.
 For more details see the full text of the license in the file
 LICENSE or in <http://www.gnu.org/licenses/>.

                 Copyright (C) The OpenMolcas Authors
           For the author list and the recommended citation,
                   consult the file CONTRIBUTORS.md

           *************************************************
           * pymolcas version py2.24                       *
           *   build 4567b286dd94b1984b333a4ddf893180      *
           *   (after the EMIL interpreter by V. Veryazov) *
           *************************************************

configuration info
------------------
Host name: loginchem01.nottingham.ac.uk (Linux)
C Compiler ID: Intel
C flags: -std=gnu99 -gcc-sys -qopenmp
Fortran Compiler ID: Intel
Fortran flags: -fpp -i8 -heap-arrays -qopenmp
Definitions: _MOLCAS_;_I8_;_LINUX_
Parallel: OFF (GA=OFF)


   --------------------------------------------------------------------------------------------------
  |
  |              Project: orca_geometry_optimisation_0_285_BP86_def2-SVP_def2J_scf_cas1_ras12i11_cas8
  |       Submitted from: /home/pcaah4/diamide_project
  |         Scratch area: /srv/COMMUNAL_SCRATCH/12371
  |      Save outputs to: /home/pcaah4/diamide_project
  |               Molcas: /software/chemistry/openmolcas/openmolcas-23.06-openmp
  |
  | Scratch area is empty
  |
  |       MOLCAS_DRIVER = /software/chemistry/openmolcas/openmolcas-23.06-openmp/sbin/pymolcas
  | MOLCAS_KEEP_WORKDIR = NO
  |       MOLCAS_NPROCS = 1
  |       MOLCAS_SOURCE = /software/chemistry/openmolcas/openmolcas-23.06-openmp
  |    MOLCAS_STRUCTURE = 0
  |
   --------------------------------------------------------------------------------------------------

++ ---------   Input file   ---------

&SEWARD
TITLE
orca_geometry_optimisation_0_285_BP86_def2-SVP_def2J_scf_cas1_ras12i11
MULTIPOLES
2
SDIPOLE
ANGMOM
0 0 0
BASIS SET
C.ANO-S...4S3P1D.
C1           -0.147580   -0.207877    0.022458 /Angstrom
C3            1.958618    1.235573   -0.062788 /Angstrom
C4            1.145469    2.554555   -0.078891 /Angstrom
C6           -0.390121    3.968813   -1.365199 /Angstrom
C19          -0.586122   -1.666750    0.153322 /Angstrom
END OF BASIS
BASIS SET
N.ANO-S...4S3P1D.
N2            1.215783   -0.024737   -0.013098 /Angstrom
N5            0.537005    2.853479   -1.274436 /Angstrom
END OF BASIS
BASIS SET
O.ANO-S...4S3P1D.
O7           -0.966663    0.707921   -0.033751 /Angstrom
O8            1.187248    3.322381    0.878009 /Angstrom
END OF BASIS
BASIS SET
H.ANO-S...2S1P.
H9           -1.359082   -1.871439   -0.612660 /Angstrom
H10          -1.069081   -1.801114    1.142384 /Angstrom
H11           0.231751   -2.407539    0.052379 /Angstrom
H12           1.793493   -0.864671    0.048061 /Angstrom
H13           2.606402    1.321239    0.833424 /Angstrom
H14           2.623073    1.230259   -0.957245 /Angstrom
H15           0.348482    2.059024   -1.889064 /Angstrom
H16          -1.429292    3.660185   -1.114762 /Angstrom
H17          -0.071847    4.734889   -0.634258 /Angstrom
H18          -0.375129    4.405447   -2.384092 /Angstrom
END OF BASIS
END OF INPUT

&RASSCF
TITLE
orca_geometry_optimisation_0_285_BP86_def2-SVP_def2J_scf_cas1_ras12i11
LUMORB
SPIN
1
SYMMETRY
1
NACTEL
12  0  0
INACTIVE
29
DELETED  ! delete Rydberg orbitals from an initial CAS(12,11) if done
3
FROZEN
0
RAS2
8
ITERATIONS
64 25
CIROOT
7 7
1 2 3 4 5 6 7
1 1 1 1 1 1 1
LEVSHFT
0.3
CIMX
20
FILEorb = /home/pcaah4/diamide_project/cas/ras12i11/ras_orb/orca_geometry_optimisation_0_285_BP86_def2-SVP_def2J_scf_cas1_ras12i11.RasOrb
ALTEr
0
END OF INPUT

&RASSI
NROF JOBIPH
    1 7
    1 2 3 5 4 6 7
TOFILE
TRDI
TDMN
1.0D-6
END OF INPUT

&CASPT2
TITLE
orca_geometry_optimisation_0_285_BP86_def2-SVP_def2J_scf_cas1_ras12i11
MULTISTATE
7 1 2 3 4 5 6 7
SHIFT
0.35
MAXITER
50
END OF INPUT

-- ----------------------------------

--- Start Module: seward at Tue Jun 10 16:48:55 2025 ---
 
()()()()()()()()()()()()()()()()()()()()()()()()()()()()()()()()()()()()()()()()()()()()()()()()()()

                                              &SEWARD

                                   only a single process is used
                       available to each process: 2.0 GB of memory, 1 thread
                                            pid: 3111430
()()()()()()()()()()()()()()()()()()()()()()()()()()()()()()()()()()()()()()()()()()()()()()()()()()
 
               SEWARD will generate:
                  Multipole Moment integrals up to order  2
                  Kinetic Energy integrals
                  Nuclear Attraction integrals (point charge)
                  One-Electron Hamiltonian integrals
                  Velocity integrals
                  Orbital angular momentum around ( 0.0000  0.0000  0.0000 )
                  Velocity quadrupole around ( 0.8014  2.6911 -0.3786 )
                  Two-Electron Repulsion integrals
 
 Title:
             orca_geometry_optimisation_0_285_BP86_def2-SVP_def2J_scf_cas1_ras12i11     
 
 
                   Integrals are discarded if absolute value <: 0.10E-13
                   Integral cutoff threshold is set to       <: 0.10E-15
 
++    Symmetry information:
      ---------------------
 
                    Character Table for C1 
 
                             E  
                    a        1  x, y, xy, Rz, z, xz, Ry, yz, Rx, I
--
 
 
++    Basis set information:
      ----------------------
 
 
      Basis set label: C.ANO-S...4S3P1D......
 
      Electronic valence basis set:
      ------------------
      Associated Effective Charge   6.000000 au
      Associated Actual Charge      6.000000 au
      Nuclear Model: Point charge
 
      Shell  nPrim  nBasis  Cartesian Spherical Contaminant
         s      10       4        X                  
         p       6       3        X                  
         d       3       1                 X         
 
 
      Basis set label: N.ANO-S...4S3P1D......
 
      Electronic valence basis set:
      ------------------
      Associated Effective Charge   7.000000 au
      Associated Actual Charge      7.000000 au
      Nuclear Model: Point charge
 
      Shell  nPrim  nBasis  Cartesian Spherical Contaminant
         s      10       4        X                  
         p       6       3        X                  
         d       3       1                 X         
 
 
      Basis set label: O.ANO-S...4S3P1D......
 
      Electronic valence basis set:
      ------------------
      Associated Effective Charge   8.000000 au
      Associated Actual Charge      8.000000 au
      Nuclear Model: Point charge
 
      Shell  nPrim  nBasis  Cartesian Spherical Contaminant
         s      10       4        X                  
         p       6       3        X                  
         d       3       1                 X         
 
 
      Basis set label: H.ANO-S...2S1P......
 
      Electronic valence basis set:
      ------------------
      Associated Effective Charge   1.000000 au
      Associated Actual Charge      1.000000 au
      Nuclear Model: Point charge
 
      Shell  nPrim  nBasis  Cartesian Spherical Contaminant
         s       7       2        X                  
         p       3       1        X                  
--
 
 
++    Molecular structure info:
      -------------------------
 
                    ************************************************ 
                    **** Cartesian Coordinates / Bohr, Angstrom **** 
                    ************************************************ 
 
     Center  Label                x              y              z                     x              y              z
        1      C1              -0.278886      -0.392831       0.042439             -0.147580      -0.207877       0.022458
        2      C3               3.701252       2.334895      -0.118652              1.958618       1.235573      -0.062788
        3      C4               2.164623       4.827409      -0.149082              1.145469       2.554555      -0.078891
        4      C6              -0.737222       7.499970      -2.579852             -0.390121       3.968813      -1.365199
        5      C19             -1.107610      -3.149701       0.289737             -0.586122      -1.666750       0.153322
        6      N2               2.297497      -0.046746      -0.024752              1.215783      -0.024737      -0.013098
        7      N5               1.014792       5.392294      -2.408335              0.537005       2.853479      -1.274436
        8      O7              -1.826728       1.337777      -0.063780             -0.966663       0.707921      -0.033751
        9      O8               2.243574       6.278390       1.659197              1.187248       3.322381       0.878009
       10      H9              -2.568293      -3.536507      -1.157760             -1.359082      -1.871439      -0.612660
       11      H10             -2.020270      -3.403612       2.158793             -1.069081      -1.801114       1.142384
       12      H11              0.437946      -4.549589       0.098982              0.231751      -2.407539       0.052379
       13      H12              3.389211      -1.633991       0.090822              1.793493      -0.864671       0.048061
       14      H13              4.925386       2.496780       1.574943              2.606402       1.321239       0.833424
       15      H14              4.956890       2.324853      -1.808931              2.623073       1.230259      -0.957245
       16      H15              0.658536       3.890991      -3.569814              0.348482       2.059024      -1.889064
       17      H16             -2.700970       6.916747      -2.106595             -1.429292       3.660185      -1.114762
       18      H17             -0.135771       8.947643      -1.198574             -0.071847       4.734889      -0.634258
       19      H18             -0.708891       8.325088      -4.505281             -0.375129       4.405447      -2.384092
 
                    ************************************************* 
                    **** InterNuclear Distances / Bohr, Angstrom **** 
                    ************************************************* 
 
     Atom centers         Bohr        Angstrom
   13 H12       6 N2      1.929908        1.021263
   16 H15       7 N5      1.931285        1.021992
   18 H17       4 C6      2.089362        1.105643
   10 H9        5 C19     2.092477        1.107291
   12 H11       5 C19     2.093996        1.108095
   19 H18       4 C6      2.094970        1.108610
   11 H10       5 C19     2.095421        1.108849
   14 H13       2 C3      2.095943        1.109125
   17 H16       4 C6      2.102482        1.112585
   15 H14       2 C3      2.105652        1.114263
    9 O8        3 C4      2.319796        1.227583
    8 O7        1 C1      2.324242        1.229936
    7 N5        3 C4      2.597196        1.374377
    6 N2        1 C1      2.600392        1.376068
    7 N5        4 C6      2.746137        1.453193
    6 N2        2 C3      2.766145        1.463781
    5 C19       1 C1      2.889338        1.528972
    3 C4        2 C3      2.928273        1.549575
   11 H10      10 H9      3.364151        1.780232
   15 H14      14 H13     3.388385        1.793056
   18 H17      17 H16     3.395481        1.796811
   12 H11      11 H10     3.405717        1.802228
   12 H11      10 H9      3.412214        1.805666
   19 H18      18 H17     3.413261        1.806220
   19 H18      17 H16     3.421330        1.810490
   16 H15       3 C4      3.853126        2.038986
   13 H12       1 C1      3.872693        2.049341
   18 H17       7 N5      3.927828        2.078517
   15 H14       6 N2      3.984990        2.108766
   13 H12       2 C3      3.986641        2.109639
   14 H13       6 N2      3.991785        2.112362
   16 H15       4 C6      3.994106        2.113590
   19 H18       7 N5      3.996192        2.114694
   14 H13       3 C4      4.003238        2.118422
   17 H16       7 N5      4.027642        2.131336
   10 H9        1 C1      4.069959        2.153729
   11 H10       1 C1      4.071385        2.154484
   15 H14       3 C4      4.100566        2.169926
   13 H12      12 H11     4.148583        2.195336
   12 H11       1 C1      4.218494        2.232331
    9 O8        7 N5      4.340493        2.296890
    8 O7        6 N2      4.350593        2.302235
    8 O7        5 C19     4.558461        2.412233
    9 O8        2 C3      4.564727        2.415549
   18 H17       9 O8      4.577450        2.422282
    6 N2        5 C19     4.617574        2.443515
    4 C6        3 C4      4.633781        2.452091
   14 H13       9 O8      4.636787        2.453682
   14 H13      13 H12     4.650346        2.460857
   15 H14      13 H12     4.662523        2.467301
    7 N5        2 C3      4.669839        2.471173
   19 H18      16 H15     4.733516        2.504869
   13 H12       5 C19     4.749562        2.513360
   17 H16      16 H15     4.752103        2.514705
    2 C3        1 C1      4.827829        2.554777
   18 H17       3 C4      4.834209        2.558153
   16 H15       2 C3      4.856961        2.570193
   12 H11       6 N2      4.873278        2.578828
    6 N2        3 C4      4.877551        2.581089
   16 H15      15 H14     4.901974        2.594013
   16 H15       8 O7      4.998771        2.645236
   15 H14       7 N5      5.030766        2.662167
   10 H9        8 O7      5.050282        2.672494
   11 H10       8 O7      5.240044        2.772912
    8 O7        3 C4      5.302423        2.805922
    9 O8        4 C6      5.324184        2.817437
    8 O7        7 N5      5.478164        2.898920
   16 H15       6 N2      5.546119        2.934880
    8 O7        2 C3      5.617456        2.972630
   18 H17      16 H15     5.641226        2.985208
   17 H16       3 C4      5.645457        2.987447
--
 
 
            Nuclear Potential Energy            464.87400987 au
 
 
      Basis set specifications :
      Symmetry species         a  
      Basis functions          212
 
 
      Input file to MOLDEN was generated!
 
--- Stop Module: seward at Tue Jun 10 16:50:46 2025 /rc=_RC_ALL_IS_WELL_ ---
*** files: orca_geometry_optimisation_0_285_BP86_def2-SVP_def2J_scf_cas1_ras12i11_cas8.GssOrb
           orca_geometry_optimisation_0_285_BP86_def2-SVP_def2J_scf_cas1_ras12i11_cas8.guessorb.molden xmldump
    saved to directory /home/pcaah4/diamide_project
--- Module seward spent 1 minute 50 seconds ---

*** symbolic link created: INPORB -> orca_geometry_optimisation_0_285_BP86_def2-SVP_def2J_scf_cas1_ras12i11_cas8.GssOrb
--- Start Module: rasscf at Tue Jun 10 16:50:47 2025 ---
 
()()()()()()()()()()()()()()()()()()()()()()()()()()()()()()()()()()()()()()()()()()()()()()()()()()

                                              &RASSCF

                                   only a single process is used
                       available to each process: 2.0 GB of memory, 1 thread
                                            pid: 3117025
()()()()()()()()()()()()()()()()()()()()()()()()()()()()()()()()()()()()()()()()()()()()()()()()()()
 
 
      Header of the ONEINT file:
      --------------------------
      orca_geometry_optimisation_0_285_BP86_def2-SVP_def2J_scf_cas1_ras12i11
      Integrals generated by Gateway/Seward, Tue Jun 10 16:48:55 2025
 
 
      OrdInt status: non-squared
 
 
      Cartesian coordinates in Angstrom:
      -----------------------------------------------------
      No.  Label        X            Y            Z        
      -----------------------------------------------------
       1   C1        -0.14758000  -0.20787700   0.02245800
       2   C3         1.95861800   1.23557300  -0.06278800
       3   C4         1.14546900   2.55455500  -0.07889100
       4   C6        -0.39012100   3.96881300  -1.36519900
       5   C19       -0.58612200  -1.66675000   0.15332200
       6   N2         1.21578300  -0.02473700  -0.01309800
       7   N5         0.53700500   2.85347900  -1.27443600
       8   O7        -0.96666300   0.70792100  -0.03375100
       9   O8         1.18724800   3.32238100   0.87800900
      10   H9        -1.35908200  -1.87143900  -0.61266000
      11   H10       -1.06908100  -1.80111400   1.14238400
      12   H11        0.23175100  -2.40753900   0.05237900
      13   H12        1.79349300  -0.86467100   0.04806100
      14   H13        2.60640200   1.32123900   0.83342400
      15   H14        2.62307300   1.23025900  -0.95724500
      16   H15        0.34848200   2.05902400  -1.88906400
      17   H16       -1.42929200   3.66018500  -1.11476200
      18   H17       -0.07184700   4.73488900  -0.63425800
      19   H18       -0.37512900   4.40544700  -2.38409200
      -----------------------------------------------------
      Nuclear repulsion energy =  464.87400987
 
++    Wave function specifications:
      -----------------------------
 
      Number of closed shell electrons          58
      Number of electrons in active shells      12
      Max number of holes in RAS1 space          0
      Max nr of electrons in RAS3 space          0
      Number of inactive orbitals               29
      Number of active orbitals                  8
      Number of secondary orbitals             172
      Spin quantum number                      0.0
      State symmetry                             1
--
 
++    Orbital specifications:
      -----------------------
 
      Symmetry species                           1
                                                 a
      Frozen orbitals                            0
      Inactive orbitals                         29
      Active orbitals                            8
      RAS1 orbitals                              0
      RAS2 orbitals                              8
      RAS3 orbitals                              0
      Secondary orbitals                       172
      Deleted orbitals                           3
      Number of basis functions                212
--
 
++    CI expansion specifications:
      ----------------------------
 
      Number of CSFs                           336
      Number of determinants                   406
      Number of root(s) required                 7
      Root chosen for geometry opt.              7
      CI roots used                              1     2     3     4     5     6     7
      weights                                0.143 0.143 0.143 0.143 0.143 0.143 0.143
      highest root included in the CI            7
      max. size of the explicit Hamiltonian    200
--
 
++    Optimization specifications:
      ----------------------------
 
      RASSCF algorithm: Conventional
      Maximum number of macro iterations        64
      Maximum number of SX iterations           25
      Threshold for RASSCF energy            0.100E-07
      Threshold for max MO rotation          0.100E+00
      Threshold for max BLB element          0.100E-03
      Level shift parameter                  0.300E+00
      Make Quasi-Newton update
--
 
      The MO-coefficients are taken from the file:
      /home/pcaah4/diamide_project/cas/ras12i11/ras_orb/orca_geometry_optimisation_0_285_BP86_def2-SVP_def2J_scf_cas1_ras12i11.RasOrb                                                                                                                                 
      Title: RASSCF average (pseudo-natural) orbitals                                      
 
      Total molecular charge    0.00
 
      ************************************************************************************************************************
      *                                                                                                                      *
      *                                            Wave function control section                                             *
      *                                                                                                                      *
      ************************************************************************************************************************
 
 
                                         RASSCF iterations: Energy and convergence statistics
                                         ----------------------------------------------------
 
      Iter CI   SX   CI       RASSCF       Energy    max ROT     max BLB   max BLB  Level Ln srch  Step   QN   Walltime
          iter iter root      energy       change     param      element    value   shift minimum  type update hh:mm:ss
 Nr of preliminary CI iterations:   4
        1   1   25    0  -453.67843556    0.00E+00  -0.99E-01   36  38 1  0.19E-01*  0.15   0.00    SX    NO    0:00:13
        2   7   24    0  -453.69476937   -0.16E-01* -0.59E-01   36  38 1  0.10E-01*  0.13   0.00    SX    NO    0:00:07
        3   3   11    0  -453.69764836   -0.29E-02* -0.31E-01   36  38 1  0.54E-02*  0.13   0.00    SX    NO    0:00:07
        4   5   11    0  -453.69868604   -0.10E-02* -0.16E-01   35  38 1  0.35E-02*  0.13   0.00    SX    NO    0:00:06
        5   4   11    0  -453.69897876   -0.29E-03* -0.23E-01   35  38 1  0.22E-02*  0.13   1.58    QN   YES    0:00:06
        6   6   10    0  -453.69918311   -0.20E-03*  0.11E-02   34 110 1  0.52E-03*  0.14   0.99    QN   YES    0:00:06
        7   3    9    0  -453.69918431   -0.12E-05*  0.12E-02   11  87 1 -0.59E-03*  0.14   0.47    QN   YES    0:00:06
        8   8    9    0  -453.69919345   -0.91E-05*  0.14E-02   20  75 1 -0.35E-03*  0.14   1.36    QN   YES    0:00:06
        9   5    8    0  -453.69919943   -0.60E-05* -0.84E-03   11  87 1 -0.19E-03*  0.14   1.21    QN   YES    0:00:06
       10   6    8    0  -453.69920282   -0.34E-05* -0.34E-03   32  40 1 -0.69E-04   0.14   0.95    QN   YES    0:00:06
       11   3    8    0  -453.69920291   -0.95E-07* -0.67E-03   22  76 1  0.11E-03*  0.14   0.67    QN   YES    0:00:06
       12   5    8    0  -453.69920303   -0.12E-06* -0.33E-03   32  40 1  0.12E-03*  0.14   0.59    SX   YES    0:00:06
       13   5    8    0  -453.69920350   -0.46E-06*  0.24E-03   19  66 1  0.40E-04   0.14   0.99    QN   YES    0:00:06
       14   5    7    0  -453.69920358   -0.83E-07*  0.13E-03   22  76 1  0.23E-04   0.14   1.11    QN   YES    0:00:06
       15   5    6    0  -453.69920362   -0.37E-07*  0.47E-04   33  39 1  0.87E-05   0.14   0.98    QN   YES    0:00:06
       16   1    6    0  -453.69920362   -0.66E-08   0.15E-03   22  76 1  0.11E-04   0.14   1.34    QN   YES    0:00:06
      Convergence after 16 iterations
       17   5    6    0  -453.69920360    0.24E-07*  0.15E-03   20  40 1  0.25E-04   0.14   1.34    QN   YES    0:00:06
 
      ************************************************************************************************************************
                                                      Wave function printout:
                       occupation of active orbitals, and spin coupling of open shells (u,d: Spin up or down)
      ************************************************************************************************************************
 
      Note: transformation to natural orbitals
      has been made, which may change the order of the CSFs.
 
      printout of CI-coefficients larger than  0.05 for root  1
      energy=    -453.950898
      conf/sym  11111111     Coeff  Weight
             1  22222200   0.94767 0.89809
             2  22222ud0   0.08873 0.00787
             4  22222020  -0.09526 0.00907
            24  222u220d  -0.05512 0.00304
            41  22u222d0   0.15075 0.02273
            61  2u2222d0  -0.07464 0.00557
            62  2u222d20   0.07843 0.00615
            84  u222220d   0.12068 0.01456
           105  22202202  -0.08320 0.00692
           171  20222220  -0.09520 0.00906
           195  02222202  -0.07561 0.00572
 
      printout of CI-coefficients larger than  0.05 for root  2
      energy=    -453.747233
      conf/sym  11111111     Coeff  Weight
             2  22222ud0   0.10862 0.01180
             3  2222u2d0   0.93803 0.87990
             5  2222ud20  -0.14723 0.02168
             8  2222u20d   0.07796 0.00608
            28  222uu2dd  -0.05602 0.00314
            43  22u2d220   0.07742 0.00599
            63  2u22d220   0.17396 0.03026
            86  u222d2ud   0.06323 0.00400
            88  u222u2dd   0.10642 0.01132
           107  2220u2d2  -0.08428 0.00710
           137  u22du2d2   0.05137 0.00264
           197  0222u2d2  -0.07551 0.00570
 
      printout of CI-coefficients larger than  0.05 for root  3
      energy=    -453.737216
      conf/sym  11111111     Coeff  Weight
            24  222u220d  -0.27190 0.07393
            44  22u2220d  -0.90356 0.81642
            47  22u22udd  -0.07438 0.00553
            49  22u2202d   0.09082 0.00825
            64  2u22220d  -0.05141 0.00264
           105  22202202  -0.06599 0.00436
           115  22ud2202  -0.13223 0.01748
           142  220222ud  -0.12925 0.01670
           145  22022202   0.06254 0.00391
           165  u2d22202   0.10797 0.01166
           219  2uu222dd  -0.07923 0.00628
           220  2uu22d2d   0.06456 0.00417
           293  20u2222d  -0.09032 0.00816
 
      printout of CI-coefficients larger than  0.05 for root  4
      energy=    -453.629971
      conf/sym  11111111     Coeff  Weight
             1  22222200   0.08618 0.00743
             2  22222ud0  -0.16218 0.02630
             8  2222u20d   0.25066 0.06283
            24  222u220d   0.83849 0.70306
            27  222u2udd   0.07486 0.00560
            29  222u202d  -0.08642 0.00747
            41  22u222d0  -0.07148 0.00511
            44  22u2220d  -0.25401 0.06452
            84  u222220d   0.09670 0.00935
           135  u22d2202  -0.20809 0.04330
           165  u2d22202   0.06243 0.00390
           201  22uu22dd  -0.09182 0.00843
           207  2u2u22dd   0.06868 0.00472
           208  2u2u2d2d  -0.06244 0.00390
           261  202u222d   0.08419 0.00709
 
      printout of CI-coefficients larger than  0.05 for root  5
      energy=    -453.624847
      conf/sym  11111111     Coeff  Weight
             2  22222ud0   0.85837 0.73679
             3  2222u2d0  -0.09496 0.00902
             4  22222020   0.17988 0.03236
             7  22222u0d   0.19497 0.03801
            24  222u220d   0.16563 0.02743
            41  22u222d0  -0.18523 0.03431
            61  2u2222d0   0.13214 0.01746
            62  2u222d20   0.20570 0.04231
            85  u2222dud   0.05728 0.00328
            87  u2222udd   0.09773 0.00955
           106  22202ud2  -0.07771 0.00604
           171  20222220  -0.10062 0.01012
           196  02222ud2  -0.06725 0.00452
 
      printout of CI-coefficients larger than  0.05 for root  6
      energy=    -453.608101
      conf/sym  11111111     Coeff  Weight
             2  22222ud0  -0.14629 0.02140
             7  22222u0d   0.77351 0.59831
             8  2222u20d   0.44134 0.19478
            10  2222udud  -0.07829 0.00613
            12  2222uudd  -0.12035 0.01448
            24  222u220d  -0.14182 0.02011
            44  22u2220d   0.06405 0.00410
            45  22u22dud  -0.18768 0.03522
            46  22u2d2ud  -0.11966 0.01432
            47  22u22udd   0.05768 0.00333
            48  22u2u2dd   0.13576 0.01843
            65  2u222dud   0.09739 0.00949
            67  2u222udd   0.12453 0.01551
            93  u2222d02  -0.06111 0.00373
           152  2ud222ud   0.06124 0.00375
           173  20222u2d   0.09353 0.00875
 
      printout of CI-coefficients larger than  0.05 for root  7
      energy=    -453.596160
      conf/sym  11111111     Coeff  Weight
             2  22222ud0   0.13207 0.01744
             3  2222u2d0  -0.06648 0.00442
             7  22222u0d  -0.47593 0.22651
             8  2222u20d   0.70166 0.49232
            10  2222udud  -0.12638 0.01597
            12  2222uudd  -0.18321 0.03357
            24  222u220d  -0.18362 0.03372
            44  22u2220d   0.05703 0.00325
            45  22u22dud   0.12748 0.01625
            46  22u2d2ud  -0.21314 0.04543
            48  22u2u2dd   0.22664 0.05137
            65  2u222dud  -0.06671 0.00445
            67  2u222udd  -0.08305 0.00690
            94  u222d202  -0.05543 0.00307
           144  2202u22d   0.06415 0.00412
           152  2ud222ud  -0.05542 0.00307
           154  2ud2u22d   0.05181 0.00268
           173  20222u2d  -0.05912 0.00350
           174  2022u22d   0.05713 0.00326
           205  22uud2d2   0.05993 0.00359
 
      Natural orbitals and occupation numbers for root  1
      sym 1:   1.962782   1.946836   1.999374   1.995152   1.999756   1.996567   0.057253   0.042281
 
      Natural orbitals and occupation numbers for root  2
      sym 1:   1.999253   1.961245   1.999857   1.995331   1.009890   1.999554   0.991205   0.043665
 
      Natural orbitals and occupation numbers for root  3
      sym 1:   1.999958   1.995703   1.002558   1.999733   1.999707   1.944010   0.059993   0.998339
 
      Natural orbitals and occupation numbers for root  4
      sym 1:   1.967054   1.973035   1.995028   1.063038   1.994252   1.919833   0.114153   0.973606
 
      Natural orbitals and occupation numbers for root  5
      sym 1:   1.993518   1.947690   1.982277   1.945892   1.999324   1.230949   0.823965   0.076386
 
      Natural orbitals and occupation numbers for root  6
      sym 1:   1.998924   1.974957   1.920746   1.988969   1.956168   1.042483   0.124612   0.993141
 
      Natural orbitals and occupation numbers for root  7
      sym 1:   1.997367   1.976422   1.919098   1.986856   1.060443   1.933552   0.141514   0.984747
 
      ************************************************************************************************************************
      *                                                                                                                      *
      *                                                    Final results                                                     *
      *                                                                                                                      *
      ************************************************************************************************************************
 
 
++    Wave function specifications:
      -----------------------------
 
      Number of closed shell electrons          58
      Number of electrons in active shells      12
      Max number of holes in RAS1 space          0
      Max nr of electrons in RAS3 space          0
      Number of inactive orbitals               29
      Number of active orbitals                  8
      Number of secondary orbitals             172
      Spin quantum number                      0.0
      State symmetry                             1
--
 
++    Orbital specifications:
      -----------------------
 
      Symmetry species                           1
                                                 a
      Frozen orbitals                            0
      Inactive orbitals                         29
      Active orbitals                            8
      RAS1 orbitals                              0
      RAS2 orbitals                              8
      RAS3 orbitals                              0
      Secondary orbitals                       172
      Deleted orbitals                           3
      Number of basis functions                212
--
 
++    CI expansion specifications:
      ----------------------------
 
      Number of CSFs                           336
      Number of determinants                   406
      Number of root(s) required                 7
      CI roots used                              1     2     3     4     5     6     7
      weights                                0.143 0.143 0.143 0.143 0.143 0.143 0.143
      highest root included in the CI            7
      Root passed to geometry opt.               7
--
 
++    Final optimization conditions:
      ------------------------------
 
      Average CI energy                            -453.69920360
      RASSCF energy for state  7                   -453.59615950
      Super-CI energy                                -0.00000000
      RASSCF energy change                            0.00000000
      Max change in MO coefficients              -0.288E-03
      Max non-diagonal density matrix element     0.146E-03
      Maximum BLB matrix element                  0.248E-04
      (orbital pair  20,  40 in symmetry   1)
      Norm of electronic gradient            0.281E+00
--
 
 
      Final state energy(ies):
      ------------------------
 
::    RASSCF root number  1 Total energy:   -453.95089849
::    RASSCF root number  2 Total energy:   -453.74723260
::    RASSCF root number  3 Total energy:   -453.73721555
::    RASSCF root number  4 Total energy:   -453.62997112
::    RASSCF root number  5 Total energy:   -453.62484667
::    RASSCF root number  6 Total energy:   -453.60810127
::    RASSCF root number  7 Total energy:   -453.59615950
 
++    Molecular orbitals:
      -------------------
 
      Pseudonatural active orbitals and approximate occupation numbers
 
 
 
 
      Molecular orbitals for symmetry species 1: a  
 
 
      Orbital                 1         2         3         4         5         6         7         8         9        10
      Energy           -20.5942  -20.5244  -15.6241  -15.5860  -11.3369  -11.2957  -11.2790  -11.2762  -11.2247   -1.4195
      Occ. No.           2.0000    2.0000    2.0000    2.0000    2.0000    2.0000    2.0000    2.0000    2.0000    2.0000
 
     1 C1     1s         0.0001    0.0003   -0.0000    0.0002   -0.0001   -0.0007    0.0000    0.9999   -0.0058   -0.0025
     2 C1     2s         0.0005    0.0006   -0.0001    0.0008   -0.0007   -0.0014   -0.0000    0.0019   -0.0004    0.0226
     3 C1     3s         0.0003   -0.0007   -0.0002    0.0003   -0.0005   -0.0010   -0.0001   -0.0004   -0.0007    0.0038
     4 C1     4s         0.0000   -0.0004   -0.0001    0.0001   -0.0001   -0.0003   -0.0000    0.0013   -0.0002    0.0028
     5 C1     2px       -0.0002   -0.0013   -0.0000    0.0016   -0.0000   -0.0004    0.0001    0.0015   -0.0002   -0.0000
     6 C1     3px       -0.0003   -0.0007   -0.0002    0.0012   -0.0001   -0.0006    0.0001    0.0013    0.0002    0.0069
     7 C1     4px       -0.0000    0.0002   -0.0001   -0.0001   -0.0001   -0.0002   -0.0000    0.0004    0.0002    0.0036
     8 C1     2py       -0.0003    0.0026   -0.0003    0.0004   -0.0005    0.0002   -0.0003    0.0010   -0.0008    0.0206
     9 C1     3py       -0.0006    0.0017   -0.0003    0.0002   -0.0006   -0.0000   -0.0004    0.0011   -0.0000    0.0200
    10 C1     4py       -0.0002   -0.0004   -0.0000   -0.0001   -0.0001   -0.0002   -0.0001    0.0007    0.0003    0.0071
    11 C1     2pz        0.0000   -0.0001    0.0002   -0.0001    0.0001   -0.0001   -0.0001   -0.0001    0.0001   -0.0027
    12 C1     3pz        0.0000   -0.0001    0.0003   -0.0001    0.0001   -0.0001   -0.0000   -0.0002   -0.0000   -0.0040
    13 C1     4pz        0.0000    0.0000    0.0000    0.0000   -0.0000    0.0000    0.0000   -0.0001   -0.0000   -0.0013
    14 C1     3d2-       0.0000    0.0002    0.0000    0.0001   -0.0000   -0.0000   -0.0000   -0.0004    0.0000   -0.0019
    15 C1     3d1-      -0.0000   -0.0000    0.0000   -0.0000    0.0000    0.0000   -0.0000   -0.0000    0.0000   -0.0000
    16 C1     3d0       -0.0000   -0.0000    0.0000    0.0001   -0.0000   -0.0000   -0.0000   -0.0003    0.0001   -0.0017
    17 C1     3d1+      -0.0000   -0.0000    0.0000    0.0000    0.0000    0.0000    0.0000    0.0000    0.0000    0.0003
    18 C1     3d2+      -0.0000    0.0000    0.0000   -0.0002    0.0000    0.0000   -0.0000    0.0001   -0.0001    0.0004
    19 C3     1s         0.0001    0.0000   -0.0000    0.0005    0.0066    0.9995   -0.0001    0.0005    0.0000   -0.0113
    20 C3     2s         0.0003    0.0000    0.0001    0.0025   -0.0004   -0.0012    0.0002   -0.0004    0.0002    0.0164
    21 C3     3s         0.0002    0.0000    0.0002    0.0013   -0.0005   -0.0025    0.0000   -0.0004    0.0001   -0.0306
    22 C3     4s         0.0000    0.0000    0.0001    0.0002   -0.0000    0.0007   -0.0000   -0.0002   -0.0000   -0.0042
    23 C3     2px       -0.0002   -0.0003   -0.0002   -0.0008    0.0002    0.0002   -0.0001    0.0006    0.0002   -0.0016
    24 C3     3px       -0.0000   -0.0002   -0.0001   -0.0002    0.0004    0.0001   -0.0001    0.0007    0.0002    0.0118
    25 C3     4px        0.0001    0.0000    0.0001    0.0003   -0.0000   -0.0007    0.0000    0.0002    0.0001   -0.0040
    26 C3     2py       -0.0006    0.0001    0.0000   -0.0001    0.0003   -0.0003    0.0002    0.0005   -0.0001    0.0150
    27 C3     3py       -0.0007    0.0002    0.0001    0.0006   -0.0002   -0.0001    0.0001    0.0006    0.0000   -0.0096
    28 C3     4py       -0.0001    0.0001   -0.0000    0.0003   -0.0002   -0.0003   -0.0001    0.0001    0.0001    0.0031
    29 C3     2pz       -0.0008    0.0001    0.0007   -0.0002    0.0004   -0.0002   -0.0002    0.0001   -0.0000    0.0185
    30 C3     3pz       -0.0007    0.0001    0.0006   -0.0002    0.0004   -0.0001   -0.0003    0.0001   -0.0000    0.0073
    31 C3     4pz        0.0000   -0.0000   -0.0001   -0.0000    0.0000   -0.0000   -0.0001   -0.0000   -0.0000   -0.0033
    32 C3     3d2-      -0.0000    0.0000   -0.0000   -0.0000    0.0000   -0.0000   -0.0000    0.0000    0.0000   -0.0009
    33 C3     3d1-      -0.0001    0.0000    0.0000    0.0000    0.0000    0.0000   -0.0000    0.0000   -0.0000    0.0029
    34 C3     3d0        0.0000   -0.0000    0.0000    0.0000   -0.0000    0.0001   -0.0000   -0.0000   -0.0000   -0.0033
    35 C3     3d1+       0.0001   -0.0000    0.0001   -0.0000   -0.0001   -0.0000   -0.0000   -0.0000   -0.0000   -0.0028
    36 C3     3d2+       0.0000   -0.0000   -0.0000    0.0001    0.0000    0.0000   -0.0000    0.0001   -0.0000   -0.0035
    37 C4     1s         0.0004    0.0000    0.0004   -0.0001    1.0000   -0.0066    0.0002    0.0000    0.0000   -0.0415
    38 C4     2s         0.0015    0.0003    0.0019   -0.0006    0.0027    0.0008   -0.0000   -0.0001    0.0000    0.3351
    39 C4     3s         0.0000    0.0003    0.0010   -0.0003    0.0002    0.0003   -0.0001   -0.0001    0.0000   -0.0224
    40 C4     4s        -0.0003    0.0001    0.0003   -0.0001    0.0013    0.0001   -0.0001   -0.0001    0.0000   -0.0017
    41 C4     2px        0.0000   -0.0004   -0.0011   -0.0004   -0.0006    0.0007   -0.0002   -0.0006   -0.0002    0.0091
    42 C4     3px       -0.0001   -0.0005   -0.0009   -0.0005   -0.0009    0.0006    0.0001   -0.0008   -0.0003    0.0159
    43 C4     4px       -0.0000   -0.0001    0.0001   -0.0001   -0.0003    0.0001    0.0002   -0.0002   -0.0001    0.0034
    44 C4     2py        0.0019   -0.0002    0.0002    0.0006    0.0008   -0.0009    0.0001    0.0003    0.0001    0.0900
    45 C4     3py        0.0014   -0.0002   -0.0000    0.0006    0.0004   -0.0002   -0.0005    0.0004    0.0002   -0.0419
    46 C4     4py       -0.0002   -0.0000   -0.0001    0.0000    0.0005    0.0002   -0.0004    0.0001    0.0001    0.0194
    47 C4     2pz        0.0024   -0.0006   -0.0017   -0.0007   -0.0005   -0.0000   -0.0000   -0.0007   -0.0001    0.0797
    48 C4     3pz        0.0017   -0.0006   -0.0013   -0.0007   -0.0005   -0.0000    0.0000   -0.0008   -0.0001   -0.0410
    49 C4     4pz       -0.0002    0.0000    0.0001   -0.0000   -0.0001   -0.0000    0.0001   -0.0001   -0.0000    0.0206
    50 C4     3d2-      -0.0001   -0.0000   -0.0000    0.0000   -0.0000    0.0000   -0.0001   -0.0000   -0.0000   -0.0013
    51 C4     3d1-      -0.0001   -0.0000    0.0000   -0.0000    0.0004   -0.0001   -0.0000   -0.0000   -0.0000    0.0357
    52 C4     3d0       -0.0001   -0.0000   -0.0002   -0.0001    0.0004   -0.0001    0.0001   -0.0000   -0.0000    0.0215
    53 C4     3d1+       0.0001    0.0000   -0.0001    0.0000    0.0002   -0.0000    0.0001    0.0000   -0.0000    0.0076
    54 C4     3d2+      -0.0000    0.0000   -0.0000    0.0001   -0.0002   -0.0001   -0.0000    0.0000   -0.0000   -0.0150
    55 C6     1s         0.0001   -0.0001    0.0003   -0.0002   -0.0002    0.0001    0.9996   -0.0001   -0.0000   -0.0058
    56 C6     2s         0.0007   -0.0004    0.0012   -0.0011   -0.0001    0.0001   -0.0004   -0.0005   -0.0001    0.0353
    57 C6     3s         0.0004   -0.0003    0.0002   -0.0009   -0.0002    0.0000   -0.0019   -0.0005   -0.0001   -0.0020
    58 C6     4s         0.0001   -0.0000   -0.0001   -0.0002   -0.0002   -0.0000    0.0009   -0.0001   -0.0000    0.0013
    59 C6     2px        0.0005    0.0002    0.0003   -0.0002   -0.0002    0.0002    0.0002   -0.0000    0.0000    0.0058
    60 C6     3px        0.0004    0.0001   -0.0001   -0.0002   -0.0003    0.0001    0.0000   -0.0001    0.0000   -0.0096
    61 C6     4px       -0.0001   -0.0000   -0.0001   -0.0000   -0.0001   -0.0001    0.0005   -0.0000   -0.0000    0.0020
    62 C6     2py        0.0001    0.0001   -0.0005    0.0003    0.0001   -0.0000    0.0000    0.0001    0.0000   -0.0218
    63 C6     3py        0.0001    0.0000    0.0001    0.0002    0.0001   -0.0000    0.0002    0.0001   -0.0000   -0.0034
    64 C6     4py       -0.0000   -0.0000    0.0002   -0.0000    0.0000    0.0000   -0.0006   -0.0000   -0.0000   -0.0004
    65 C6     2pz       -0.0002   -0.0001    0.0000    0.0001   -0.0001    0.0001   -0.0002    0.0000   -0.0001    0.0166
    66 C6     3pz       -0.0003   -0.0000   -0.0001    0.0000   -0.0003    0.0001    0.0000   -0.0000   -0.0001    0.0086
    67 C6     4pz       -0.0000    0.0000   -0.0001   -0.0000   -0.0001   -0.0000    0.0001   -0.0000   -0.0000    0.0001
    68 C6     3d2-      -0.0000   -0.0000    0.0001    0.0000   -0.0000   -0.0000    0.0001   -0.0000   -0.0000   -0.0034
    69 C6     3d1-       0.0000    0.0000   -0.0001    0.0000   -0.0000    0.0000   -0.0000    0.0000    0.0000   -0.0009
    70 C6     3d0       -0.0000    0.0000    0.0000    0.0000    0.0000   -0.0000    0.0001    0.0000    0.0000   -0.0028
    71 C6     3d1+       0.0000    0.0000    0.0000    0.0000    0.0001    0.0000    0.0000    0.0000    0.0000    0.0009
    72 C6     3d2+      -0.0000   -0.0000   -0.0000    0.0000   -0.0000   -0.0000    0.0000    0.0000   -0.0000   -0.0006
    73 C19    1s        -0.0001    0.0002   -0.0001    0.0000   -0.0000    0.0002   -0.0000    0.0058    1.0000    0.0003
    74 C19    2s        -0.0006    0.0010   -0.0004    0.0002   -0.0000    0.0010   -0.0004    0.0009    0.0020    0.0090
    75 C19    3s        -0.0006    0.0006   -0.0003    0.0002   -0.0000    0.0006   -0.0003    0.0004   -0.0005    0.0082
    76 C19    4s        -0.0002    0.0001   -0.0001    0.0000   -0.0000    0.0001   -0.0001    0.0001    0.0012    0.0037
    77 C19    2px       -0.0000    0.0008    0.0001   -0.0003    0.0001    0.0003    0.0000   -0.0001   -0.0001   -0.0028
    78 C19    3px       -0.0000    0.0005    0.0001   -0.0002    0.0001    0.0003   -0.0000   -0.0003   -0.0000   -0.0030
    79 C19    4px        0.0000   -0.0002    0.0000   -0.0000   -0.0000   -0.0000   -0.0000   -0.0001    0.0001    0.0003
    80 C19    2py       -0.0003    0.0000   -0.0001    0.0004    0.0000    0.0002   -0.0001    0.0004   -0.0005    0.0077
    81 C19    3py       -0.0002   -0.0001   -0.0001    0.0003    0.0000    0.0001   -0.0001   -0.0001   -0.0001    0.0061
    82 C19    4py        0.0000   -0.0001    0.0000   -0.0001    0.0000   -0.0001    0.0000   -0.0001    0.0003    0.0003
    83 C19    2pz       -0.0001   -0.0001   -0.0001    0.0000   -0.0000   -0.0000    0.0000    0.0000    0.0000    0.0015
    84 C19    3pz       -0.0000   -0.0001   -0.0001    0.0001   -0.0000   -0.0000    0.0000    0.0001   -0.0000    0.0017
    85 C19    4pz        0.0000    0.0000   -0.0000    0.0000    0.0000    0.0000   -0.0000    0.0000   -0.0000    0.0001
    86 C19    3d2-      -0.0000    0.0001   -0.0000   -0.0000   -0.0000    0.0000   -0.0000   -0.0000   -0.0001    0.0002
    87 C19    3d1-      -0.0000   -0.0000   -0.0000   -0.0000   -0.0000   -0.0000    0.0000   -0.0000    0.0000   -0.0000
    88 C19    3d0        0.0000   -0.0001   -0.0000   -0.0001   -0.0000   -0.0000   -0.0000    0.0001    0.0001    0.0004
    89 C19    3d1+      -0.0000   -0.0000   -0.0000   -0.0000   -0.0000   -0.0000    0.0000   -0.0000    0.0000    0.0000
    90 C19    3d2+       0.0000    0.0001   -0.0000   -0.0000   -0.0000   -0.0000   -0.0000   -0.0001    0.0001   -0.0001
    91 N2     1s         0.0000    0.0000   -0.0000    0.9998    0.0001    0.0002   -0.0000   -0.0002    0.0001   -0.0015
    92 N2     2s         0.0001    0.0003   -0.0002   -0.0002    0.0005    0.0019   -0.0001   -0.0003    0.0004    0.0292
    93 N2     3s         0.0001    0.0002   -0.0002   -0.0016    0.0004    0.0011   -0.0001   -0.0004    0.0003   -0.0007
    94 N2     4s         0.0000    0.0000   -0.0000    0.0004    0.0001    0.0004   -0.0000    0.0000    0.0001   -0.0004
    95 N2     2px       -0.0001    0.0004    0.0001    0.0005    0.0000    0.0001    0.0000   -0.0001   -0.0003   -0.0052
    96 N2     3px       -0.0003    0.0005    0.0000    0.0004   -0.0000   -0.0001    0.0000    0.0001   -0.0002   -0.0040
    97 N2     4px       -0.0001    0.0000   -0.0000   -0.0000   -0.0000    0.0000   -0.0000   -0.0002    0.0001    0.0004
    98 N2     2py       -0.0002   -0.0014   -0.0002   -0.0006    0.0004    0.0010    0.0001    0.0006   -0.0002    0.0100
    99 N2     3py       -0.0003   -0.0016   -0.0003    0.0002    0.0005    0.0010    0.0002    0.0006   -0.0001    0.0024
   100 N2     4py       -0.0000    0.0000    0.0000    0.0006   -0.0000    0.0001    0.0000   -0.0001    0.0001   -0.0005
   101 N2     2pz        0.0002    0.0000   -0.0002    0.0001   -0.0001   -0.0000    0.0001    0.0001    0.0000   -0.0022
   102 N2     3pz        0.0002    0.0000   -0.0002    0.0000   -0.0001    0.0000    0.0001   -0.0000    0.0000   -0.0017
   103 N2     4pz        0.0000   -0.0000   -0.0000   -0.0000    0.0000    0.0000    0.0000    0.0000   -0.0000    0.0008
   104 N2     3d2-      -0.0000    0.0001   -0.0000   -0.0002    0.0000   -0.0000    0.0000   -0.0001   -0.0000    0.0004
   105 N2     3d1-       0.0000   -0.0000    0.0000    0.0000   -0.0000    0.0000    0.0000    0.0000   -0.0000   -0.0005
   106 N2     3d0       -0.0000   -0.0000    0.0000    0.0001   -0.0000    0.0001    0.0000    0.0002   -0.0001   -0.0006
   107 N2     3d1+       0.0000   -0.0000   -0.0000    0.0000   -0.0000    0.0000   -0.0000    0.0000   -0.0000   -0.0002
   108 N2     3d2+      -0.0000   -0.0001   -0.0000    0.0000   -0.0000   -0.0000   -0.0000    0.0000    0.0000    0.0002
   109 N5     1s         0.0001   -0.0001    0.9998   -0.0000   -0.0003    0.0000    0.0001    0.0000    0.0000   -0.0168
   110 N5     2s         0.0006   -0.0004   -0.0004   -0.0000   -0.0004    0.0003    0.0016    0.0001    0.0001    0.1130
   111 N5     3s         0.0005   -0.0003   -0.0016   -0.0001   -0.0005    0.0003    0.0009    0.0000    0.0000   -0.0441
   112 N5     4s         0.0001   -0.0001    0.0004   -0.0000   -0.0000    0.0000    0.0004    0.0000    0.0000   -0.0106
   113 N5     2px        0.0003   -0.0002   -0.0002   -0.0005    0.0001   -0.0001   -0.0008   -0.0002    0.0000    0.0100
   114 N5     3px        0.0004   -0.0001    0.0000   -0.0007   -0.0000   -0.0002   -0.0007   -0.0002    0.0000    0.0007
   115 N5     4px        0.0000    0.0000   -0.0003   -0.0001    0.0001   -0.0001   -0.0001   -0.0000    0.0000    0.0041
   116 N5     2py       -0.0013   -0.0000   -0.0007    0.0004    0.0001   -0.0002    0.0005   -0.0001   -0.0001    0.0282
   117 N5     3py       -0.0016   -0.0001   -0.0002    0.0006   -0.0002   -0.0002    0.0003   -0.0000   -0.0001    0.0260
   118 N5     4py        0.0000   -0.0000    0.0000    0.0001   -0.0002    0.0001    0.0001    0.0001   -0.0000   -0.0037
   119 N5     2pz       -0.0005   -0.0001   -0.0005   -0.0003    0.0002    0.0000   -0.0001   -0.0003   -0.0000    0.0344
   120 N5     3pz       -0.0005    0.0000   -0.0003   -0.0004    0.0001   -0.0000    0.0002   -0.0003    0.0000   -0.0197
   121 N5     4pz       -0.0000    0.0001    0.0006    0.0000    0.0002   -0.0000    0.0002    0.0001    0.0000    0.0004
   122 N5     3d2-      -0.0000   -0.0000    0.0001   -0.0000    0.0001   -0.0000    0.0001    0.0000    0.0000    0.0002
   123 N5     3d1-      -0.0000    0.0000    0.0001    0.0000   -0.0000    0.0000    0.0000    0.0000    0.0000    0.0008
   124 N5     3d0       -0.0001   -0.0000    0.0000   -0.0000    0.0000    0.0000   -0.0000    0.0000    0.0000    0.0051
   125 N5     3d1+       0.0000    0.0000    0.0000   -0.0000   -0.0000    0.0000   -0.0000    0.0000    0.0000    0.0028
   126 N5     3d2+      -0.0000   -0.0000   -0.0001    0.0000    0.0001   -0.0000    0.0000   -0.0000   -0.0000    0.0019
   127 O7     1s        -0.0000    0.9997    0.0000    0.0000    0.0000   -0.0000    0.0000   -0.0002    0.0001   -0.0020
   128 O7     2s        -0.0001   -0.0012    0.0000    0.0002    0.0003   -0.0002    0.0001    0.0007    0.0004    0.0316
   129 O7     3s        -0.0001   -0.0013    0.0000    0.0002    0.0002   -0.0001    0.0000    0.0001    0.0003   -0.0040
   130 O7     4s        -0.0000    0.0001    0.0000    0.0000    0.0001   -0.0000    0.0000    0.0001    0.0001   -0.0010
   131 O7     2px       -0.0001    0.0002    0.0000   -0.0002    0.0001   -0.0001   -0.0000    0.0006    0.0001    0.0081
   132 O7     3px       -0.0002   -0.0004    0.0000   -0.0003    0.0001   -0.0000   -0.0000    0.0000    0.0001    0.0005
   133 O7     4px       -0.0000    0.0010    0.0000   -0.0001   -0.0000    0.0000    0.0000    0.0001   -0.0000    0.0008
   134 O7     2py        0.0000   -0.0003   -0.0002   -0.0003   -0.0001   -0.0000   -0.0002   -0.0007   -0.0002    0.0036
   135 O7     3py       -0.0000    0.0002   -0.0002   -0.0003   -0.0002   -0.0000   -0.0004   -0.0006   -0.0002    0.0129
   136 O7     4py       -0.0001   -0.0010   -0.0001    0.0000   -0.0001    0.0000   -0.0001   -0.0003   -0.0000    0.0034
   137 O7     2pz       -0.0001    0.0000   -0.0000    0.0000    0.0000    0.0000    0.0001    0.0001    0.0000   -0.0000
   138 O7     3pz       -0.0001   -0.0000   -0.0000    0.0001   -0.0000    0.0000    0.0001    0.0001    0.0000   -0.0007
   139 O7     4pz       -0.0000    0.0001    0.0000    0.0000   -0.0000    0.0000    0.0000    0.0000    0.0000   -0.0000
   140 O7     3d2-       0.0000    0.0001   -0.0000    0.0000    0.0000    0.0000   -0.0000   -0.0002   -0.0000   -0.0007
   141 O7     3d1-      -0.0000   -0.0000   -0.0000   -0.0000    0.0000    0.0000    0.0000   -0.0000   -0.0000   -0.0001
   142 O7     3d0        0.0000    0.0000    0.0000   -0.0000   -0.0000   -0.0000    0.0000   -0.0001   -0.0000   -0.0007
   143 O7     3d1+      -0.0000   -0.0000   -0.0000    0.0000    0.0000    0.0000    0.0000    0.0000   -0.0000    0.0001
   144 O7     3d2+      -0.0000   -0.0000    0.0000   -0.0001    0.0000   -0.0000    0.0000   -0.0000   -0.0000    0.0002
   145 O8     1s         0.9997    0.0001    0.0000    0.0000   -0.0003    0.0000   -0.0000    0.0000    0.0000   -0.0241
   146 O8     2s        -0.0014    0.0003    0.0002    0.0002    0.0002    0.0002   -0.0003    0.0003    0.0000    0.6913
   147 O8     3s        -0.0014    0.0002    0.0001    0.0001   -0.0001    0.0002   -0.0002    0.0002    0.0000   -0.0338
   148 O8     4s         0.0001    0.0000   -0.0000   -0.0000   -0.0000    0.0000   -0.0001    0.0001    0.0000   -0.0134
   149 O8     2px       -0.0000    0.0001    0.0002    0.0000    0.0002   -0.0001    0.0001    0.0001    0.0000   -0.0044
   150 O8     3px       -0.0000    0.0002    0.0003    0.0001    0.0002   -0.0001    0.0001    0.0002    0.0001   -0.0017
   151 O8     4px       -0.0001    0.0001    0.0001    0.0000    0.0001   -0.0000    0.0000    0.0001    0.0000   -0.0007
   152 O8     2py       -0.0002   -0.0000   -0.0002   -0.0001   -0.0003   -0.0001    0.0000   -0.0001   -0.0000   -0.0857
   153 O8     3py        0.0003    0.0000   -0.0001   -0.0000   -0.0002   -0.0000    0.0000   -0.0000   -0.0001    0.0265
   154 O8     4py       -0.0008    0.0000    0.0001    0.0000   -0.0003    0.0000   -0.0000    0.0000   -0.0000   -0.0009
   155 O8     2pz       -0.0003   -0.0000    0.0002    0.0000   -0.0006   -0.0001    0.0001    0.0000   -0.0000   -0.1228
   156 O8     3pz        0.0004    0.0000    0.0003    0.0001   -0.0001   -0.0001    0.0001    0.0001    0.0000    0.0353
   157 O8     4pz       -0.0011    0.0000    0.0001    0.0000   -0.0002    0.0000   -0.0000    0.0001    0.0000    0.0011
   158 O8     3d2-      -0.0001    0.0000   -0.0000    0.0000    0.0001   -0.0000   -0.0000   -0.0000   -0.0000    0.0009
   159 O8     3d1-      -0.0000    0.0000    0.0000    0.0000    0.0002    0.0000   -0.0000    0.0000    0.0000    0.0184
   160 O8     3d0       -0.0000   -0.0000   -0.0000   -0.0000    0.0001    0.0000   -0.0000    0.0000    0.0000    0.0101
   161 O8     3d1+       0.0000   -0.0000   -0.0000    0.0000   -0.0000    0.0000   -0.0000    0.0000    0.0000    0.0011
   162 O8     3d2+      -0.0000   -0.0000   -0.0001   -0.0000   -0.0000   -0.0000   -0.0000    0.0000   -0.0000   -0.0067
   163 H9     1s        -0.0001    0.0002    0.0001    0.0001   -0.0000   -0.0001    0.0000    0.0001    0.0003    0.0041
   164 H9     2s        -0.0001    0.0001    0.0001    0.0001   -0.0000   -0.0001    0.0000    0.0001   -0.0003    0.0029
   165 H9     2px       -0.0000    0.0000    0.0000    0.0000   -0.0000   -0.0000   -0.0000    0.0000   -0.0001    0.0005
   166 H9     2py       -0.0000   -0.0001    0.0000   -0.0000   -0.0000   -0.0000    0.0000    0.0001    0.0000    0.0001
   167 H9     2pz       -0.0000    0.0000    0.0000   -0.0000    0.0000   -0.0000    0.0000    0.0000   -0.0001    0.0002
   168 H10    1s         0.0000    0.0002    0.0001    0.0000   -0.0000   -0.0001    0.0000   -0.0001    0.0003    0.0017
   169 H10    2s         0.0000    0.0001    0.0000   -0.0000   -0.0000   -0.0001    0.0000    0.0000   -0.0003    0.0014
   170 H10    2px       -0.0000   -0.0000   -0.0000    0.0000   -0.0000   -0.0000   -0.0000    0.0000   -0.0000    0.0003
   171 H10    2py        0.0000   -0.0001   -0.0000   -0.0000   -0.0000   -0.0000    0.0000    0.0001    0.0000    0.0000
   172 H10    2pz        0.0000   -0.0000   -0.0000   -0.0000   -0.0000    0.0000   -0.0000   -0.0000    0.0001   -0.0003
   173 H11    1s        -0.0002   -0.0004   -0.0002    0.0004   -0.0002   -0.0001   -0.0001    0.0002    0.0001    0.0098
   174 H11    2s        -0.0001   -0.0002   -0.0001    0.0003   -0.0001   -0.0001   -0.0000    0.0001   -0.0004    0.0063
   175 H11    2px        0.0000   -0.0000    0.0000   -0.0001    0.0000    0.0000    0.0000   -0.0000    0.0001   -0.0008
   176 H11    2py       -0.0000   -0.0000   -0.0000   -0.0000   -0.0000    0.0000   -0.0000    0.0001   -0.0001    0.0007
   177 H11    2pz       -0.0000   -0.0000    0.0000   -0.0000   -0.0000   -0.0000   -0.0000    0.0000   -0.0000    0.0000
   178 H12    1s        -0.0004   -0.0010   -0.0001   -0.0003    0.0002    0.0003    0.0001    0.0006   -0.0003    0.0091
   179 H12    2s        -0.0002   -0.0005   -0.0001   -0.0002    0.0001    0.0002    0.0000    0.0003   -0.0001    0.0021
   180 H12    2px        0.0000    0.0000    0.0000    0.0003   -0.0000    0.0000    0.0000   -0.0002    0.0000   -0.0008
   181 H12    2py       -0.0000   -0.0000    0.0000   -0.0004    0.0000    0.0001   -0.0000    0.0000   -0.0000    0.0010
   182 H12    2pz       -0.0000    0.0000    0.0000    0.0000    0.0000   -0.0000    0.0000   -0.0000    0.0000    0.0001
   183 H13    1s         0.0004    0.0005   -0.0001   -0.0001   -0.0002    0.0009    0.0001   -0.0002   -0.0000    0.0049
   184 H13    2s         0.0003    0.0003   -0.0000    0.0000   -0.0002    0.0001    0.0000   -0.0001   -0.0000   -0.0073
   185 H13    2px       -0.0000   -0.0000    0.0000   -0.0000   -0.0000   -0.0001    0.0000    0.0000   -0.0000   -0.0006
   186 H13    2py       -0.0000   -0.0000    0.0000    0.0000    0.0000   -0.0000   -0.0000    0.0000    0.0000    0.0004
   187 H13    2pz       -0.0000   -0.0001   -0.0000   -0.0001   -0.0000   -0.0000   -0.0000    0.0000    0.0000    0.0001
   188 H14    1s         0.0000    0.0004    0.0005   -0.0006    0.0002    0.0006   -0.0002   -0.0003   -0.0001    0.0162
   189 H14    2s         0.0000    0.0003    0.0003   -0.0003    0.0002   -0.0001   -0.0001   -0.0002   -0.0000    0.0035
   190 H14    2px        0.0000   -0.0000   -0.0000    0.0000   -0.0001   -0.0000    0.0000    0.0000   -0.0000   -0.0023
   191 H14    2py        0.0001   -0.0000   -0.0000    0.0000    0.0000   -0.0000   -0.0000   -0.0000    0.0000    0.0001
   192 H14    2pz        0.0000    0.0000    0.0001    0.0000    0.0000   -0.0000   -0.0000   -0.0000   -0.0000   -0.0003
   193 H15    1s        -0.0009   -0.0004   -0.0006   -0.0004    0.0001   -0.0005   -0.0005   -0.0011   -0.0002    0.0433
   194 H15    2s        -0.0005   -0.0002   -0.0005   -0.0003   -0.0000   -0.0003   -0.0003   -0.0007   -0.0001    0.0017
   195 H15    2px       -0.0001    0.0000   -0.0001   -0.0000    0.0001    0.0000   -0.0000   -0.0000   -0.0000    0.0017
   196 H15    2py       -0.0001    0.0000   -0.0004    0.0000    0.0000   -0.0000    0.0000   -0.0001   -0.0000    0.0041
   197 H15    2pz        0.0000   -0.0001   -0.0002   -0.0000    0.0001   -0.0000   -0.0000   -0.0001   -0.0000    0.0041
   198 H16    1s         0.0006    0.0003   -0.0005   -0.0000   -0.0004    0.0001    0.0010    0.0001    0.0001   -0.0020
   199 H16    2s         0.0004    0.0002   -0.0002   -0.0000   -0.0003    0.0001    0.0001    0.0000    0.0001   -0.0063
   200 H16    2px        0.0000    0.0000   -0.0000    0.0000   -0.0001    0.0000    0.0001    0.0000    0.0000    0.0002
   201 H16    2py       -0.0000    0.0000    0.0000   -0.0000    0.0000    0.0000   -0.0000   -0.0000   -0.0000   -0.0005
   202 H16    2pz        0.0000   -0.0000   -0.0000   -0.0000   -0.0000   -0.0000   -0.0000    0.0000    0.0000   -0.0002
   203 H17    1s        -0.0001    0.0000   -0.0001   -0.0001   -0.0002   -0.0001    0.0009   -0.0000    0.0000    0.0113
   204 H17    2s        -0.0000    0.0000   -0.0000   -0.0001   -0.0000   -0.0000    0.0001    0.0000    0.0000   -0.0023
   205 H17    2px       -0.0000   -0.0000   -0.0000    0.0000    0.0000   -0.0000   -0.0000    0.0000   -0.0000    0.0008
   206 H17    2py        0.0000   -0.0000   -0.0000    0.0000    0.0000    0.0000   -0.0001    0.0000   -0.0000   -0.0009
   207 H17    2pz        0.0000    0.0000   -0.0000    0.0000    0.0000    0.0000   -0.0001    0.0000    0.0000   -0.0004
   208 H18    1s        -0.0002    0.0000   -0.0003    0.0001   -0.0002    0.0001    0.0006    0.0001   -0.0000    0.0142
   209 H18    2s        -0.0002    0.0000   -0.0001    0.0000   -0.0001    0.0001   -0.0000    0.0000   -0.0000    0.0046
   210 H18    2px       -0.0000   -0.0000   -0.0000    0.0000    0.0000   -0.0000    0.0000   -0.0000   -0.0000    0.0004
   211 H18    2py        0.0000    0.0000    0.0000   -0.0000    0.0000   -0.0000   -0.0000   -0.0000    0.0000   -0.0005
   212 H18    2pz       -0.0000   -0.0000   -0.0000    0.0000   -0.0000    0.0000   -0.0000    0.0000   -0.0000    0.0016
 
 
      Orbital                11        12        13        14        15        16        17        18        19        20
      Energy            -1.3604   -1.2488   -1.2156   -1.0119   -0.9626   -0.9209   -0.8108   -0.7739   -0.6986   -0.6801
      Occ. No.           2.0000    2.0000    2.0000    2.0000    2.0000    2.0000    2.0000    2.0000    2.0000    2.0000
 
     1 C1     1s         0.0392    0.0032    0.0067   -0.0123   -0.0085    0.0042    0.0076   -0.0131    0.0040    0.0069
     2 C1     2s        -0.3587    0.0062   -0.1084    0.2202    0.1499   -0.0108   -0.1759    0.3363   -0.1076   -0.1763
     3 C1     3s         0.0027    0.0139   -0.0020   -0.0059   -0.0098    0.0098   -0.0008   -0.0020    0.0067    0.0117
     4 C1     4s        -0.0033    0.0044   -0.0008   -0.0027   -0.0020    0.0040    0.0007   -0.0028    0.0021    0.0046
     5 C1     2px        0.0590    0.0272   -0.1418    0.0427   -0.0386   -0.1080   -0.0871    0.1241    0.0337    0.0822
     6 C1     3px       -0.0279   -0.0034    0.0449   -0.0540   -0.0177    0.0235    0.0240   -0.0228   -0.0098   -0.0333
     7 C1     4px        0.0175    0.0086   -0.0284   -0.0024   -0.0083   -0.0103   -0.0068    0.0087    0.0044    0.0046
     8 C1     2py       -0.0924    0.0139    0.0220   -0.0998   -0.1167   -0.0406   -0.0183    0.0374   -0.0601    0.0236
     9 C1     3py        0.0531    0.0381   -0.0362    0.0023    0.0339    0.0594    0.0064   -0.0131    0.0269    0.0045
    10 C1     4py       -0.0222    0.0048    0.0044   -0.0174   -0.0149   -0.0018   -0.0017    0.0045   -0.0013   -0.0005
    11 C1     2pz        0.0057   -0.0076   -0.0042    0.0087    0.0056    0.0143   -0.0075   -0.0065    0.0040   -0.0117
    12 C1     3pz       -0.0030   -0.0130   -0.0020   -0.0005   -0.0101    0.0059   -0.0111   -0.0068   -0.0051   -0.0035
    13 C1     4pz        0.0014   -0.0040   -0.0012    0.0007    0.0008    0.0025   -0.0034   -0.0021   -0.0010   -0.0024
    14 C1     3d2-       0.0333    0.0055   -0.0200    0.0064    0.0075    0.0035   -0.0042    0.0127   -0.0082    0.0064
    15 C1     3d1-       0.0035   -0.0000   -0.0005   -0.0011   -0.0019   -0.0008   -0.0000   -0.0016    0.0011    0.0008
    16 C1     3d0        0.0278    0.0005    0.0053   -0.0093   -0.0050    0.0028    0.0071   -0.0121    0.0030    0.0047
    17 C1     3d1+      -0.0017   -0.0008    0.0016   -0.0008   -0.0008    0.0003    0.0008   -0.0014    0.0017   -0.0022
    18 C1     3d2+      -0.0012    0.0030   -0.0215    0.0065   -0.0100   -0.0171   -0.0073    0.0076    0.0033    0.0067
    19 C3     1s         0.0083   -0.0087    0.0305    0.0394    0.0002   -0.0245   -0.0071   -0.0023    0.0028    0.0060
    20 C3     2s        -0.0254    0.0595   -0.1939   -0.3379   -0.0145    0.3618    0.0606    0.0876   -0.0973   -0.0665
    21 C3     3s         0.0148   -0.0148    0.0515    0.0724   -0.0009   -0.0201   -0.0161   -0.0002   -0.0045    0.0173
    22 C3     4s         0.0019   -0.0023    0.0121    0.0191    0.0010   -0.0061   -0.0042   -0.0018   -0.0001    0.0048
    23 C3     2px        0.0187   -0.0242    0.0523    0.0004   -0.0185    0.0421    0.0684   -0.0508   -0.0217   -0.1878
    24 C3     3px        0.0019    0.0052   -0.0202   -0.0366   -0.0196    0.0073   -0.0078   -0.0026    0.0018    0.0141
    25 C3     4px        0.0025    0.0028   -0.0079   -0.0179   -0.0070    0.0171    0.0056    0.0025   -0.0018   -0.0050
    26 C3     2py        0.0276   -0.0065    0.1100   -0.0443    0.0538    0.0214   -0.1476    0.1730    0.1827    0.0514
    27 C3     3py        0.0143   -0.0062    0.0256    0.0168   -0.0504   -0.0388    0.0002   -0.0048   -0.0370   -0.0006
    28 C3     4py        0.0080   -0.0001    0.0168   -0.0028   -0.0010   -0.0037   -0.0093    0.0069   -0.0010    0.0005
    29 C3     2pz        0.0018   -0.0249   -0.0072    0.0188   -0.0369    0.0257    0.0022    0.0109    0.1078   -0.1440
    30 C3     3pz        0.0004   -0.0054   -0.0029    0.0083   -0.0198    0.0142   -0.0090   -0.0052   -0.0046    0.0085
    31 C3     4pz       -0.0006    0.0016   -0.0014    0.0003   -0.0029    0.0046   -0.0026   -0.0003    0.0015   -0.0053
    32 C3     3d2-      -0.0034    0.0002   -0.0160    0.0091   -0.0131   -0.0073    0.0115   -0.0096   -0.0215   -0.0053
    33 C3     3d1-       0.0008   -0.0052    0.0009    0.0017   -0.0022    0.0018    0.0024    0.0023    0.0044   -0.0046
    34 C3     3d0        0.0026   -0.0038    0.0115    0.0065    0.0005    0.0014    0.0044    0.0007   -0.0022   -0.0132
    35 C3     3d1+      -0.0005    0.0018    0.0000   -0.0010    0.0001    0.0010   -0.0003    0.0011    0.0043   -0.0052
    36 C3     3d2+       0.0009   -0.0006    0.0106    0.0056    0.0023   -0.0018   -0.0038    0.0120   -0.0082   -0.0050
    37 C4     1s        -0.0032   -0.0083   -0.0021    0.0136   -0.0108    0.0040    0.0185    0.0017   -0.0055   -0.0008
    38 C4     2s        -0.0033    0.1393   -0.0172   -0.2209    0.1848    0.0380   -0.3558   -0.0744    0.2267    0.0652
    39 C4     3s        -0.0087   -0.0043   -0.0048    0.0212   -0.0106    0.0131    0.0285   -0.0093   -0.0072    0.0096
    40 C4     4s        -0.0021   -0.0019   -0.0018    0.0078   -0.0035    0.0021    0.0084   -0.0035   -0.0026    0.0001
    41 C4     2px       -0.0102   -0.0539   -0.0389   -0.0521    0.0309    0.0755    0.0208    0.0992    0.1134   -0.0056
    42 C4     3px       -0.0183    0.0128   -0.0122    0.0044    0.0633   -0.0332   -0.0024   -0.0455   -0.0293   -0.0120
    43 C4     4px       -0.0051   -0.0090   -0.0080   -0.0066    0.0102    0.0062    0.0038    0.0023    0.0062   -0.0041
    44 C4     2py        0.0191    0.0033    0.0351    0.1094   -0.0608   -0.0607   -0.0431   -0.1347   -0.0267   -0.1337
    45 C4     3py       -0.0002    0.0494   -0.0084   -0.0282   -0.0521    0.0693   -0.0108    0.0550    0.0052    0.0535
    46 C4     4py        0.0040    0.0045    0.0067    0.0108   -0.0151    0.0031   -0.0063   -0.0061    0.0037   -0.0038
    47 C4     2pz       -0.0007   -0.1362   -0.0403    0.0431   -0.0671    0.0716    0.0750    0.0803    0.2177   -0.1609
    48 C4     3pz       -0.0192    0.0649   -0.0173   -0.0274    0.0430   -0.0134   -0.0017   -0.0227   -0.0698    0.0393
    49 C4     4pz        0.0014   -0.0242   -0.0055    0.0024   -0.0046    0.0085    0.0056    0.0054    0.0154   -0.0108
    50 C4     3d2-      -0.0004   -0.0070    0.0019    0.0118   -0.0039   -0.0101    0.0126   -0.0015    0.0031    0.0024
    51 C4     3d1-       0.0029   -0.0209   -0.0027    0.0031   -0.0018    0.0001    0.0082    0.0088    0.0249    0.0016
    52 C4     3d0        0.0015    0.0086    0.0035    0.0020    0.0099   -0.0172   -0.0012   -0.0100   -0.0006    0.0044
    53 C4     3d1+       0.0001    0.0177    0.0038   -0.0040    0.0084   -0.0077   -0.0081   -0.0081   -0.0047   -0.0004
    54 C4     3d2+      -0.0009    0.0088    0.0043    0.0036    0.0017   -0.0034    0.0057   -0.0003   -0.0058    0.0003
    55 C6     1s        -0.0016   -0.0301   -0.0130   -0.0305    0.0383   -0.0304    0.0102   -0.0026   -0.0029   -0.0069
    56 C6     2s        -0.0159    0.1706    0.0108    0.1828   -0.3011    0.3003   -0.1154    0.0181    0.0220    0.0795
    57 C6     3s        -0.0101   -0.0436   -0.0399   -0.0591    0.0685   -0.0439    0.0238   -0.0077   -0.0068   -0.0211
    58 C6     4s        -0.0026   -0.0071   -0.0096   -0.0125    0.0153   -0.0093    0.0070   -0.0024   -0.0012   -0.0068
    59 C6     2px       -0.0006    0.0615    0.0093    0.0180   -0.0016   -0.0218    0.0264   -0.0437   -0.1020   -0.2417
    60 C6     3px       -0.0016   -0.0181   -0.0114   -0.0116    0.0096   -0.0023   -0.0011    0.0034    0.0108    0.0337
    61 C6     4px       -0.0011   -0.0007   -0.0012   -0.0059    0.0109   -0.0094    0.0043   -0.0023   -0.0036   -0.0108
    62 C6     2py        0.0021   -0.0861   -0.0099   -0.0148   -0.0072    0.0312   -0.1155   -0.0171   -0.0190    0.2005
    63 C6     3py       -0.0011    0.0129    0.0138    0.0179   -0.0154    0.0009   -0.0017    0.0007   -0.0036   -0.0318
    64 C6     4py       -0.0010    0.0010    0.0004    0.0084   -0.0127    0.0139   -0.0107   -0.0008   -0.0011    0.0099
    65 C6     2pz        0.0004    0.0089    0.0022   -0.0100    0.0257   -0.0178   -0.0692   -0.0832   -0.1217   -0.0166
    66 C6     3pz        0.0005   -0.0051   -0.0025   -0.0116    0.0230   -0.0111    0.0117    0.0065    0.0154   -0.0013
    67 C6     4pz        0.0002   -0.0027   -0.0014   -0.0022    0.0043   -0.0031   -0.0054   -0.0069   -0.0053   -0.0028
    68 C6     3d2-       0.0001   -0.0194   -0.0045   -0.0066    0.0028    0.0034   -0.0110    0.0019    0.0061    0.0323
    69 C6     3d1-       0.0002   -0.0025   -0.0004    0.0008   -0.0019    0.0015    0.0024    0.0022   -0.0013    0.0005
    70 C6     3d0        0.0005   -0.0131   -0.0027   -0.0024   -0.0001    0.0030   -0.0064    0.0017    0.0044    0.0154
    71 C6     3d1+       0.0004    0.0014    0.0009    0.0004    0.0003   -0.0007   -0.0084   -0.0081   -0.0101   -0.0040
    72 C6     3d2+      -0.0003   -0.0051   -0.0011   -0.0015    0.0008    0.0008   -0.0071   -0.0030   -0.0010    0.0063
    73 C19    1s         0.0150    0.0002    0.0098   -0.0349   -0.0534   -0.0359   -0.0111    0.0098    0.0002   -0.0052
    74 C19    2s         0.0090    0.0019    0.0049    0.1795    0.3116    0.2513    0.0556   -0.0748   -0.0164    0.0384
    75 C19    3s         0.0400    0.0060    0.0306   -0.0683   -0.1022   -0.0622   -0.0294    0.0222    0.0005   -0.0093
    76 C19    4s         0.0038    0.0032    0.0046   -0.0138   -0.0219   -0.0136   -0.0075    0.0064    0.0008   -0.0021
    77 C19    2px        0.0112    0.0027   -0.0201    0.0433    0.0220   -0.0145   -0.0279    0.0362    0.0444   -0.0017
    78 C19    3px        0.0054   -0.0007    0.0035    0.0122    0.0008   -0.0039    0.0014   -0.0030   -0.0020    0.0044
    79 C19    4px       -0.0075   -0.0002   -0.0001   -0.0013   -0.0090   -0.0095   -0.0028    0.0005    0.0036   -0.0008
    80 C19    2py       -0.0196    0.0059   -0.0090    0.0356    0.0266   -0.0025   -0.0409    0.0723   -0.0109   -0.1262
    81 C19    3py        0.0091    0.0079    0.0042   -0.0190   -0.0249   -0.0116    0.0029   -0.0107    0.0069    0.0167
    82 C19    4py       -0.0056    0.0004   -0.0007   -0.0078   -0.0153   -0.0146   -0.0062    0.0117   -0.0014   -0.0052
    83 C19    2pz        0.0026    0.0014    0.0042   -0.0049   -0.0053   -0.0056    0.0057   -0.0033    0.0026    0.0077
    84 C19    3pz        0.0004    0.0021    0.0030    0.0008   -0.0001   -0.0054    0.0034    0.0023    0.0036   -0.0023
    85 C19    4pz        0.0007    0.0004    0.0002    0.0011    0.0021    0.0013    0.0012   -0.0007    0.0002    0.0004
    86 C19    3d2-       0.0009    0.0010   -0.0062    0.0068    0.0046   -0.0007   -0.0042    0.0067   -0.0012   -0.0065
    87 C19    3d1-       0.0005   -0.0000    0.0001   -0.0013   -0.0010   -0.0004    0.0004   -0.0008    0.0001    0.0017
    88 C19    3d0       -0.0013    0.0000    0.0007   -0.0057   -0.0062   -0.0021    0.0019   -0.0033   -0.0027    0.0032
    89 C19    3d1+      -0.0008   -0.0002    0.0005   -0.0009   -0.0002    0.0004    0.0006   -0.0011   -0.0011   -0.0001
    90 C19    3d2+       0.0066    0.0009   -0.0009   -0.0059   -0.0069   -0.0031    0.0021   -0.0051    0.0016    0.0094
    91 N2     1s         0.0182   -0.0057    0.0393   -0.0070    0.0017    0.0037   -0.0026    0.0037   -0.0007    0.0020
    92 N2     2s        -0.1373    0.0885   -0.5796    0.0998   -0.1504   -0.1947    0.0097   -0.1048    0.0201    0.0853
    93 N2     3s         0.0442   -0.0075    0.0667   -0.0101   -0.0068   -0.0025   -0.0096    0.0040    0.0012    0.0116
    94 N2     4s         0.0108   -0.0030    0.0228   -0.0022    0.0007    0.0020   -0.0030    0.0019    0.0004    0.0015
    95 N2     2px        0.0339   -0.0010    0.0206   -0.1012   -0.0718    0.0696    0.1916   -0.3494    0.0452   -0.0261
    96 N2     3px       -0.0120   -0.0061    0.0195    0.0423   -0.0153   -0.0611   -0.0662    0.0883   -0.0054    0.0065
    97 N2     4px        0.0065    0.0007   -0.0001   -0.0001   -0.0087   -0.0078   -0.0026   -0.0022    0.0031    0.0017
    98 N2     2py       -0.0244    0.0035    0.0161   -0.1290   -0.0413    0.0760    0.0146    0.1147   -0.2581    0.0165
    99 N2     3py       -0.0050   -0.0118    0.0495    0.0377   -0.0107   -0.0646   -0.0185   -0.0146    0.0481   -0.0104
   100 N2     4py        0.0091   -0.0023    0.0140   -0.0035   -0.0019   -0.0049   -0.0056    0.0076   -0.0002   -0.0009
   101 N2     2pz       -0.0005    0.0036   -0.0048    0.0094    0.0096   -0.0055   -0.0012    0.0045    0.0366   -0.0371
   102 N2     3pz       -0.0000    0.0073   -0.0006   -0.0058    0.0095   -0.0025    0.0069    0.0027   -0.0115    0.0148
   103 N2     4pz       -0.0010    0.0012   -0.0013    0.0001    0.0008   -0.0005    0.0014   -0.0003   -0.0011    0.0025
   104 N2     3d2-       0.0014    0.0020   -0.0098   -0.0027    0.0023    0.0079    0.0013    0.0075   -0.0131   -0.0021
   105 N2     3d1-      -0.0001   -0.0006    0.0016   -0.0000    0.0001    0.0005   -0.0007    0.0013    0.0013   -0.0029
   106 N2     3d0        0.0031   -0.0028    0.0162   -0.0007    0.0033    0.0026   -0.0003    0.0006   -0.0000   -0.0003
   107 N2     3d1+      -0.0000   -0.0001    0.0007   -0.0004   -0.0005   -0.0000    0.0008   -0.0011    0.0019   -0.0012
   108 N2     3d2+      -0.0053    0.0001   -0.0040    0.0094    0.0005   -0.0087   -0.0093    0.0155   -0.0031   -0.0037
   109 N5     1s         0.0005   -0.0415   -0.0083   -0.0009   -0.0023    0.0022   -0.0037   -0.0019   -0.0030   -0.0025
   110 N5     2s        -0.0166    0.5748    0.1226    0.0253    0.0999   -0.1909    0.1760   -0.0140   -0.0866   -0.1454
   111 N5     3s        -0.0027   -0.0809   -0.0185   -0.0069    0.0049   -0.0082   -0.0029   -0.0092   -0.0128   -0.0114
   112 N5     4s        -0.0007   -0.0262   -0.0064   -0.0033    0.0012    0.0001   -0.0024   -0.0017   -0.0008   -0.0004
   113 N5     2px       -0.0037    0.0022   -0.0267   -0.0938    0.1076   -0.0568   -0.1272   -0.0785   -0.0762    0.1771
   114 N5     3px       -0.0068    0.0305   -0.0202    0.0172   -0.0439    0.0443    0.0428    0.0164    0.0142   -0.0293
   115 N5     4px       -0.0007   -0.0003   -0.0043   -0.0032   -0.0014    0.0053    0.0008   -0.0003    0.0026   -0.0039
   116 N5     2py        0.0085   -0.0120    0.0238    0.1086   -0.1190    0.0998   -0.1205   -0.1141   -0.1221   -0.3175
   117 N5     3py        0.0063   -0.0075    0.0222   -0.0210    0.0624   -0.0480    0.0196    0.0216    0.0318    0.0548
   118 N5     4py        0.0013   -0.0053    0.0028    0.0007    0.0011   -0.0013   -0.0066   -0.0024   -0.0006    0.0065
   119 N5     2pz       -0.0036    0.0298   -0.0045   -0.0523    0.0778   -0.0359   -0.3143   -0.2489   -0.2160    0.0403
   120 N5     3pz       -0.0036   -0.0350   -0.0173    0.0126   -0.0092    0.0043    0.0690    0.0354    0.0312   -0.0197
   121 N5     4pz        0.0009   -0.0107   -0.0028   -0.0039    0.0029   -0.0011   -0.0040   -0.0029    0.0006   -0.0035
   122 N5     3d2-       0.0002   -0.0122   -0.0021   -0.0045    0.0060   -0.0058    0.0038    0.0027    0.0064    0.0101
   123 N5     3d1-       0.0010   -0.0029    0.0011    0.0040   -0.0027   -0.0028    0.0135    0.0060    0.0067   -0.0039
   124 N5     3d0        0.0004    0.0032    0.0010   -0.0051    0.0095   -0.0091   -0.0120   -0.0106   -0.0053    0.0083
   125 N5     3d1+       0.0000    0.0120    0.0023   -0.0040    0.0062   -0.0054   -0.0037   -0.0019   -0.0009    0.0058
   126 N5     3d2+       0.0003   -0.0029   -0.0005   -0.0005    0.0003    0.0017   -0.0076   -0.0049   -0.0017   -0.0008
   127 O7     1s         0.0242    0.0010   -0.0033   -0.0029   -0.0030   -0.0016    0.0042   -0.0102    0.0084    0.0103
   128 O7     2s        -0.6789   -0.0886    0.3087   -0.1653   -0.1441   -0.0173    0.1236   -0.2837    0.1770    0.1858
   129 O7     3s         0.0321   -0.0027    0.0097   -0.0177   -0.0157   -0.0073    0.0140   -0.0358    0.0266    0.0310
   130 O7     4s         0.0138   -0.0002    0.0001   -0.0035   -0.0031   -0.0020    0.0021   -0.0071    0.0053    0.0061
   131 O7     2px       -0.0993   -0.0061    0.0121    0.0015   -0.0057   -0.0291   -0.0738    0.1496   -0.1193   -0.1116
   132 O7     3px        0.0302    0.0019    0.0011   -0.0056   -0.0028   -0.0011    0.0049   -0.0199    0.0120    0.0071
   133 O7     4px        0.0019   -0.0000    0.0005   -0.0005    0.0007    0.0002    0.0003   -0.0024    0.0006   -0.0002
   134 O7     2py        0.1009    0.0254   -0.0436   -0.0128   -0.0243   -0.0185    0.0123   -0.0865    0.1223    0.1700
   135 O7     3py       -0.0376    0.0107    0.0002    0.0114    0.0057    0.0121   -0.0130    0.0130   -0.0117   -0.0196
   136 O7     4py       -0.0014    0.0033    0.0016    0.0008   -0.0001    0.0037   -0.0021    0.0008   -0.0019   -0.0028
   137 O7     2pz       -0.0039   -0.0034    0.0002    0.0022    0.0078    0.0005   -0.0079    0.0100   -0.0106   -0.0151
   138 O7     3pz        0.0030   -0.0016   -0.0004   -0.0017    0.0043   -0.0057    0.0030    0.0016    0.0011    0.0018
   139 O7     4pz       -0.0002   -0.0004    0.0000   -0.0005    0.0013   -0.0017    0.0011    0.0002    0.0005    0.0006
   140 O7     3d2-       0.0184    0.0023   -0.0053    0.0003    0.0009    0.0008    0.0029   -0.0080    0.0080    0.0092
   141 O7     3d1-       0.0015   -0.0000   -0.0008    0.0001   -0.0003   -0.0004   -0.0001   -0.0001    0.0003    0.0007
   142 O7     3d0        0.0104    0.0010   -0.0044    0.0014    0.0007   -0.0004    0.0012   -0.0032    0.0044    0.0047
   143 O7     3d1+      -0.0008   -0.0004    0.0001    0.0001    0.0002    0.0001   -0.0006    0.0005   -0.0004   -0.0009
   144 O7     3d2+       0.0008    0.0007   -0.0035   -0.0005   -0.0032   -0.0047   -0.0033    0.0042    0.0001    0.0038
   145 O8     1s        -0.0008    0.0028    0.0012    0.0029   -0.0028   -0.0014    0.0135    0.0038   -0.0211    0.0113
   146 O8     2s         0.0714   -0.3024    0.0135    0.1692   -0.1083   -0.0584    0.3473    0.0900   -0.3432    0.1889
   147 O8     3s         0.0018   -0.0067    0.0034    0.0123   -0.0108   -0.0060    0.0425    0.0111   -0.0598    0.0322
   148 O8     4s        -0.0002    0.0009    0.0003    0.0014   -0.0017   -0.0014    0.0082    0.0021   -0.0123    0.0069
   149 O8     2px        0.0015   -0.0130   -0.0060   -0.0142   -0.0060    0.0192    0.0193    0.0484    0.0326    0.0186
   150 O8     3px        0.0037   -0.0044    0.0012    0.0003   -0.0059   -0.0045   -0.0002   -0.0073   -0.0090    0.0003
[...]
AIVX     1  Mu1.0001  In1.027 Se1.047               0.25131087     -0.00022446      0.00047753     -0.00000011
AIVX     1  Mu1.0001  In1.028 Se1.047               0.14299149      0.00002701     -0.00004819     -0.00000000
AIVX     1  Mu1.0001  In1.029 Se1.047               0.11688583      0.00037834     -0.00072606     -0.00000027
AIVX     1  Mu1.0001  In1.021 Se1.048               0.28631196      0.00017428     -0.00004938     -0.00000001
AIVX     1  Mu1.0001  In1.022 Se1.048               0.20283964      0.00098692     -0.00154327     -0.00000152
AIVX     1  Mu1.0001  In1.024 Se1.048               0.29230506      0.00001539     -0.00027733     -0.00000000
AIVX     1  Mu1.0001  In1.025 Se1.048               0.27291066      0.00030935     -0.00043759     -0.00000014
AIVX     1  Mu1.0001  In1.026 Se1.048               0.14551967      0.00048618     -0.00089025     -0.00000043
AIVX     1  Mu1.0001  In1.027 Se1.048               0.25904639      0.00084824     -0.00121306     -0.00000103
AIVX     1  Mu1.0001  In1.028 Se1.048               0.15072701      0.00011345     -0.00023316     -0.00000003
AIVX     1  Mu1.0001  In1.029 Se1.048               0.12462136      0.00032638     -0.00059463     -0.00000019
AIVX     1  Mu1.0001  In1.022 Se1.049               0.29232119     -0.00026156      0.00052613     -0.00000014
AIVX     1  Mu1.0001  In1.026 Se1.049               0.23500122      0.00006061     -0.00007852     -0.00000000
AIVX     1  Mu1.0001  In1.028 Se1.049               0.24020857     -0.00005043      0.00005194     -0.00000000
AIVX     1  Mu1.0001  In1.029 Se1.049               0.21410291     -0.00044302      0.00072772     -0.00000032
AIVX     1  Mu1.0001  In1.022 Se1.050               0.21901272      0.00003052     -0.00039034     -0.00000001
AIVX     1  Mu1.0001  In1.025 Se1.050               0.28908374      0.00079076     -0.00124039     -0.00000098
AIVX     1  Mu1.0001  In1.026 Se1.050               0.16169275     -0.00016413      0.00020803     -0.00000003
AIVX     1  Mu1.0001  In1.027 Se1.050               0.27521947      0.00069169     -0.00142551     -0.00000099
AIVX     1  Mu1.0001  In1.028 Se1.050               0.16690010     -0.00016132      0.00038571     -0.00000006
AIVX     1  Mu1.0001  In1.029 Se1.050               0.14079444     -0.00007775      0.00008455     -0.00000001
AIVX     1  Mu1.0001  In1.022 Se1.051               0.22763156      0.00014210     -0.00013704     -0.00000002
AIVX     1  Mu1.0001  In1.025 Se1.051               0.29770258      0.00048528     -0.00070878     -0.00000034
AIVX     1  Mu1.0001  In1.026 Se1.051               0.17031159      0.00018193     -0.00030210     -0.00000005
AIVX     1  Mu1.0001  In1.027 Se1.051               0.28383831     -0.00021243      0.00041953     -0.00000009
AIVX     1  Mu1.0001  In1.028 Se1.051               0.17551893     -0.00003021      0.00008911     -0.00000000
AIVX     1  Mu1.0001  In1.029 Se1.051               0.14941328     -0.00001760      0.00011317     -0.00000000
AIVX     1  Mu1.0001  In1.022 Se1.052               0.27207956      0.00017105     -0.00040891     -0.00000007
AIVX     1  Mu1.0001  In1.026 Se1.052               0.21475958      0.00005243     -0.00009887     -0.00000001
AIVX     1  Mu1.0001  In1.028 Se1.052               0.21996693     -0.00010437      0.00017084     -0.00000002
AIVX     1  Mu1.0001  In1.029 Se1.052               0.19386128      0.00063092     -0.00119095     -0.00000075
AIVX     1  Mu1.0001  In1.022 Se1.053               0.27895153      0.00015219     -0.00022114     -0.00000003
AIVX     1  Mu1.0001  In1.026 Se1.053               0.22163155      0.00043480     -0.00080839     -0.00000035
AIVX     1  Mu1.0001  In1.028 Se1.053               0.22683890      0.00009002     -0.00012094     -0.00000001
AIVX     1  Mu1.0001  In1.029 Se1.053               0.20073325     -0.00030091      0.00048111     -0.00000014
AIVX     1  Mu1.0001  In1.026 Se1.054               0.25677376      0.00026687     -0.00041151     -0.00000011
AIVX     1  Mu1.0001  In1.028 Se1.054               0.26198111      0.00028791     -0.00056894     -0.00000016
AIVX     1  Mu1.0001  In1.029 Se1.054               0.23587545      0.00000228     -0.00003070     -0.00000000
AIVX     1  Mu1.0001  In1.026 Se1.055               0.26114682      0.00005003     -0.00013403     -0.00000001
AIVX     1  Mu1.0001  In1.028 Se1.055               0.26635416     -0.00044880      0.00086560     -0.00000039
AIVX     1  Mu1.0001  In1.029 Se1.055               0.24024851      0.00022035     -0.00023735     -0.00000005
AIVX     1  Mu1.0001  In1.026 Se1.056               0.27590070      0.00013301     -0.00011630     -0.00000002
AIVX     1  Mu1.0001  In1.028 Se1.056               0.28110805      0.00015327     -0.00024221     -0.00000004
AIVX     1  Mu1.0001  In1.029 Se1.056               0.25500239      0.00009892      0.00015213      0.00000002
AIVX     1  Mu1.0001  In1.026 Se1.057               0.28956006      0.00048994     -0.00064104     -0.00000031
AIVX     1  Mu1.0001  In1.028 Se1.057               0.29476741      0.00029278     -0.00048123     -0.00000014
AIVX     1  Mu1.0001  In1.029 Se1.057               0.26866175      0.00028804     -0.00030603     -0.00000009
AIVX     1  Mu1.0001  In1.026 Se1.058               0.27751250     -0.00017711      0.00028108     -0.00000005
AIVX     1  Mu1.0001  In1.028 Se1.058               0.28271985     -0.00010346      0.00019011     -0.00000002
AIVX     1  Mu1.0001  In1.029 Se1.058               0.25661419     -0.00018278      0.00004591     -0.00000001
AIVX     1  Mu1.0001  In1.029 Se1.060               0.29863240     -0.00011520      0.00037175     -0.00000004
AIVX     1  Mu1.0001  In1.020 Se1.209               0.26355674     -0.00106311      0.00193363     -0.00000206
AIVX     1  Mu1.0001  In1.021 Se1.209               0.19391226      0.00056897     -0.00090849     -0.00000052
AIVX     1  Mu1.0001  In1.022 Se1.209               0.11043994      0.00024594     -0.00058483     -0.00000014
AIVX     1  Mu1.0001  In1.023 Se1.209               0.21328700      0.00034110     -0.00096356     -0.00000033
AIVX     1  Mu1.0001  In1.024 Se1.209               0.19990537      0.00009321     -0.00036831     -0.00000003
AIVX     1  Mu1.0001  In1.025 Se1.209               0.18051096     -0.00008897      0.00018574     -0.00000002
AIVX     1  Mu1.0001  In1.026 Se1.209               0.05311997     -0.00023650      0.00064690     -0.00000015
AIVX     1  Mu1.0001  In1.027 Se1.209               0.16664670     -0.00024437      0.00068906     -0.00000017
AIVX     1  Mu1.0001  In1.028 Se1.209               0.05832732     -0.00006499      0.00020186     -0.00000001
AIVX     1  Mu1.0001  In1.029 Se1.209               0.03222166      0.00013077     -0.00003287     -0.00000000
--
 
   (Skipping property calculation,
    use PROP keyword to activate)
--
 
  Total CASPT2 energies:
::    CASPT2 Root  1     Total energy:   -455.36975834
::    CASPT2 Root  2     Total energy:   -455.16666291
::    CASPT2 Root  3     Total energy:   -455.16139307
::    CASPT2 Root  4     Total energy:   -455.11711142
::    CASPT2 Root  5     Total energy:   -455.12844479
::    CASPT2 Root  6     Total energy:   -455.06928130
::    CASPT2 Root  7     Total energy:   -455.05226397
 
++ Multi-State CASPT2 section:
********************************************************************************
  MULTI-STATE CASPT2 SECTION
--------------------------------------------------------------------------------
 
  Output diagonal energies have been shifted. Add   -455.000000000000     
 
  Effective Hamiltonian matrix (Symmetric):
 
                1               2               3               4               5
   1        -0.36975834
   2         0.00085568     -0.16666291
   3        -0.00007480     -0.00014745     -0.16139307
   4        -0.02016814      0.00052632     -0.00094973     -0.11711142
   5         0.01381316     -0.00400502     -0.00164662      0.00349643     -0.12844479
   6         0.00080017      0.00152663     -0.00307935      0.00429232      0.00438590
   7         0.00602129     -0.00024796      0.00198658      0.00504880     -0.00524041
 
                6               7
   6        -0.06928130
   7         0.00331082     -0.05226397
 
       Total MS-CASPT2 energies:
::    MS-CASPT2 Root  1     Total energy:   -455.37231632
::    MS-CASPT2 Root  2     Total energy:   -455.16711459
::    MS-CASPT2 Root  3     Total energy:   -455.16159747
::    MS-CASPT2 Root  4     Total energy:   -455.12828472
::    MS-CASPT2 Root  5     Total energy:   -455.11572580
::    MS-CASPT2 Root  6     Total energy:   -455.06900605
::    MS-CASPT2 Root  7     Total energy:   -455.05087087
 
       Eigenvectors:
            0.99487755      0.01249338     -0.00033878      0.07196236     -0.06887430
           -0.00547833      0.99335087     -0.04453405     -0.10494149     -0.00829043
            0.00041410      0.04158716      0.99753851     -0.03224990     -0.02187923
            0.07988801     -0.01096748      0.01787279     -0.18159696      0.97364167
           -0.05798497      0.10418951      0.03527152      0.96951924      0.18302963
           -0.00265911     -0.01870502      0.03216398     -0.06308981     -0.10371169
           -0.02090603      0.00654563     -0.01831628      0.07644154     -0.04974766
 
           -0.00187801      0.01169146
            0.01237596      0.00247643
           -0.03885576      0.01259885
            0.07635915      0.07994935
            0.09226205     -0.05058182
            0.97521116      0.18120511
           -0.18153163      0.97873016
 
--
 
  THE ORIGINAL CI ARRAYS ARE NOW MIXED AS LINEAR
  COMBINATIONS, GIVEN BY THE EIGENVECTORS.
  A NEW JOBIPH FILE NAMED 'JOBMIX' IS PREPARED.
********************************************************************************
 
++ Mixed CI coefficients:
  The CI coefficients for the MIXED state nr.   1
--------------------------------------------------------------------------------
 CI COEFFICIENTS LARGER THAN  0.50D-01
  Occupation of active orbitals, and spin coupling
  of open shells. (u,d: Spin up or down).
  SGUGA info is (Midvert:IsyUp:UpperWalk/LowerWalk)
        Conf  SGUGA info        Occupation    Coefficient         Weight
           1  ( 1:1:   1/   1)   22222200        0.952501       0.907257
           4  ( 1:1:   4/   1)   22222020       -0.109004       0.011882
          41  ( 2:1:   1/   2)   22u222d0        0.155493       0.024178
          61  ( 2:1:   1/   3)   2u2222d0       -0.086352       0.007457
          62  ( 2:1:   2/   3)   2u222d20        0.062439       0.003899
          84  ( 2:1:   4/   4)   u222220d        0.128065       0.016401
         105  ( 3:1:   5/   1)   22202202       -0.085932       0.007384
         171  ( 3:1:   1/   8)   20222220       -0.087385       0.007636
         195  ( 3:1:   5/  10)   02222202       -0.072629       0.005275
 
  The CI coefficients for the MIXED state nr.   2
--------------------------------------------------------------------------------
 CI COEFFICIENTS LARGER THAN  0.50D-01
  Occupation of active orbitals, and spin coupling
  of open shells. (u,d: Spin up or down).
  SGUGA info is (Midvert:IsyUp:UpperWalk/LowerWalk)
        Conf  SGUGA info        Occupation    Coefficient         Weight
           2  ( 1:1:   2/   1)   22222ud0        0.204174       0.041687
           3  ( 1:1:   3/   1)   2222u2d0        0.921540       0.849235
           5  ( 1:1:   5/   1)   2222ud20       -0.145357       0.021129
           8  ( 1:1:   8/   1)   2222u20d        0.070210       0.004929
          28  ( 2:1:   8/   1)   222uu2dd       -0.054721       0.002994
          43  ( 2:1:   3/   2)   22u2d220        0.076356       0.005830
          62  ( 2:1:   2/   3)   2u222d20        0.050632       0.002564
          63  ( 2:1:   3/   3)   2u22d220        0.169540       0.028744
          86  ( 2:1:   6/   4)   u222d2ud        0.062408       0.003895
          88  ( 2:1:   8/   4)   u222u2dd        0.104345       0.010888
         107  ( 3:1:   7/   1)   2220u2d2       -0.082747       0.006847
         137  ( 3:1:   7/   4)   u22du2d2        0.050411       0.002541
         197  ( 3:1:   7/  10)   0222u2d2       -0.074169       0.005501
 
  The CI coefficients for the MIXED state nr.   3
--------------------------------------------------------------------------------
 CI COEFFICIENTS LARGER THAN  0.50D-01
  Occupation of active orbitals, and spin coupling
  of open shells. (u,d: Spin up or down).
  SGUGA info is (Midvert:IsyUp:UpperWalk/LowerWalk)
        Conf  SGUGA info        Occupation    Coefficient         Weight
           3  ( 1:1:   3/   1)   2222u2d0       -0.051692       0.002672
           7  ( 1:1:   7/   1)   22222u0d        0.057579       0.003315
          24  ( 2:1:   4/   1)   222u220d       -0.251570       0.063287
          44  ( 2:1:   4/   2)   22u2220d       -0.906205       0.821207
          45  ( 2:1:   5/   2)   22u22dud       -0.059492       0.003539
          47  ( 2:1:   7/   2)   22u22udd       -0.071336       0.005089
          49  ( 2:1:   9/   2)   22u2202d        0.091412       0.008356
          64  ( 2:1:   4/   3)   2u22220d       -0.050788       0.002579
         105  ( 3:1:   5/   1)   22202202       -0.066610       0.004437
         115  ( 3:1:   5/   2)   22ud2202       -0.130872       0.017127
         142  ( 3:1:   2/   5)   220222ud       -0.129025       0.016647
         145  ( 3:1:   5/   5)   22022202        0.062291       0.003880
         165  ( 3:1:   5/   7)   u2d22202        0.108912       0.011862
         219  ( 4:1:   1/   4)   2uu222dd       -0.077704       0.006038
         220  ( 4:1:   2/   4)   2uu22d2d        0.064549       0.004167
         293  ( 5:1:   1/  15)   20u2222d       -0.090410       0.008174
 
  The CI coefficients for the MIXED state nr.   4
--------------------------------------------------------------------------------
 CI COEFFICIENTS LARGER THAN  0.50D-01
  Occupation of active orbitals, and spin coupling
  of open shells. (u,d: Spin up or down).
  SGUGA info is (Midvert:IsyUp:UpperWalk/LowerWalk)
        Conf  SGUGA info        Occupation    Coefficient         Weight
           2  ( 1:1:   2/   1)   22222ud0        0.875686       0.766826
           3  ( 1:1:   3/   1)   2222u2d0       -0.194115       0.037681
           4  ( 1:1:   4/   1)   22222020        0.178170       0.031745
           7  ( 1:1:   7/   1)   22222u0d        0.106015       0.011239
          41  ( 2:1:   1/   2)   22u222d0       -0.159480       0.025434
          61  ( 2:1:   1/   3)   2u2222d0        0.134982       0.018220
          62  ( 2:1:   2/   3)   2u222d20        0.213695       0.045666
          85  ( 2:1:   5/   4)   u2222dud        0.059810       0.003577
          87  ( 2:1:   7/   4)   u2222udd        0.098150       0.009633
         106  ( 3:1:   6/   1)   22202ud2       -0.078080       0.006097
         171  ( 3:1:   1/   8)   20222220       -0.107948       0.011653
         196  ( 3:1:   6/  10)   02222ud2       -0.069387       0.004815
 
  The CI coefficients for the MIXED state nr.   5
--------------------------------------------------------------------------------
 CI COEFFICIENTS LARGER THAN  0.50D-01
  Occupation of active orbitals, and spin coupling
  of open shells. (u,d: Spin up or down).
  SGUGA info is (Midvert:IsyUp:UpperWalk/LowerWalk)
        Conf  SGUGA info        Occupation    Coefficient         Weight
           8  ( 1:1:   8/   1)   2222u20d        0.160296       0.025695
          24  ( 2:1:   4/   1)   222u220d        0.880292       0.774914
          27  ( 2:1:   7/   1)   222u2udd        0.072258       0.005221
          29  ( 2:1:   9/   1)   222u202d       -0.091304       0.008336
          41  ( 2:1:   1/   2)   22u222d0       -0.113136       0.012800
          44  ( 2:1:   4/   2)   22u2220d       -0.246621       0.060822
          84  ( 2:1:   4/   4)   u222220d        0.087880       0.007723
         135  ( 3:1:   5/   4)   u22d2202       -0.220307       0.048535
         165  ( 3:1:   5/   7)   u2d22202        0.063551       0.004039
         201  ( 4:1:   1/   1)   22uu22dd       -0.093319       0.008709
         207  ( 4:1:   1/   2)   2u2u22dd        0.071170       0.005065
         208  ( 4:1:   2/   2)   2u2u2d2d       -0.063046       0.003975
         261  ( 5:1:   1/   7)   202u222d        0.087354       0.007631
 
  The CI coefficients for the MIXED state nr.   6
--------------------------------------------------------------------------------
 CI COEFFICIENTS LARGER THAN  0.50D-01
  Occupation of active orbitals, and spin coupling
  of open shells. (u,d: Spin up or down).
  SGUGA info is (Midvert:IsyUp:UpperWalk/LowerWalk)
        Conf  SGUGA info        Occupation    Coefficient         Weight
           2  ( 1:1:   2/   1)   22222ud0       -0.098984       0.009798
           7  ( 1:1:   7/   1)   22222u0d        0.857329       0.735014
           8  ( 1:1:   8/   1)   2222u20d        0.321377       0.103283
          10  ( 1:1:  10/   1)   2222udud       -0.055448       0.003074
          12  ( 1:1:  12/   1)   2222uudd       -0.087240       0.007611
          44  ( 2:1:   4/   2)   22u2220d        0.063673       0.004054
          45  ( 2:1:   5/   2)   22u22dud       -0.208963       0.043666
          46  ( 2:1:   6/   2)   22u2d2ud       -0.081217       0.006596
          47  ( 2:1:   7/   2)   22u22udd        0.064563       0.004168
          48  ( 2:1:   8/   2)   22u2u2dd        0.094821       0.008991
          65  ( 2:1:   5/   3)   2u222dud        0.110687       0.012252
          67  ( 2:1:   7/   3)   2u222udd        0.139307       0.019406
          93  ( 2:1:  13/   4)   u2222d02       -0.065607       0.004304
         143  ( 3:1:   3/   5)   22022u2d        0.053959       0.002912
         152  ( 3:1:   2/   6)   2ud222ud        0.071714       0.005143
         173  ( 3:1:   3/   8)   20222u2d        0.103812       0.010777
         204  ( 4:1:   4/   1)   22uu2dd2        0.054120       0.002929
 
  The CI coefficients for the MIXED state nr.   7
--------------------------------------------------------------------------------
 CI COEFFICIENTS LARGER THAN  0.50D-01
  Occupation of active orbitals, and spin coupling
  of open shells. (u,d: Spin up or down).
  SGUGA info is (Midvert:IsyUp:UpperWalk/LowerWalk)
        Conf  SGUGA info        Occupation    Coefficient         Weight
           3  ( 1:1:   3/   1)   2222u2d0       -0.063378       0.004017
           7  ( 1:1:   7/   1)   22222u0d       -0.335746       0.112725
           8  ( 1:1:   8/   1)   2222u20d        0.787736       0.620527
          10  ( 1:1:  10/   1)   2222udud       -0.140734       0.019806
          12  ( 1:1:  12/   1)   2222uudd       -0.205324       0.042158
          24  ( 2:1:   4/   1)   222u220d       -0.150824       0.022748
          45  ( 2:1:   5/   2)   22u22dud        0.088978       0.007917
          46  ( 2:1:   6/   2)   22u2d2ud       -0.232450       0.054033
          48  ( 2:1:   8/   2)   22u2u2dd        0.249411       0.062206
          67  ( 2:1:   7/   3)   2u222udd       -0.060033       0.003604
          94  ( 2:1:  14/   4)   u222d202       -0.062512       0.003908
         144  ( 3:1:   4/   5)   2202u22d        0.070649       0.004991
         154  ( 3:1:   4/   6)   2ud2u22d        0.057509       0.003307
         174  ( 3:1:   4/   8)   2022u22d        0.063904       0.004084
         205  ( 4:1:   5/   1)   22uud2d2        0.066347       0.004402
 
--
 
--- Stop Module: caspt2 at Tue Jun 10 17:00:38 2025 /rc=_RC_ALL_IS_WELL_ ---
*** files: xmldump
    saved to directory /home/pcaah4/diamide_project
--- Module caspt2 spent 6 minutes 58 seconds ---

.##################.
.# Happy landing! #.
.##################.

    Timing: Wall=699.09 User=610.20 System=79.62
******************************************************
*** WorkDir at /srv/COMMUNAL_SCRATCH/12371 cleaned ***
******************************************************
