   This run of MOLCAS is using the pymolcas driver

                             OPE
                             OPE          NMOL  CASOP  ENMOLC A   SO
                 OPE        NMOLC        AS  OP EN  MO LC     AS  OP
                OPENM       OL CA        SO  PE NM  OL CA     SOP EN
                OP EN      MO   LC       AS  OP ENMOL  CASO   PENMOL
                OP  EN     MO   LC       AS  OP EN     MO     LC ASO
               OP   E  NMOL  C  AS       OP  EN MO     LC     AS  OP
               OP  E   NMO   LC AS        OPEN  MO     LCASOP EN   M
               O  PEN   MO  LCA  SO
            OPE   NMO   L   CAS    OP
        OPENMOL  CASOP     ENMOL   CASOPE
     OPENMOLCA   SOPENMOLCASOPEN   MOLCASOPE
    OPENMOLCAS   OP           EN   MOL    CAS
    OPENMOLCAS       OP  ENM        O     LCA
    OPENMOLCAS    OPEN  MOLCASO     P  E  NMO
    OPENMOLCAS     OP               E  N  MOL
    OPENMOLCA   SO           PENM   O  L  CAS    OPEN    MO    LCAS
    OPENMOLCA   SOP           ENM   O  L  CAS   OP  EN  MOLC  AS   O
    OPENMOLCA   SOPE           NM      O  LCA   S      OP  EN MO
    OPENMOLC                AS         O  PEN   M      OL  CA  SOPE
    OPENMO        LCASOPE  NMOL        C  ASO   P      ENMOLC     AS
    OPE     NMO      LCA  SO     P     E   NM   OL  CA SO  PE N   MO
          OPENMOLCA            SOPE   NMO        LCAS  O    P  ENMO
     OPENMOLCASOPENMOLCASOPENMOLCASOPENMOLCA
        OPENMOLCASOPENMOLCASOPENMOLCASOPE
            OPENMOLCASOPENMOLCASOPENM
               OPENMOLCASOPENMOLCA        version: v23.06
                   OPENMOLCASO
                       OPE                tag:

 OpenMolcas is free software; you can redistribute it and/or modify it
 under the terms of the GNU Lesser General Public License version 2.1.
 OpenMolcas is distributed in the hope that it will be useful, but it
 is provided "as is" and without any express or implied warranties.
 For more details see the full text of the license in the file
 LICENSE or in <http://www.gnu.org/licenses/>.

                 Copyright (C) The OpenMolcas Authors
           For the author list and the recommended citation,
                   consult the file CONTRIBUTORS.md

           *************************************************
           * pymolcas version py2.24                       *
           *   build 4567b286dd94b1984b333a4ddf893180      *
           *   (after the EMIL interpreter by V. Veryazov) *
           *************************************************

configuration info
------------------
Host name: loginchem01.nottingham.ac.uk (Linux)
C Compiler ID: Intel
C flags: -std=gnu99 -gcc-sys -qopenmp
Fortran Compiler ID: Intel
Fortran flags: -fpp -i8 -heap-arrays -qopenmp
Definitions: _MOLCAS_;_I8_;_LINUX_
Parallel: OFF (GA=OFF)


   --------------------------------------------------------------------------------------------------
  |
  |              Project: orca_geometry_optimisation_45_30_BP86_def2-SVP_def2J_scf_cas1_ras12i11_cas8
  |       Submitted from: /home/pcaah4/diamide_project
  |         Scratch area: /srv/COMMUNAL_SCRATCH/12497
  |      Save outputs to: /home/pcaah4/diamide_project
  |               Molcas: /software/chemistry/openmolcas/openmolcas-23.06-openmp
  |
  | Scratch area is empty
  |
  |       MOLCAS_DRIVER = /software/chemistry/openmolcas/openmolcas-23.06-openmp/sbin/pymolcas
  | MOLCAS_KEEP_WORKDIR = NO
  |       MOLCAS_NPROCS = 1
  |       MOLCAS_SOURCE = /software/chemistry/openmolcas/openmolcas-23.06-openmp
  |    MOLCAS_STRUCTURE = 0
  |
   --------------------------------------------------------------------------------------------------

++ ---------   Input file   ---------

&SEWARD
TITLE
orca_geometry_optimisation_45_30_BP86_def2-SVP_def2J_scf_cas1_ras12i11
MULTIPOLES
2
SDIPOLE
ANGMOM
0 0 0
BASIS SET
C.ANO-S...4S3P1D.
C1           -0.135715   -0.121075   -0.080663 /Angstrom
C3            1.977168    1.220644    0.063211 /Angstrom
C4            1.519218    2.236176    1.135500 /Angstrom
C6            0.372790    2.549759    3.295495 /Angstrom
C19          -0.689520   -1.538006   -0.220333 /Angstrom
END OF BASIS
BASIS SET
N.ANO-S...4S3P1D.
N2            1.242793   -0.031610   -0.069774 /Angstrom
N5            0.933496    1.710075    2.254496 /Angstrom
END OF BASIS
BASIS SET
O.ANO-S...4S3P1D.
O7           -0.862178    0.867097   -0.017140 /Angstrom
O8            1.778279    3.427153    0.984068 /Angstrom
END OF BASIS
BASIS SET
H.ANO-S...2S1P.
H9           -1.115645   -1.654376   -1.237786 /Angstrom
H10          -1.525573   -1.663014    0.494353 /Angstrom
H11           0.056766   -2.340468   -0.055756 /Angstrom
H12           1.781667   -0.896827   -0.120854 /Angstrom
H13           3.038116    0.973563    0.272561 /Angstrom
H14           1.965104    1.801994   -0.883830 /Angstrom
H15           0.661762    0.727084    2.219909 /Angstrom
H16           0.730334    3.580942    3.113146 /Angstrom
H17          -0.738599    2.551156    3.269477 /Angstrom
H18           0.705682    2.222941    4.303030 /Angstrom
END OF BASIS
END OF INPUT

&RASSCF
TITLE
orca_geometry_optimisation_45_30_BP86_def2-SVP_def2J_scf_cas1_ras12i11
LUMORB
SPIN
1
SYMMETRY
1
NACTEL
12  0  0
INACTIVE
29
DELETED  ! delete Rydberg orbitals from an initial CAS(12,11) if done
3
FROZEN
0
RAS2
8
ITERATIONS
64 25
CIROOT
7 7
1 2 3 4 5 6 7
1 1 1 1 1 1 1
LEVSHFT
0.3
CIMX
20
FILEorb = /home/pcaah4/diamide_project/cas/ras12i11/ras_orb/orca_geometry_optimisation_45_30_BP86_def2-SVP_def2J_scf_cas1_ras12i11.RasOrb
ALTEr
0
END OF INPUT

&RASSI
NROF JOBIPH
    1 7
    1 2 3 5 4 6 7
TOFILE
TRDI
TDMN
1.0D-6
END OF INPUT

&CASPT2
TITLE
orca_geometry_optimisation_45_30_BP86_def2-SVP_def2J_scf_cas1_ras12i11
MULTISTATE
7 1 2 3 4 5 6 7
SHIFT
0.35
MAXITER
50
END OF INPUT

-- ----------------------------------

--- Start Module: seward at Tue Jun 10 22:15:11 2025 ---
 
()()()()()()()()()()()()()()()()()()()()()()()()()()()()()()()()()()()()()()()()()()()()()()()()()()

                                              &SEWARD

                                   only a single process is used
                       available to each process: 2.0 GB of memory, 1 thread
                                            pid: 3142471
()()()()()()()()()()()()()()()()()()()()()()()()()()()()()()()()()()()()()()()()()()()()()()()()()()
 
               SEWARD will generate:
                  Multipole Moment integrals up to order  2
                  Kinetic Energy integrals
                  Nuclear Attraction integrals (point charge)
                  One-Electron Hamiltonian integrals
                  Velocity integrals
                  Orbital angular momentum around ( 0.0000  0.0000  0.0000 )
                  Velocity quadrupole around ( 1.2677  2.1749  1.5667 )
                  Two-Electron Repulsion integrals
 
 Title:
             orca_geometry_optimisation_45_30_BP86_def2-SVP_def2J_scf_cas1_ras12i11     
 
 
                   Integrals are discarded if absolute value <: 0.10E-13
                   Integral cutoff threshold is set to       <: 0.10E-15
 
++    Symmetry information:
      ---------------------
 
                    Character Table for C1 
 
                             E  
                    a        1  x, y, xy, Rz, z, xz, Ry, yz, Rx, I
--
 
 
++    Basis set information:
      ----------------------
 
 
      Basis set label: C.ANO-S...4S3P1D......
 
      Electronic valence basis set:
      ------------------
      Associated Effective Charge   6.000000 au
      Associated Actual Charge      6.000000 au
      Nuclear Model: Point charge
 
      Shell  nPrim  nBasis  Cartesian Spherical Contaminant
         s      10       4        X                  
         p       6       3        X                  
         d       3       1                 X         
 
 
      Basis set label: N.ANO-S...4S3P1D......
 
      Electronic valence basis set:
      ------------------
      Associated Effective Charge   7.000000 au
      Associated Actual Charge      7.000000 au
      Nuclear Model: Point charge
 
      Shell  nPrim  nBasis  Cartesian Spherical Contaminant
         s      10       4        X                  
         p       6       3        X                  
         d       3       1                 X         
 
 
      Basis set label: O.ANO-S...4S3P1D......
 
      Electronic valence basis set:
      ------------------
      Associated Effective Charge   8.000000 au
      Associated Actual Charge      8.000000 au
      Nuclear Model: Point charge
 
      Shell  nPrim  nBasis  Cartesian Spherical Contaminant
         s      10       4        X                  
         p       6       3        X                  
         d       3       1                 X         
 
 
      Basis set label: H.ANO-S...2S1P......
 
      Electronic valence basis set:
      ------------------
      Associated Effective Charge   1.000000 au
      Associated Actual Charge      1.000000 au
      Nuclear Model: Point charge
 
      Shell  nPrim  nBasis  Cartesian Spherical Contaminant
         s       7       2        X                  
         p       3       1        X                  
--
 
 
++    Molecular structure info:
      -------------------------
 
                    ************************************************ 
                    **** Cartesian Coordinates / Bohr, Angstrom **** 
                    ************************************************ 
 
     Center  Label                x              y              z                     x              y              z
        1      C1              -0.256464      -0.228799      -0.152431             -0.135715      -0.121075      -0.080663
        2      C3               3.736306       2.306683       0.119451              1.977168       1.220644       0.063211
        3      C4               2.870906       4.225760       2.145784              1.519218       2.236176       1.135500
        4      C6               0.704471       4.818346       6.227583              0.372790       2.549759       3.295495
        5      C19             -1.303004      -2.906410      -0.416369             -0.689520      -1.538006      -0.220333
        6      N2               2.348538      -0.059734      -0.131854              1.242793      -0.031610      -0.069774
        7      N5               1.764052       3.231573       4.260380              0.933496       1.710075       2.254496
        8      O7              -1.629280       1.638576      -0.032390             -0.862178       0.867097      -0.017140
        9      O8               3.360460       6.476381       1.859619              1.778279       3.427153       0.984068
       10      H9              -2.108264      -3.126318      -2.339077             -1.115645      -1.654376      -1.237786
       11      H10             -2.882915      -3.142641       0.934192             -1.525573      -1.663014       0.494353
       12      H11              0.107272      -4.422844      -0.105364              0.056766      -2.340468      -0.055756
       13      H12              3.366863      -1.694757      -0.228381              1.781667      -0.896827      -0.120854
       14      H13              5.741207       1.839767       0.515066              3.038116       0.973563       0.272561
       15      H14              3.713508       3.405275      -1.670197              1.965104       1.801994      -0.883830
       16      H15              1.250549       1.373990       4.195020              0.661762       0.727084       2.219909
       17      H16              1.380131       6.767000       5.882993              0.730334       3.580942       3.113146
       18      H17             -1.395750       4.820986       6.178416             -0.738599       2.551156       3.269477
       19      H18              1.333546       4.200750       8.131548              0.705682       2.222941       4.303030
 
                    ************************************************* 
                    **** InterNuclear Distances / Bohr, Angstrom **** 
                    ************************************************* 
 
     Atom centers         Bohr        Angstrom
   16 H15       7 N5      1.928361        1.020444
   13 H12       6 N2      1.928627        1.020586
   17 H16       4 C6      2.091055        1.106538
   11 H10       5 C19     2.091874        1.106972
   12 H11       5 C19     2.094081        1.108140
   10 H9        5 C19     2.096093        1.109205
   14 H13       2 C3      2.096223        1.109273
   19 H18       4 C6      2.098153        1.110294
   15 H14       2 C3      2.100063        1.111306
   18 H17       4 C6      2.100798        1.111694
    8 O7        1 C1      2.320802        1.228115
    9 O8        3 C4      2.320958        1.228198
    7 N5        3 C4      2.585546        1.368212
    6 N2        1 C1      2.610564        1.381451
    7 N5        4 C6      2.740519        1.450220
    6 N2        2 C3      2.754811        1.457783
    5 C19       1 C1      2.886956        1.527711
    3 C4        2 C3      2.921951        1.546230
   11 H10      10 H9      3.363724        1.780006
   15 H14      14 H13     3.367157        1.781823
   12 H11      10 H9      3.402801        1.800685
   18 H17      17 H16     3.402904        1.800739
   19 H18      17 H16     3.412302        1.805713
   19 H18      18 H17     3.412986        1.806074
   12 H11      11 H10     3.414793        1.807031
   16 H15       3 C4      3.867495        2.046590
   17 H16       7 N5      3.908901        2.068501
   13 H12       1 C1      3.909386        2.068758
   14 H13       6 N2      3.941676        2.085845
   15 H14       3 C4      3.993104        2.113060
   19 H18       7 N5      4.013799        2.124011
   18 H17       7 N5      4.023611        2.129203
   15 H14       6 N2      4.029384        2.132258
   13 H12       2 C3      4.033485        2.134428
   16 H15       4 C6      4.036472        2.136009
   11 H10       1 C1      4.070562        2.154048
   14 H13       3 C4      4.073185        2.155436
   10 H9        1 C1      4.075070        2.156434
   12 H11       1 C1      4.210051        2.227863
   13 H12      12 H11     4.252354        2.250249
   14 H13      13 H12     4.322394        2.287312
    8 O7        6 N2      4.326337        2.289399
    9 O8        7 N5      4.340616        2.296955
   17 H16       9 O8      4.493740        2.377985
    9 O8        2 C3      4.533853        2.399212
    8 O7        5 C19     4.572832        2.419839
    6 N2        5 C19     4.638779        2.454736
    4 C6        3 C4      4.658936        2.465403
    7 N5        2 C3      4.678942        2.475989
   16 H15       6 N2      4.688601        2.481101
   15 H14       9 O8      4.692114        2.482960
    2 C3        1 C1      4.737594        2.507027
   17 H16       3 C4      4.758891        2.518296
   18 H17      16 H15     4.776876        2.527814
   13 H12       5 C19     4.828157        2.554950
   19 H18      16 H15     4.847032        2.564939
   16 H15       2 C3      4.864069        2.573954
   16 H15       1 C1      4.872407        2.578367
    6 N2        3 C4      4.881185        2.583012
   12 H11       6 N2      4.905171        2.595704
   11 H10       8 O7      5.036459        2.665179
   16 H15       8 O7      5.121954        2.710422
   15 H14      13 H12     5.311245        2.810590
   10 H9        8 O7      5.315490        2.812836
    9 O8        4 C6      5.374241        2.843926
   14 H13       9 O8      5.382747        2.848427
    8 O7        2 C3      5.409153        2.862401
    7 N5        6 N2      5.519606        2.920850
   15 H14       1 C1      5.592029        2.959174
    8 O7        3 C4      5.629355        2.978927
   14 H13       7 N5      5.637576        2.983277
   17 H16      16 H15     5.652486        2.991167
--
 
 
            Nuclear Potential Energy            464.94864587 au
 
 
      Basis set specifications :
      Symmetry species         a  
      Basis functions          212
 
 
      Input file to MOLDEN was generated!
 
--- Stop Module: seward at Tue Jun 10 22:17:03 2025 /rc=_RC_ALL_IS_WELL_ ---
*** files: orca_geometry_optimisation_45_30_BP86_def2-SVP_def2J_scf_cas1_ras12i11_cas8.GssOrb
           orca_geometry_optimisation_45_30_BP86_def2-SVP_def2J_scf_cas1_ras12i11_cas8.guessorb.molden xmldump
    saved to directory /home/pcaah4/diamide_project
--- Module seward spent 1 minute 51 seconds ---

*** symbolic link created: INPORB -> orca_geometry_optimisation_45_30_BP86_def2-SVP_def2J_scf_cas1_ras12i11_cas8.GssOrb
--- Start Module: rasscf at Tue Jun 10 22:17:03 2025 ---
 
()()()()()()()()()()()()()()()()()()()()()()()()()()()()()()()()()()()()()()()()()()()()()()()()()()

                                              &RASSCF

                                   only a single process is used
                       available to each process: 2.0 GB of memory, 1 thread
                                            pid: 3142526
()()()()()()()()()()()()()()()()()()()()()()()()()()()()()()()()()()()()()()()()()()()()()()()()()()
 
 
      Header of the ONEINT file:
      --------------------------
      orca_geometry_optimisation_45_30_BP86_def2-SVP_def2J_scf_cas1_ras12i11
      Integrals generated by Gateway/Seward, Tue Jun 10 22:15:12 2025
 
 
      OrdInt status: non-squared
 
 
      Cartesian coordinates in Angstrom:
      -----------------------------------------------------
      No.  Label        X            Y            Z        
      -----------------------------------------------------
       1   C1        -0.13571500  -0.12107500  -0.08066300
       2   C3         1.97716800   1.22064400   0.06321100
       3   C4         1.51921800   2.23617600   1.13550000
       4   C6         0.37279000   2.54975900   3.29549500
       5   C19       -0.68952000  -1.53800600  -0.22033300
       6   N2         1.24279300  -0.03161000  -0.06977400
       7   N5         0.93349600   1.71007500   2.25449600
       8   O7        -0.86217800   0.86709700  -0.01714000
       9   O8         1.77827900   3.42715300   0.98406800
      10   H9        -1.11564500  -1.65437600  -1.23778600
      11   H10       -1.52557300  -1.66301400   0.49435300
      12   H11        0.05676600  -2.34046800  -0.05575600
      13   H12        1.78166700  -0.89682700  -0.12085400
      14   H13        3.03811600   0.97356300   0.27256100
      15   H14        1.96510400   1.80199400  -0.88383000
      16   H15        0.66176200   0.72708400   2.21990900
      17   H16        0.73033400   3.58094200   3.11314600
      18   H17       -0.73859900   2.55115600   3.26947700
      19   H18        0.70568200   2.22294100   4.30303000
      -----------------------------------------------------
      Nuclear repulsion energy =  464.94864587
 
++    Wave function specifications:
      -----------------------------
 
      Number of closed shell electrons          58
      Number of electrons in active shells      12
      Max number of holes in RAS1 space          0
      Max nr of electrons in RAS3 space          0
      Number of inactive orbitals               29
      Number of active orbitals                  8
      Number of secondary orbitals             172
      Spin quantum number                      0.0
      State symmetry                             1
--
 
++    Orbital specifications:
      -----------------------
 
      Symmetry species                           1
                                                 a
      Frozen orbitals                            0
      Inactive orbitals                         29
      Active orbitals                            8
      RAS1 orbitals                              0
      RAS2 orbitals                              8
      RAS3 orbitals                              0
      Secondary orbitals                       172
      Deleted orbitals                           3
      Number of basis functions                212
--
 
++    CI expansion specifications:
      ----------------------------
 
      Number of CSFs                           336
      Number of determinants                   406
      Number of root(s) required                 7
      Root chosen for geometry opt.              7
      CI roots used                              1     2     3     4     5     6     7
      weights                                0.143 0.143 0.143 0.143 0.143 0.143 0.143
      highest root included in the CI            7
      max. size of the explicit Hamiltonian    200
--
 
++    Optimization specifications:
      ----------------------------
 
      RASSCF algorithm: Conventional
      Maximum number of macro iterations        64
      Maximum number of SX iterations           25
      Threshold for RASSCF energy            0.100E-07
      Threshold for max MO rotation          0.100E+00
      Threshold for max BLB element          0.100E-03
      Level shift parameter                  0.300E+00
      Make Quasi-Newton update
--
 
      The MO-coefficients are taken from the file:
      /home/pcaah4/diamide_project/cas/ras12i11/ras_orb/orca_geometry_optimisation_45_30_BP86_def2-SVP_def2J_scf_cas1_ras12i11.RasOrb                                                                                                                                 
      Title: RASSCF average (pseudo-natural) orbitals                                      
 
      Total molecular charge    0.00
 
      ************************************************************************************************************************
      *                                                                                                                      *
      *                                            Wave function control section                                             *
      *                                                                                                                      *
      ************************************************************************************************************************
 
 
                                         RASSCF iterations: Energy and convergence statistics
                                         ----------------------------------------------------
 
      Iter CI   SX   CI       RASSCF       Energy    max ROT     max BLB   max BLB  Level Ln srch  Step   QN   Walltime
          iter iter root      energy       change     param      element    value   shift minimum  type update hh:mm:ss
 Nr of preliminary CI iterations:   4
        1   1   25    0  -453.68686293    0.00E+00   0.53E-01   24  72 1  0.20E-01*  0.14   0.00    SX    NO    0:00:13
        2   5   21    0  -453.70101876   -0.14E-01* -0.33E-01   35  38 1  0.67E-02*  0.14   0.00    SX    NO    0:00:06
        3   3   11    0  -453.70296701   -0.19E-02*  0.19E-01   24  72 1  0.44E-02*  0.14   0.00    SX    NO    0:00:06
        4   5   11    0  -453.70395243   -0.99E-03*  0.12E-01   36  40 1 -0.19E-02*  0.15   0.00    SX    NO    0:00:06
        5   5   11    0  -453.70418755   -0.24E-03*  0.21E-01   36  40 1 -0.12E-02*  0.15   1.39    QN   YES    0:00:07
        6   8   10    0  -453.70435573   -0.17E-03* -0.17E-02   35  39 1 -0.12E-02*  0.15   0.86    QN   YES    0:00:07
        7   5    9    0  -453.70436121   -0.55E-05* -0.91E-03   20  99 1 -0.12E-02*  0.15   0.52    SX   YES    0:00:06
        8   6    9    0  -453.70437552   -0.14E-04* -0.13E-02   35  39 1 -0.53E-03*  0.15   0.82    QN   YES    0:00:06
        9   4    9    0  -453.70437761   -0.21E-05* -0.12E-02   20  99 1 -0.22E-03*  0.15   1.07    QN   YES    0:00:06
       10   3    8    0  -453.70437841   -0.80E-06*  0.39E-03   35  39 1  0.15E-03*  0.15   1.16    QN   YES    0:00:06
       11   4    8    0  -453.70437867   -0.26E-06*  0.18E-03   35  39 1  0.65E-04   0.15   1.47    LS   YES    0:00:06
       12   1    7    0  -453.70437871   -0.40E-07* -0.23E-03   36  40 1 -0.16E-04   0.15   1.17    QN   YES    0:00:06
       13   3    7    0  -453.70437875   -0.39E-07*  0.14E-03   20  99 1  0.15E-04   0.15   1.20    QN   YES    0:00:07
       14   1    6    0  -453.70437876   -0.10E-07  -0.51E-04   35  39 1 -0.57E-05   0.15   1.15    QN   YES    0:00:06
      Convergence after 14 iterations
       15   1    6    0  -453.70437876   -0.14E-08  -0.51E-04   36  38 1  0.12E-05   0.15   1.15    QN   YES    0:00:06
 
      ************************************************************************************************************************
                                                      Wave function printout:
                       occupation of active orbitals, and spin coupling of open shells (u,d: Spin up or down)
      ************************************************************************************************************************
 
      Note: transformation to natural orbitals
      has been made, which may change the order of the CSFs.
 
      printout of CI-coefficients larger than  0.05 for root  1
      energy=    -453.954213
      conf/sym  11111111     Coeff  Weight
             1  22222200  -0.95612 0.91416
             3  2222u2d0  -0.11328 0.01283
             6  22220220   0.09095 0.00827
            41  22u222d0  -0.09425 0.00888
            61  2u2222d0   0.08281 0.00686
            63  2u22d220  -0.06881 0.00473
            84  u222220d  -0.11079 0.01227
           105  22202202   0.06851 0.00469
           135  u22d2202   0.05032 0.00253
           171  20222220   0.09200 0.00846
           195  02222202   0.07847 0.00616
 
      printout of CI-coefficients larger than  0.05 for root  2
      energy=    -453.741531
      conf/sym  11111111     Coeff  Weight
             2  22222ud0  -0.94982 0.90216
             3  2222u2d0  -0.06072 0.00369
             5  2222ud20   0.12703 0.01614
             7  22222u0d  -0.06028 0.00363
            42  22u22d20  -0.05365 0.00288
            44  22u2220d  -0.06199 0.00384
            62  2u222d20  -0.16656 0.02774
            85  u2222dud  -0.05898 0.00348
            87  u2222udd  -0.09760 0.00953
           106  22202ud2   0.06972 0.00486
           136  u22d2ud2   0.05147 0.00265
           196  02222ud2   0.07856 0.00617
 
      printout of CI-coefficients larger than  0.05 for root  3
      energy=    -453.740897
      conf/sym  11111111     Coeff  Weight
             2  22222ud0   0.07451 0.00555
            24  222u220d  -0.44920 0.20178
            44  22u2220d  -0.83102 0.69059
            46  22u2d2ud  -0.05065 0.00257
            48  22u2u2dd  -0.07895 0.00623
            52  22u2022d   0.08042 0.00647
           105  22202202   0.10343 0.01070
           115  22ud2202   0.08754 0.00766
           135  u22d2202   0.06028 0.00363
           142  220222ud  -0.06768 0.00458
           145  22022202  -0.10286 0.01058
           165  u2d22202   0.11218 0.01258
           219  2uu222dd  -0.07203 0.00519
           221  2uu2d22d   0.05044 0.00254
           293  20u2222d  -0.07906 0.00625
 
      printout of CI-coefficients larger than  0.05 for root  4
      energy=    -453.641838
      conf/sym  11111111     Coeff  Weight
             3  2222u2d0  -0.07121 0.00507
             7  22222u0d   0.38397 0.14743
             8  2222u20d   0.45230 0.20457
            10  2222udud  -0.05411 0.00293
            12  2222uudd   0.07063 0.00499
            24  222u220d  -0.64655 0.41803
            26  222ud2ud  -0.05528 0.00306
            28  222uu2dd  -0.06874 0.00473
            32  222u022d   0.06697 0.00448
            41  22u222d0  -0.05527 0.00305
            44  22u2220d   0.33054 0.10926
            66  2u22d2ud   0.05941 0.00353
            68  2u22u2dd   0.07074 0.00500
            84  u222220d   0.07117 0.00506
           135  u22d2202   0.15525 0.02410
           165  u2d22202  -0.07974 0.00636
           174  2022u22d   0.05497 0.00302
           195  02222202   0.05319 0.00283
           207  2u2u22dd  -0.05446 0.00297
           261  202u222d  -0.06134 0.00376
 
      printout of CI-coefficients larger than  0.05 for root  5
      energy=    -453.625188
      conf/sym  11111111     Coeff  Weight
             1  22222200  -0.06444 0.00415
             3  2222u2d0   0.65336 0.42687
             6  22220220   0.12447 0.01549
             7  22222u0d  -0.23369 0.05461
             8  2222u20d   0.59609 0.35533
            12  2222uudd  -0.05980 0.00358
            24  222u220d   0.14737 0.02172
            41  22u222d0  -0.06727 0.00453
            44  22u2220d  -0.08136 0.00662
            46  22u2d2ud  -0.08420 0.00709
            61  2u2222d0   0.06014 0.00362
            63  2u22d220   0.16962 0.02877
            66  2u22d2ud   0.09303 0.00865
            68  2u22u2dd   0.08575 0.00735
            88  u222u2dd   0.08353 0.00698
           107  2220u2d2  -0.05156 0.00266
           171  20222220  -0.07075 0.00501
           174  2022u22d   0.06938 0.00481
           197  0222u2d2  -0.05609 0.00315
 
      printout of CI-coefficients larger than  0.05 for root  6
      energy=    -453.619686
      conf/sym  11111111     Coeff  Weight
             1  22222200   0.06632 0.00440
             3  2222u2d0  -0.62773 0.39404
             6  22220220  -0.10413 0.01084
             7  22222u0d  -0.14891 0.02217
             8  2222u20d   0.58025 0.33669
            24  222u220d   0.29793 0.08876
            41  22u222d0   0.08514 0.00725
            44  22u2220d  -0.16296 0.02656
            46  22u2d2ud  -0.10437 0.01089
            63  2u22d220  -0.16436 0.02701
            66  2u22d2ud   0.09832 0.00967
            68  2u22u2dd   0.12077 0.01459
            88  u222u2dd  -0.05412 0.00293
           135  u22d2202  -0.06388 0.00408
           171  20222220   0.06271 0.00393
           174  2022u22d   0.08203 0.00673
 
      printout of CI-coefficients larger than  0.05 for root  7
      energy=    -453.607299
      conf/sym  11111111     Coeff  Weight
             2  22222ud0  -0.05501 0.00303
             3  2222u2d0   0.09949 0.00990
             7  22222u0d   0.77979 0.60808
             8  2222u20d   0.06355 0.00404
            10  2222udud  -0.15944 0.02542
            12  2222uudd   0.23107 0.05339
            24  222u220d   0.38659 0.14945
            27  222u2udd   0.05146 0.00265
            44  22u2220d  -0.23679 0.05607
            45  22u22dud  -0.13295 0.01768
            47  22u22udd   0.15271 0.02332
            70  2u22du2d   0.05919 0.00350
           135  u22d2202  -0.08545 0.00730
           173  20222u2d   0.06369 0.00406
 
      Natural orbitals and occupation numbers for root  1
      sym 1:   1.952962   1.963252   1.999573   1.995608   1.995836   1.999804   0.051735   0.041230
 
      Natural orbitals and occupation numbers for root  2
      sym 1:   1.961996   1.998501   1.993813   1.995574   1.999831   1.008946   0.993083   0.048258
 
      Natural orbitals and occupation numbers for root  3
      sym 1:   1.999853   1.995323   1.009562   1.998740   1.951787   1.993691   0.058849   0.992194
 
      Natural orbitals and occupation numbers for root  4
      sym 1:   1.992081   1.979397   1.988081   1.065275   1.932665   1.972093   0.086220   0.984187
 
      Natural orbitals and occupation numbers for root  5
      sym 1:   1.995906   1.939357   1.987287   1.978370   1.061889   1.955745   0.960265   0.121181
 
      Natural orbitals and occupation numbers for root  6
      sym 1:   1.981519   1.936423   1.985058   1.917929   1.076154   1.998053   0.944546   0.160318
 
      Natural orbitals and occupation numbers for root  7
      sym 1:   1.993835   1.978294   1.985563   1.941770   1.926664   1.105594   0.109913   0.958368
 
      ************************************************************************************************************************
      *                                                                                                                      *
      *                                                    Final results                                                     *
      *                                                                                                                      *
      ************************************************************************************************************************
 
 
++    Wave function specifications:
      -----------------------------
 
      Number of closed shell electrons          58
      Number of electrons in active shells      12
      Max number of holes in RAS1 space          0
      Max nr of electrons in RAS3 space          0
      Number of inactive orbitals               29
      Number of active orbitals                  8
      Number of secondary orbitals             172
      Spin quantum number                      0.0
      State symmetry                             1
--
 
++    Orbital specifications:
      -----------------------
 
      Symmetry species                           1
                                                 a
      Frozen orbitals                            0
      Inactive orbitals                         29
      Active orbitals                            8
      RAS1 orbitals                              0
      RAS2 orbitals                              8
      RAS3 orbitals                              0
      Secondary orbitals                       172
      Deleted orbitals                           3
      Number of basis functions                212
--
 
++    CI expansion specifications:
      ----------------------------
 
      Number of CSFs                           336
      Number of determinants                   406
      Number of root(s) required                 7
      CI roots used                              1     2     3     4     5     6     7
      weights                                0.143 0.143 0.143 0.143 0.143 0.143 0.143
      highest root included in the CI            7
      Root passed to geometry opt.               7
--
 
++    Final optimization conditions:
      ------------------------------
 
      Average CI energy                            -453.70437876
      RASSCF energy for state  7                   -453.60729889
      Super-CI energy                                -0.00000000
      RASSCF energy change                            0.00000000
      Max change in MO coefficients               0.462E-04
      Max non-diagonal density matrix element    -0.511E-04
      Maximum BLB matrix element                  0.124E-05
      (orbital pair  36,  38 in symmetry   1)
      Norm of electronic gradient            0.282E+00
--
 
 
      Final state energy(ies):
      ------------------------
 
::    RASSCF root number  1 Total energy:   -453.95421264
::    RASSCF root number  2 Total energy:   -453.74153081
::    RASSCF root number  3 Total energy:   -453.74089660
::    RASSCF root number  4 Total energy:   -453.64183833
::    RASSCF root number  5 Total energy:   -453.62518804
::    RASSCF root number  6 Total energy:   -453.61968604
::    RASSCF root number  7 Total energy:   -453.60729889
 
++    Molecular orbitals:
      -------------------
 
      Pseudonatural active orbitals and approximate occupation numbers
 
 
 
 
      Molecular orbitals for symmetry species 1: a  
 
 
      Orbital                 1         2         3         4         5         6         7         8         9        10
      Energy           -20.5970  -20.5169  -15.6318  -15.5945  -11.3389  -11.2956  -11.2868  -11.2790  -11.2272   -1.4227
      Occ. No.           2.0000    2.0000    2.0000    2.0000    2.0000    2.0000    2.0000    2.0000    2.0000    2.0000
 
     1 C1     1s        -0.0001    0.0003   -0.0000    0.0002   -0.0001   -0.0008   -0.0000    1.0000   -0.0058   -0.0003
     2 C1     2s        -0.0007    0.0007   -0.0003    0.0009   -0.0005   -0.0010   -0.0002    0.0024   -0.0001    0.0300
     3 C1     3s        -0.0005   -0.0006   -0.0003    0.0004   -0.0003   -0.0008   -0.0002    0.0001   -0.0004    0.0108
     4 C1     4s        -0.0001   -0.0004   -0.0001    0.0001   -0.0001   -0.0003   -0.0001    0.0014   -0.0001    0.0037
     5 C1     2px       -0.0002   -0.0011    0.0003    0.0016    0.0001   -0.0003    0.0001    0.0017   -0.0002    0.0045
     6 C1     3px       -0.0002   -0.0006    0.0003    0.0013   -0.0000   -0.0005    0.0001    0.0016    0.0002    0.0055
     7 C1     4px       -0.0000    0.0002   -0.0000   -0.0000   -0.0001   -0.0002    0.0000    0.0005    0.0002    0.0015
     8 C1     2py        0.0002    0.0032    0.0003    0.0003   -0.0003    0.0001   -0.0003    0.0008   -0.0006    0.0180
     9 C1     3py        0.0002    0.0023    0.0002    0.0001   -0.0004   -0.0002   -0.0004    0.0010    0.0002    0.0171
    10 C1     4py       -0.0000   -0.0003   -0.0000   -0.0001   -0.0000   -0.0003   -0.0001    0.0007    0.0003    0.0053
    11 C1     2pz       -0.0000    0.0003   -0.0001    0.0002   -0.0001    0.0002    0.0000    0.0001    0.0001    0.0004
    12 C1     3pz       -0.0000    0.0003   -0.0002    0.0002   -0.0001    0.0002   -0.0000    0.0006    0.0003    0.0011
    13 C1     4pz       -0.0000    0.0000   -0.0000   -0.0000   -0.0000    0.0000   -0.0000    0.0001    0.0001    0.0010
    14 C1     3d2-      -0.0000    0.0001   -0.0000    0.0001   -0.0000    0.0000    0.0000   -0.0003    0.0001   -0.0008
    15 C1     3d1-       0.0000    0.0000   -0.0000    0.0000    0.0000    0.0000    0.0000    0.0000   -0.0000   -0.0001
    16 C1     3d0       -0.0000   -0.0000    0.0000    0.0001   -0.0000   -0.0001    0.0000   -0.0003    0.0001   -0.0014
    17 C1     3d1+       0.0000    0.0000   -0.0000    0.0000   -0.0000   -0.0000   -0.0000   -0.0000    0.0000    0.0001
    18 C1     3d2+       0.0000    0.0001    0.0000   -0.0002    0.0000    0.0000   -0.0000    0.0000   -0.0001    0.0003
    19 C3     1s         0.0002    0.0001   -0.0001    0.0004    0.0064    0.9995   -0.0001    0.0006    0.0000   -0.0122
    20 C3     2s         0.0011    0.0007   -0.0003    0.0024   -0.0002   -0.0011    0.0004   -0.0003    0.0002    0.0119
    21 C3     3s         0.0007    0.0004   -0.0002    0.0011   -0.0004   -0.0024    0.0002   -0.0003    0.0001   -0.0336
    22 C3     4s         0.0001    0.0000   -0.0001    0.0001   -0.0000    0.0007   -0.0000   -0.0002   -0.0000   -0.0042
    23 C3     2px        0.0001    0.0002   -0.0001   -0.0004   -0.0001    0.0002   -0.0002    0.0007    0.0003    0.0002
    24 C3     3px        0.0002    0.0003   -0.0000    0.0001    0.0000    0.0001   -0.0002    0.0010    0.0003    0.0077
    25 C3     4px        0.0001    0.0001    0.0001    0.0002   -0.0000   -0.0006   -0.0000    0.0002    0.0001   -0.0024
    26 C3     2py       -0.0014   -0.0002    0.0010   -0.0007    0.0006   -0.0006   -0.0001    0.0004   -0.0003    0.0236
    27 C3     3py       -0.0015   -0.0001    0.0010   -0.0001    0.0002   -0.0004   -0.0004    0.0005   -0.0002    0.0019
    28 C3     4py       -0.0002    0.0001    0.0000    0.0002   -0.0001   -0.0005   -0.0002    0.0001    0.0000    0.0029
    29 C3     2pz        0.0005   -0.0001   -0.0002    0.0003   -0.0001   -0.0001    0.0002    0.0002    0.0002    0.0033
    30 C3     3pz        0.0003   -0.0000   -0.0002    0.0004   -0.0005   -0.0001    0.0001    0.0003    0.0002   -0.0097
    31 C3     4pz       -0.0002    0.0000    0.0000    0.0000   -0.0001    0.0003   -0.0000    0.0001    0.0000    0.0063
    32 C3     3d2-       0.0000    0.0000    0.0000   -0.0000   -0.0001   -0.0001   -0.0000    0.0000    0.0000   -0.0019
    33 C3     3d1-      -0.0000   -0.0000   -0.0000   -0.0000    0.0001   -0.0001    0.0001   -0.0000    0.0000    0.0045
    34 C3     3d0        0.0000    0.0000    0.0000    0.0001   -0.0000   -0.0000    0.0000   -0.0000   -0.0000   -0.0019
    35 C3     3d1+      -0.0001    0.0000   -0.0000   -0.0000    0.0001    0.0001   -0.0000    0.0000    0.0000    0.0026
    36 C3     3d2+       0.0001   -0.0000   -0.0001    0.0000    0.0000    0.0001   -0.0000    0.0001   -0.0000   -0.0027
    37 C4     1s         0.0004    0.0000    0.0002   -0.0002    1.0000   -0.0064    0.0002   -0.0001    0.0000   -0.0401
    38 C4     2s         0.0013    0.0001    0.0008   -0.0011    0.0026    0.0007    0.0001   -0.0007    0.0001    0.3496
    39 C4     3s        -0.0003    0.0001    0.0002   -0.0007    0.0001    0.0002    0.0000   -0.0005    0.0001   -0.0109
    40 C4     4s        -0.0004    0.0000    0.0000   -0.0002    0.0013    0.0000   -0.0001   -0.0002   -0.0000    0.0018
    41 C4     2px        0.0008   -0.0004   -0.0010   -0.0001   -0.0004    0.0003    0.0001   -0.0005   -0.0002    0.0237
    42 C4     3px        0.0007   -0.0005   -0.0009   -0.0002   -0.0007    0.0004    0.0003   -0.0007   -0.0002   -0.0088
    43 C4     4px        0.0000   -0.0001   -0.0000   -0.0001   -0.0002    0.0001    0.0002   -0.0002   -0.0001    0.0056
    44 C4     2py        0.0033   -0.0002   -0.0005    0.0005    0.0003   -0.0007    0.0001   -0.0001    0.0001    0.1102
    45 C4     3py        0.0024   -0.0001   -0.0005    0.0004    0.0000   -0.0000   -0.0002    0.0001    0.0001   -0.0648
    46 C4     4py       -0.0003    0.0001   -0.0000    0.0000    0.0004    0.0003   -0.0002    0.0001    0.0000    0.0269
    47 C4     2pz       -0.0005    0.0001    0.0017    0.0002    0.0013   -0.0009   -0.0001    0.0003   -0.0001    0.0085
    48 C4     3pz       -0.0005    0.0001    0.0013    0.0001    0.0009   -0.0007   -0.0006    0.0003   -0.0001    0.0041
    49 C4     4pz       -0.0000   -0.0000   -0.0001   -0.0000    0.0005   -0.0000   -0.0005    0.0000    0.0000    0.0004
    50 C4     3d2-      -0.0000   -0.0000   -0.0001    0.0001    0.0003   -0.0000    0.0000   -0.0000   -0.0000    0.0175
    51 C4     3d1-       0.0001   -0.0000    0.0002   -0.0000   -0.0002    0.0001   -0.0000    0.0000    0.0000   -0.0113
    52 C4     3d0        0.0001    0.0000   -0.0001   -0.0000   -0.0001    0.0000    0.0001    0.0000    0.0000   -0.0170
    53 C4     3d1+      -0.0001   -0.0000    0.0001   -0.0001   -0.0002    0.0001   -0.0001   -0.0000    0.0000   -0.0083
    54 C4     3d2+       0.0001    0.0000    0.0001    0.0000   -0.0005    0.0000   -0.0000    0.0000    0.0000   -0.0353
    55 C6     1s         0.0001    0.0001    0.0004   -0.0001   -0.0002    0.0003    0.9996   -0.0001   -0.0001   -0.0077
    56 C6     2s         0.0005    0.0004    0.0017   -0.0006    0.0000    0.0006   -0.0004   -0.0004   -0.0004    0.0240
    57 C6     3s         0.0003    0.0002    0.0006   -0.0004   -0.0002    0.0005   -0.0019   -0.0004   -0.0003   -0.0099
    58 C6     4s         0.0001    0.0000   -0.0000   -0.0001   -0.0002    0.0001    0.0009   -0.0001   -0.0001    0.0001
    59 C6     2px        0.0003   -0.0001    0.0003   -0.0000   -0.0002    0.0002    0.0001   -0.0001   -0.0001    0.0011
    60 C6     3px        0.0002   -0.0001    0.0001   -0.0000   -0.0002    0.0001   -0.0000   -0.0001   -0.0001   -0.0082
    61 C6     4px       -0.0000    0.0000   -0.0001    0.0000   -0.0001   -0.0000    0.0003    0.0000    0.0000    0.0021
    62 C6     2py        0.0001   -0.0002   -0.0004   -0.0001   -0.0000   -0.0001   -0.0002   -0.0001   -0.0000   -0.0049
    63 C6     3py        0.0000   -0.0002   -0.0001   -0.0001   -0.0002   -0.0001    0.0002   -0.0001   -0.0000    0.0039
    64 C6     4py       -0.0001    0.0000    0.0001   -0.0000   -0.0001    0.0000   -0.0004   -0.0000   -0.0000   -0.0010
    65 C6     2pz       -0.0002   -0.0000   -0.0002    0.0001    0.0004   -0.0003    0.0001    0.0003    0.0001   -0.0233
    66 C6     3pz       -0.0001   -0.0000    0.0003    0.0001    0.0006   -0.0002    0.0002    0.0003    0.0001   -0.0032
    67 C6     4pz        0.0000    0.0000    0.0002   -0.0000    0.0001    0.0001   -0.0006    0.0000    0.0000   -0.0021
    68 C6     3d2-       0.0000   -0.0000    0.0000   -0.0000    0.0000   -0.0000    0.0000   -0.0000    0.0000   -0.0011
    69 C6     3d1-       0.0000    0.0000   -0.0001    0.0000   -0.0000    0.0000   -0.0001   -0.0000    0.0000    0.0033
    70 C6     3d0        0.0000    0.0000    0.0000    0.0000    0.0000    0.0000    0.0000    0.0000   -0.0000    0.0013
    71 C6     3d1+      -0.0000    0.0000    0.0001    0.0000   -0.0001   -0.0000    0.0000    0.0000   -0.0000   -0.0026
    72 C6     3d2+      -0.0000    0.0000    0.0001   -0.0000    0.0000   -0.0000    0.0001   -0.0000    0.0000   -0.0002
    73 C19    1s         0.0000    0.0002    0.0001   -0.0000    0.0000    0.0001   -0.0000    0.0057    0.9999   -0.0002
    74 C19    2s         0.0001    0.0011    0.0005   -0.0000    0.0000    0.0006   -0.0002    0.0004    0.0019    0.0041
    75 C19    3s         0.0000    0.0007    0.0003    0.0001   -0.0000    0.0003   -0.0002    0.0001   -0.0005    0.0042
    76 C19    4s        -0.0000    0.0001    0.0001   -0.0000   -0.0000    0.0000   -0.0001    0.0001    0.0012    0.0025
    77 C19    2px        0.0001    0.0007    0.0003   -0.0003    0.0001    0.0002   -0.0000   -0.0002   -0.0001   -0.0016
    78 C19    3px        0.0001    0.0004    0.0002   -0.0002    0.0001    0.0002   -0.0001   -0.0004   -0.0001   -0.0016
    79 C19    4px       -0.0000   -0.0002   -0.0000   -0.0000   -0.0000    0.0000   -0.0000   -0.0001    0.0002    0.0005
    80 C19    2py        0.0000    0.0000    0.0002    0.0004   -0.0000    0.0002   -0.0000    0.0004   -0.0004    0.0045
    81 C19    3py       -0.0001   -0.0001    0.0001    0.0003   -0.0000    0.0001   -0.0000   -0.0001   -0.0000    0.0034
    82 C19    4py       -0.0000   -0.0001   -0.0000   -0.0001    0.0000   -0.0001    0.0000   -0.0001    0.0003    0.0003
    83 C19    2pz       -0.0000    0.0001    0.0002   -0.0002    0.0000   -0.0001   -0.0000   -0.0002   -0.0001    0.0011
    84 C19    3pz        0.0000    0.0000    0.0002   -0.0002    0.0000   -0.0002   -0.0000   -0.0003   -0.0001    0.0008
    85 C19    4pz        0.0000   -0.0000    0.0000   -0.0000    0.0000   -0.0000    0.0000   -0.0000    0.0000   -0.0001
    86 C19    3d2-       0.0000    0.0001    0.0000   -0.0000   -0.0000    0.0000   -0.0000   -0.0000   -0.0001    0.0002
    87 C19    3d1-       0.0000   -0.0000    0.0000    0.0000    0.0000    0.0000   -0.0000   -0.0000   -0.0000   -0.0000
    88 C19    3d0       -0.0000   -0.0001   -0.0000   -0.0001   -0.0000   -0.0000   -0.0000    0.0001    0.0001    0.0002
    89 C19    3d1+       0.0000    0.0000    0.0000    0.0000    0.0000    0.0000   -0.0000    0.0000   -0.0000   -0.0002
    90 C19    3d2+      -0.0000    0.0001   -0.0000   -0.0000   -0.0000   -0.0000   -0.0000   -0.0001    0.0001   -0.0000
    91 N2     1s        -0.0000    0.0000   -0.0000    0.9998    0.0000    0.0001    0.0000   -0.0003    0.0000   -0.0008
    92 N2     2s        -0.0003    0.0001    0.0001   -0.0001    0.0002    0.0017    0.0000   -0.0006    0.0003    0.0296
    93 N2     3s        -0.0001    0.0001    0.0001   -0.0015    0.0001    0.0009    0.0000   -0.0006    0.0002   -0.0017
    94 N2     4s         0.0000    0.0000    0.0000    0.0005    0.0000    0.0003    0.0000   -0.0000    0.0000   -0.0014
    95 N2     2px       -0.0007    0.0001    0.0004    0.0002    0.0002    0.0002   -0.0001   -0.0002   -0.0004    0.0061
    96 N2     3px       -0.0010   -0.0000    0.0005   -0.0001    0.0002   -0.0001   -0.0002   -0.0001   -0.0004    0.0084
    97 N2     4px       -0.0001   -0.0001    0.0001   -0.0001   -0.0000   -0.0001   -0.0001   -0.0003    0.0001    0.0002
    98 N2     2py        0.0000   -0.0015    0.0001   -0.0006    0.0004    0.0008    0.0001    0.0006   -0.0001   -0.0002
    99 N2     3py        0.0001   -0.0018    0.0001    0.0003    0.0004    0.0008    0.0001    0.0007   -0.0001   -0.0121
   100 N2     4py        0.0000   -0.0000   -0.0000    0.0006   -0.0000    0.0002    0.0000   -0.0000    0.0001   -0.0018
   101 N2     2pz        0.0000   -0.0002   -0.0001   -0.0000    0.0000    0.0001    0.0001   -0.0002   -0.0000    0.0026
   102 N2     3pz        0.0001   -0.0002   -0.0001    0.0001    0.0001    0.0001    0.0002   -0.0000   -0.0000   -0.0001
   103 N2     4pz        0.0001   -0.0000   -0.0000    0.0002    0.0000   -0.0000    0.0000    0.0000    0.0000   -0.0006
   104 N2     3d2-       0.0000    0.0001    0.0000   -0.0002    0.0000   -0.0000    0.0000   -0.0001   -0.0000    0.0001
   105 N2     3d1-      -0.0000    0.0000   -0.0000   -0.0000    0.0000    0.0000    0.0000   -0.0000    0.0000    0.0007
   106 N2     3d0       -0.0000   -0.0000    0.0000    0.0001   -0.0000    0.0001   -0.0000    0.0002   -0.0001   -0.0005
   107 N2     3d1+      -0.0000    0.0000   -0.0000   -0.0000    0.0000   -0.0000    0.0000    0.0000   -0.0000    0.0008
   108 N2     3d2+       0.0000   -0.0001   -0.0000    0.0000   -0.0000   -0.0000   -0.0000    0.0000    0.0000   -0.0001
   109 N5     1s         0.0002   -0.0001    0.9999    0.0001   -0.0003    0.0000    0.0001    0.0000    0.0001   -0.0180
   110 N5     2s         0.0011   -0.0006    0.0002    0.0001   -0.0003    0.0000    0.0017    0.0000    0.0003    0.1117
   111 N5     3s         0.0008   -0.0005   -0.0013    0.0001   -0.0004    0.0001    0.0011    0.0000    0.0002   -0.0476
   112 N5     4s         0.0002   -0.0001    0.0005    0.0001    0.0000    0.0000    0.0004    0.0000    0.0000   -0.0112
   113 N5     2px       -0.0001    0.0003   -0.0003   -0.0001    0.0001    0.0001   -0.0006    0.0001    0.0000    0.0176
   114 N5     3px       -0.0001    0.0005   -0.0001   -0.0001   -0.0001    0.0001   -0.0006    0.0002    0.0001    0.0010
   115 N5     4px        0.0000    0.0001   -0.0001   -0.0000    0.0001   -0.0000   -0.0000    0.0001    0.0000    0.0035
   116 N5     2py       -0.0014   -0.0001   -0.0012    0.0003    0.0001   -0.0002    0.0004    0.0002    0.0000    0.0460
   117 N5     3py       -0.0016   -0.0001   -0.0009    0.0004   -0.0002   -0.0002    0.0006    0.0004    0.0002    0.0088
   118 N5     4py        0.0000   -0.0000    0.0004    0.0001   -0.0001    0.0001    0.0003    0.0001    0.0001   -0.0031
   119 N5     2pz       -0.0004   -0.0001   -0.0004    0.0002   -0.0001   -0.0002    0.0008    0.0002    0.0002   -0.0035
   120 N5     3pz       -0.0004   -0.0002   -0.0005    0.0003   -0.0003   -0.0003    0.0006    0.0001    0.0004    0.0300
   121 N5     4pz        0.0001   -0.0001   -0.0003    0.0000   -0.0004    0.0000    0.0000   -0.0000    0.0001   -0.0049
   122 N5     3d2-      -0.0000    0.0000    0.0001    0.0000    0.0000    0.0000    0.0000    0.0000    0.0000    0.0022
   123 N5     3d1-       0.0001    0.0000   -0.0001   -0.0000   -0.0001    0.0000    0.0000   -0.0000    0.0000   -0.0050
   124 N5     3d0        0.0000   -0.0000   -0.0001   -0.0000   -0.0001   -0.0000   -0.0000   -0.0000   -0.0000    0.0003
   125 N5     3d1+      -0.0000   -0.0000    0.0001   -0.0000    0.0001   -0.0000    0.0001   -0.0000   -0.0000   -0.0029
   126 N5     3d2+      -0.0000    0.0000   -0.0001    0.0000    0.0001   -0.0000    0.0000   -0.0000   -0.0000   -0.0006
   127 O7     1s        -0.0000    0.9997   -0.0000    0.0000    0.0000   -0.0000    0.0000   -0.0002    0.0000   -0.0015
   128 O7     2s        -0.0001   -0.0014   -0.0000    0.0000    0.0002   -0.0002    0.0001    0.0006    0.0003    0.0228
   129 O7     3s        -0.0000   -0.0014   -0.0000    0.0000    0.0002   -0.0001    0.0000    0.0000    0.0002   -0.0030
   130 O7     4s         0.0000    0.0001    0.0000   -0.0000    0.0001   -0.0000   -0.0000    0.0000    0.0001   -0.0007
   131 O7     2px       -0.0000    0.0001   -0.0001   -0.0004    0.0000   -0.0001   -0.0001    0.0004    0.0001    0.0074
   132 O7     3px       -0.0001   -0.0003   -0.0001   -0.0005    0.0000    0.0000   -0.0001   -0.0001    0.0001    0.0036
   133 O7     4px       -0.0000    0.0009   -0.0000   -0.0001   -0.0000    0.0000   -0.0000    0.0000   -0.0000    0.0017
   134 O7     2py        0.0001   -0.0003   -0.0002   -0.0002   -0.0002    0.0000   -0.0000   -0.0008   -0.0002   -0.0012
   135 O7     3py        0.0001    0.0003   -0.0002   -0.0002   -0.0002    0.0000   -0.0001   -0.0006   -0.0001    0.0058
   136 O7     4py       -0.0000   -0.0011   -0.0001    0.0000   -0.0001    0.0000   -0.0000   -0.0003    0.0000    0.0018
   137 O7     2pz        0.0000   -0.0000   -0.0001   -0.0000   -0.0001   -0.0000   -0.0001   -0.0004   -0.0000    0.0028
   138 O7     3pz        0.0001    0.0001   -0.0001   -0.0000   -0.0001   -0.0000   -0.0002   -0.0001   -0.0000    0.0044
   139 O7     4pz        0.0000   -0.0000   -0.0000    0.0000   -0.0000   -0.0000   -0.0001   -0.0000   -0.0000    0.0013
   140 O7     3d2-       0.0000    0.0001   -0.0000    0.0000   -0.0000    0.0000    0.0000   -0.0003   -0.0000   -0.0009
   141 O7     3d1-       0.0000    0.0000   -0.0000    0.0000   -0.0000   -0.0000   -0.0000    0.0000    0.0000    0.0000
   142 O7     3d0        0.0000   -0.0000    0.0000   -0.0000   -0.0000   -0.0000    0.0000   -0.0001   -0.0000   -0.0005
   143 O7     3d1+       0.0000    0.0000   -0.0000    0.0000    0.0000   -0.0000   -0.0000   -0.0000    0.0000    0.0001
   144 O7     3d2+      -0.0000    0.0000   -0.0000   -0.0001    0.0000   -0.0000   -0.0000   -0.0001   -0.0000    0.0000
   145 O8     1s         0.9997    0.0000    0.0000   -0.0000   -0.0003    0.0001   -0.0000    0.0000    0.0000   -0.0243
   146 O8     2s        -0.0015    0.0002    0.0002   -0.0000    0.0003    0.0004   -0.0003    0.0003    0.0000    0.6884
   147 O8     3s        -0.0014    0.0001    0.0002   -0.0000   -0.0001    0.0003   -0.0002    0.0002    0.0000   -0.0350
   148 O8     4s         0.0001    0.0000    0.0000   -0.0000    0.0000    0.0001   -0.0001    0.0000    0.0000   -0.0139
   149 O8     2px       -0.0001    0.0000    0.0001   -0.0000    0.0001   -0.0000    0.0001    0.0001    0.0000   -0.0291
   150 O8     3px        0.0000    0.0001    0.0002    0.0000    0.0001   -0.0000    0.0001    0.0001    0.0001    0.0079
   151 O8     4px       -0.0003    0.0001    0.0001    0.0000    0.0000    0.0000    0.0000    0.0001    0.0000   -0.0004
   152 O8     2py       -0.0003   -0.0001   -0.0000   -0.0001   -0.0007   -0.0002    0.0001   -0.0001   -0.0000   -0.1435
   153 O8     3py        0.0005   -0.0001    0.0001   -0.0001   -0.0002   -0.0002    0.0000   -0.0001   -0.0000    0.0434
   154 O8     4py       -0.0014    0.0000    0.0001   -0.0000   -0.0003    0.0001   -0.0000    0.0000   -0.0000    0.0003
   155 O8     2pz        0.0001   -0.0000   -0.0003   -0.0001    0.0002    0.0001   -0.0001   -0.0001   -0.0000    0.0274
   156 O8     3pz       -0.0001   -0.0000   -0.0003   -0.0001   -0.0001    0.0001   -0.0001   -0.0001   -0.0000   -0.0075
   157 O8     4pz        0.0002    0.0000   -0.0000   -0.0000   -0.0001    0.0000    0.0000   -0.0000   -0.0000   -0.0016
   158 O8     3d2-      -0.0000    0.0000   -0.0000    0.0000    0.0001    0.0000   -0.0000    0.0000   -0.0000    0.0077
   159 O8     3d1-       0.0000   -0.0000    0.0001    0.0000   -0.0001    0.0000    0.0000    0.0000   -0.0000   -0.0059
   160 O8     3d0        0.0001   -0.0000    0.0000   -0.0000   -0.0001   -0.0000    0.0000   -0.0000    0.0000   -0.0104
   161 O8     3d1+      -0.0000    0.0000   -0.0000    0.0000    0.0000   -0.0000   -0.0000    0.0000   -0.0000   -0.0012
   162 O8     3d2+       0.0000   -0.0000   -0.0000    0.0000   -0.0001   -0.0000   -0.0000   -0.0000   -0.0000   -0.0168
   163 H9     1s        -0.0000    0.0004    0.0002   -0.0001   -0.0000   -0.0002   -0.0000   -0.0001    0.0003    0.0043
   164 H9     2s        -0.0000    0.0002    0.0001   -0.0001   -0.0000   -0.0002   -0.0000    0.0000   -0.0002    0.0030
   165 H9     2px       -0.0000    0.0000   -0.0000    0.0000   -0.0000   -0.0000   -0.0000    0.0000   -0.0000    0.0004
   166 H9     2py       -0.0000   -0.0000   -0.0000   -0.0000   -0.0000   -0.0000   -0.0000    0.0001    0.0000    0.0001
   167 H9     2pz       -0.0000    0.0000    0.0000    0.0000   -0.0000   -0.0000   -0.0000    0.0000   -0.0001    0.0005
   168 H10    1s         0.0001    0.0002    0.0002    0.0003    0.0000   -0.0000    0.0001    0.0003    0.0004    0.0012
   169 H10    2s         0.0000    0.0001    0.0001    0.0002    0.0000   -0.0000    0.0000    0.0002   -0.0002    0.0009
   170 H10    2px        0.0000   -0.0000    0.0000    0.0001    0.0000   -0.0000    0.0000    0.0001   -0.0000    0.0002
   171 H10    2py       -0.0000   -0.0001    0.0000   -0.0000    0.0000   -0.0000    0.0000    0.0000    0.0000   -0.0000
   172 H10    2pz       -0.0000   -0.0000   -0.0000    0.0000   -0.0000    0.0000    0.0000   -0.0000    0.0001   -0.0001
   173 H11    1s        -0.0001   -0.0002   -0.0001    0.0004   -0.0001   -0.0000   -0.0001    0.0003    0.0002    0.0062
   174 H11    2s        -0.0000   -0.0001   -0.0000    0.0003   -0.0001   -0.0000   -0.0000    0.0002   -0.0003    0.0039
   175 H11    2px        0.0000   -0.0000    0.0000   -0.0001    0.0000    0.0000    0.0000   -0.0000    0.0001   -0.0006
   176 H11    2py       -0.0000   -0.0000   -0.0000   -0.0000   -0.0000    0.0000   -0.0000    0.0001   -0.0001    0.0006
   177 H11    2pz        0.0000    0.0000   -0.0000    0.0000    0.0000    0.0000   -0.0000    0.0000    0.0000   -0.0003
   178 H12    1s         0.0002   -0.0010    0.0002   -0.0004    0.0003   -0.0001   -0.0001    0.0006   -0.0002   -0.0032
   179 H12    2s         0.0001   -0.0005    0.0002   -0.0003    0.0002    0.0000   -0.0001    0.0003   -0.0001   -0.0052
   180 H12    2px        0.0000    0.0000   -0.0000    0.0003   -0.0000    0.0000    0.0000   -0.0002    0.0000   -0.0002
   181 H12    2py       -0.0000   -0.0000    0.0000   -0.0004    0.0000    0.0000   -0.0000    0.0000   -0.0000    0.0007
   182 H12    2pz       -0.0000    0.0000    0.0000   -0.0000    0.0000   -0.0000   -0.0000   -0.0000   -0.0000    0.0001
   183 H13    1s        -0.0006   -0.0000    0.0005   -0.0006    0.0002    0.0006   -0.0001   -0.0004   -0.0003    0.0156
   184 H13    2s        -0.0004   -0.0000    0.0003   -0.0003    0.0002   -0.0001   -0.0001   -0.0003   -0.0002    0.0035
   185 H13    2px        0.0001   -0.0000   -0.0001    0.0000   -0.0001    0.0000    0.0000    0.0000    0.0000   -0.0015
   186 H13    2py       -0.0000    0.0000   -0.0000    0.0000    0.0000   -0.0000   -0.0000   -0.0000    0.0000    0.0008
   187 H13    2pz       -0.0000    0.0000   -0.0000   -0.0000    0.0000    0.0000   -0.0000    0.0000    0.0000    0.0011
   188 H14    1s         0.0005    0.0001   -0.0003   -0.0005   -0.0002    0.0010   -0.0002   -0.0005    0.0002    0.0155
   189 H14    2s         0.0003    0.0001   -0.0001   -0.0002   -0.0001    0.0002   -0.0001   -0.0003    0.0001    0.0004
   190 H14    2px        0.0000    0.0000   -0.0000    0.0000    0.0000   -0.0000    0.0000    0.0000   -0.0000   -0.0003
   191 H14    2py       -0.0000    0.0000    0.0000    0.0000    0.0000   -0.0001   -0.0000    0.0001   -0.0000    0.0001
   192 H14    2pz        0.0000   -0.0000   -0.0000    0.0000    0.0001    0.0001   -0.0000   -0.0000    0.0000    0.0014
   193 H15    1s        -0.0014   -0.0000   -0.0011    0.0000   -0.0001   -0.0005   -0.0005   -0.0003   -0.0004    0.0453
   194 H15    2s        -0.0008   -0.0000   -0.0008    0.0000   -0.0002   -0.0003   -0.0002   -0.0001   -0.0003    0.0026
   195 H15    2px       -0.0001    0.0001   -0.0002    0.0000    0.0001   -0.0000   -0.0000   -0.0000   -0.0000    0.0022
   196 H15    2py       -0.0001    0.0000   -0.0005    0.0000    0.0001   -0.0000   -0.0000   -0.0000   -0.0001    0.0061
   197 H15    2pz       -0.0000    0.0001   -0.0000   -0.0000   -0.0001    0.0000    0.0000   -0.0000    0.0000   -0.0005
   198 H16    1s        -0.0002    0.0002   -0.0002    0.0001   -0.0001    0.0000    0.0011    0.0001    0.0001    0.0114
   199 H16    2s        -0.0001    0.0001   -0.0000    0.0000    0.0000    0.0000    0.0002    0.0001    0.0001   -0.0030
   200 H16    2px       -0.0000   -0.0000   -0.0000   -0.0000    0.0000   -0.0000   -0.0000   -0.0000    0.0000    0.0007
   201 H16    2py        0.0000   -0.0000   -0.0000   -0.0000    0.0000   -0.0000   -0.0001   -0.0000   -0.0000   -0.0010
   202 H16    2pz        0.0000    0.0000   -0.0000    0.0000   -0.0000   -0.0000   -0.0000   -0.0000    0.0000   -0.0004
   203 H17    1s         0.0005   -0.0001   -0.0004    0.0001   -0.0003    0.0001    0.0008   -0.0000   -0.0000    0.0020
   204 H17    2s         0.0003   -0.0000   -0.0001    0.0000   -0.0003    0.0000    0.0000   -0.0000   -0.0000   -0.0035
   205 H17    2px        0.0000   -0.0000   -0.0000    0.0000   -0.0001    0.0000    0.0001   -0.0000   -0.0000    0.0004
   206 H17    2py       -0.0000    0.0000    0.0000    0.0000    0.0000    0.0000   -0.0000    0.0000   -0.0000   -0.0006
   207 H17    2pz       -0.0000   -0.0000    0.0000   -0.0000    0.0000    0.0000   -0.0000   -0.0000   -0.0000   -0.0002
   208 H18    1s         0.0002   -0.0000   -0.0006   -0.0001   -0.0004    0.0001    0.0006   -0.0002    0.0000    0.0129
   209 H18    2s         0.0001   -0.0000   -0.0003   -0.0000   -0.0003    0.0000   -0.0001   -0.0001   -0.0000    0.0039
   210 H18    2px       -0.0000    0.0000   -0.0000    0.0000    0.0000   -0.0000    0.0000    0.0000    0.0000   -0.0002
   211 H18    2py        0.0000    0.0000   -0.0000    0.0000   -0.0000    0.0000   -0.0000   -0.0000    0.0000    0.0005
   212 H18    2pz       -0.0000    0.0000    0.0001    0.0000    0.0001   -0.0000   -0.0000    0.0000   -0.0000   -0.0015
 
 
      Orbital                11        12        13        14        15        16        17        18        19        20
      Energy            -1.3589   -1.2565   -1.2183   -1.0139   -0.9678   -0.9275   -0.8145   -0.7822   -0.7098   -0.6893
      Occ. No.           2.0000    2.0000    2.0000    2.0000    2.0000    2.0000    2.0000    2.0000    2.0000    2.0000
 
     1 C1     1s        -0.0397    0.0036    0.0062   -0.0127    0.0081    0.0024    0.0064   -0.0128   -0.0025    0.0049
     2 C1     2s         0.3609    0.0080   -0.0844    0.2116   -0.1546   -0.0033   -0.1279    0.3574    0.0562   -0.1293
     3 C1     3s        -0.0066    0.0155    0.0046   -0.0115    0.0088    0.0041    0.0034    0.0034   -0.0074    0.0062
     4 C1     4s         0.0015    0.0047    0.0015   -0.0048    0.0026    0.0023    0.0021   -0.0019   -0.0020    0.0032
     5 C1     2px       -0.0492    0.0358   -0.1310    0.0381    0.0428   -0.1108   -0.0749    0.1497   -0.0037    0.0300
     6 C1     3px        0.0163   -0.0090    0.0539   -0.0488    0.0156    0.0157    0.0176   -0.0295   -0.0075   -0.0171
     7 C1     4px       -0.0161    0.0080   -0.0244   -0.0038    0.0088   -0.0143   -0.0054    0.0106   -0.0034    0.0009
     8 C1     2py        0.0909    0.0002    0.0357   -0.1154    0.1215   -0.0312   -0.0072    0.0214    0.0755    0.0365
     9 C1     3py       -0.0676    0.0318   -0.0420   -0.0103   -0.0165    0.0680   -0.0019   -0.0163   -0.0259   -0.0119
    10 C1     4py        0.0206    0.0017    0.0055   -0.0210    0.0203    0.0008   -0.0017    0.0019    0.0022   -0.0009
    11 C1     2pz       -0.0057    0.0042    0.0101   -0.0196    0.0173   -0.0156    0.0050   -0.0030   -0.0082    0.0161
    12 C1     3pz       -0.0112    0.0075    0.0063   -0.0037    0.0058   -0.0103    0.0039   -0.0019   -0.0046   -0.0020
    13 C1     4pz       -0.0008    0.0028    0.0025   -0.0031    0.0043   -0.0032    0.0019   -0.0006   -0.0035    0.0029
    14 C1     3d2-      -0.0318    0.0067   -0.0173    0.0052   -0.0084    0.0069   -0.0013    0.0127    0.0140    0.0054
    15 C1     3d1-       0.0035   -0.0003    0.0012    0.0008   -0.0019    0.0009   -0.0001    0.0013    0.0004   -0.0006
    16 C1     3d0       -0.0271    0.0009    0.0037   -0.0090    0.0046    0.0024    0.0058   -0.0122   -0.0021    0.0036
    17 C1     3d1+      -0.0019    0.0011   -0.0010    0.0001   -0.0010    0.0007   -0.0002    0.0017   -0.0010    0.0033
    18 C1     3d2+      -0.0053    0.0058   -0.0245    0.0071    0.0079   -0.0163   -0.0070    0.0112    0.0002    0.0034
    19 C3     1s        -0.0100   -0.0096    0.0319    0.0386   -0.0042   -0.0262   -0.0069   -0.0018   -0.0041    0.0065
    20 C3     2s         0.0304    0.0670   -0.1793   -0.3242    0.0344    0.3658    0.0866    0.0677    0.0902   -0.0540
    21 C3     3s        -0.0176   -0.0144    0.0583    0.0700   -0.0085   -0.0261   -0.0102   -0.0040   -0.0024    0.0214
    22 C3     4s        -0.0023   -0.0015    0.0134    0.0179   -0.0029   -0.0076   -0.0030   -0.0024   -0.0012    0.0059
    23 C3     2px       -0.0319   -0.0199    0.0505   -0.0141    0.0107    0.0413    0.0480   -0.0650   -0.0529   -0.1529
    24 C3     3px       -0.0122    0.0104   -0.0145   -0.0333    0.0211    0.0062   -0.0005    0.0046    0.0122    0.0172
    25 C3     4px       -0.0028    0.0045   -0.0045   -0.0147    0.0069    0.0153    0.0046   -0.0015   -0.0019   -0.0045
    26 C3     2py       -0.0184   -0.0278    0.1041   -0.0172   -0.0273    0.0482   -0.0953    0.1957   -0.1849   -0.0695
    27 C3     3py        0.0046    0.0005    0.0129    0.0255    0.0521   -0.0187   -0.0071    0.0036    0.0416    0.0192
    28 C3     4py       -0.0043    0.0047    0.0116   -0.0052    0.0025    0.0061   -0.0087    0.0116    0.0027   -0.0012
    29 C3     2pz       -0.0060    0.0275    0.0136   -0.0476   -0.0395   -0.0044   -0.0666    0.0238   -0.1524    0.1843
    30 C3     3pz       -0.0102    0.0019    0.0140    0.0094    0.0144   -0.0154    0.0094   -0.0040    0.0228   -0.0145
    31 C3     4pz       -0.0031   -0.0015    0.0082    0.0062   -0.0023   -0.0125   -0.0059   -0.0031   -0.0047    0.0063
    32 C3     3d2-       0.0050    0.0037   -0.0171    0.0045    0.0082   -0.0069    0.0039   -0.0026    0.0228    0.0091
    33 C3     3d1-       0.0013    0.0026   -0.0045   -0.0087   -0.0045    0.0026   -0.0076    0.0029   -0.0127    0.0128
    34 C3     3d0       -0.0019    0.0010    0.0097   -0.0016   -0.0075    0.0016   -0.0078    0.0105   -0.0087   -0.0022
    35 C3     3d1+      -0.0002   -0.0029   -0.0006    0.0044    0.0042   -0.0004    0.0048   -0.0050    0.0060   -0.0102
    36 C3     3d2+      -0.0015    0.0009    0.0119    0.0026   -0.0047   -0.0011   -0.0043    0.0094    0.0059   -0.0034
    37 C4     1s         0.0024   -0.0073   -0.0039    0.0129    0.0103    0.0015    0.0177    0.0000    0.0058   -0.0005
    38 C4     2s         0.0081    0.1438   -0.0192   -0.2347   -0.1836    0.0530   -0.3616   -0.0165   -0.2255    0.0456
    39 C4     3s         0.0088    0.0038   -0.0126    0.0169    0.0062    0.0060    0.0236   -0.0097    0.0081    0.0087
    40 C4     4s         0.0026    0.0010   -0.0034    0.0066    0.0022    0.0008    0.0074   -0.0038    0.0034   -0.0000
    41 C4     2px        0.0053   -0.0671   -0.0320   -0.0233   -0.0043    0.0549    0.0294    0.0605   -0.1078   -0.0516
    42 C4     3px        0.0148    0.0076   -0.0077   -0.0074   -0.0477   -0.0268   -0.0127   -0.0249    0.0355   -0.0002
    43 C4     4px        0.0029   -0.0131   -0.0065   -0.0038   -0.0046    0.0036    0.0040    0.0014   -0.0059   -0.0072
    44 C4     2py       -0.0199   -0.0848    0.0109    0.1199    0.0862   -0.0063    0.0104   -0.0390   -0.0457   -0.2161
    45 C4     3py        0.0042    0.0747    0.0012   -0.0357    0.0115    0.0490   -0.0045    0.0211    0.0126    0.0723
    46 C4     4py       -0.0059   -0.0142    0.0023    0.0108    0.0135    0.0051   -0.0013   -0.0015   -0.0091   -0.0112
    47 C4     2pz       -0.0011    0.1145    0.0657    0.0609   -0.0087   -0.0948   -0.1135   -0.1306    0.1795    0.0450
    48 C4     3pz        0.0007    0.0045    0.0091    0.0174    0.0733    0.0770    0.0073    0.0742   -0.0562    0.0147
    49 C4     4pz        0.0006    0.0261    0.0106    0.0094    0.0063   -0.0006   -0.0101   -0.0024    0.0089    0.0091
    50 C4     3d2-      -0.0007    0.0007    0.0030    0.0032   -0.0048   -0.0102   -0.0001   -0.0021   -0.0019    0.0012
    51 C4     3d1-       0.0009   -0.0088   -0.0065   -0.0054    0.0095    0.0184   -0.0027    0.0080   -0.0017   -0.0048
    52 C4     3d0        0.0018    0.0209    0.0038   -0.0077   -0.0059    0.0003   -0.0149   -0.0047    0.0186   -0.0001
    53 C4     3d1+       0.0004   -0.0162   -0.0045    0.0098    0.0094   -0.0001    0.0133    0.0033   -0.0027    0.0006
    54 C4     3d2+       0.0021    0.0125    0.0047    0.0026    0.0016    0.0001    0.0019   -0.0027    0.0139   -0.0010
    55 C6     1s         0.0018   -0.0298   -0.0152   -0.0295   -0.0396   -0.0267    0.0083   -0.0024    0.0057   -0.0071
    56 C6     2s         0.0204    0.1656    0.0295    0.2071    0.3147    0.2840   -0.1091    0.0275   -0.0392    0.0860
    57 C6     3s         0.0129   -0.0422   -0.0405   -0.0503   -0.0700   -0.0352    0.0187   -0.0061    0.0156   -0.0213
    58 C6     4s         0.0039   -0.0061   -0.0091   -0.0102   -0.0156   -0.0073    0.0059   -0.0019    0.0035   -0.0071
    59 C6     2px        0.0075    0.0364    0.0103    0.0201   -0.0019   -0.0095   -0.0131   -0.0401    0.1052   -0.1430
    60 C6     3px        0.0068   -0.0110   -0.0069    0.0010   -0.0079    0.0007   -0.0028    0.0033   -0.0094    0.0207
    61 C6     4px       -0.0001   -0.0002   -0.0011   -0.0049   -0.0067   -0.0057    0.0013   -0.0032    0.0037   -0.0072
    62 C6     2py       -0.0012   -0.0585   -0.0124   -0.0198   -0.0092    0.0123   -0.1456   -0.0422    0.0460    0.1755
    63 C6     3py        0.0009    0.0087    0.0088    0.0053   -0.0004   -0.0069    0.0043    0.0031   -0.0002   -0.0284
    64 C6     4py       -0.0000   -0.0019   -0.0007    0.0054    0.0087    0.0074   -0.0121   -0.0034    0.0020    0.0067
    65 C6     2pz       -0.0042   -0.0817   -0.0180   -0.0111    0.0155    0.0305   -0.0227    0.0503   -0.1382    0.2200
    66 C6     3pz       -0.0027    0.0109    0.0140    0.0180    0.0233    0.0040   -0.0054   -0.0047    0.0225   -0.0327
    67 C6     4pz       -0.0006    0.0015    0.0018    0.0079    0.0150    0.0115   -0.0037    0.0042   -0.0064    0.0120
    68 C6     3d2-      -0.0004   -0.0086   -0.0025   -0.0028   -0.0009    0.0016   -0.0086   -0.0012   -0.0010    0.0149
    69 C6     3d1-       0.0004    0.0179    0.0053    0.0048    0.0016   -0.0034    0.0138   -0.0001    0.0071   -0.0264
    70 C6     3d0       -0.0000    0.0062    0.0022    0.0013   -0.0004   -0.0018   -0.0018   -0.0037    0.0050   -0.0094
    71 C6     3d1+      -0.0002   -0.0106   -0.0038   -0.0036   -0.0015    0.0019    0.0030    0.0065   -0.0143    0.0184
    72 C6     3d2+      -0.0001   -0.0035   -0.0014   -0.0034   -0.0022   -0.0003   -0.0067   -0.0011   -0.0030    0.0084
    73 C19    1s        -0.0147   -0.0013    0.0071   -0.0355    0.0513   -0.0359   -0.0104    0.0110   -0.0019   -0.0053
    74 C19    2s        -0.0058   -0.0070   -0.0058    0.1764   -0.3039    0.2758    0.0429   -0.0866    0.0419    0.0395
    75 C19    3s        -0.0392   -0.0011    0.0208   -0.0733    0.0985   -0.0571   -0.0269    0.0249   -0.0024   -0.0100
    76 C19    4s        -0.0043    0.0016    0.0032   -0.0159    0.0217   -0.0130   -0.0062    0.0073   -0.0018   -0.0024
    77 C19    2px       -0.0088    0.0055   -0.0210    0.0431   -0.0228   -0.0088   -0.0257    0.0489   -0.0502   -0.0352
    78 C19    3px       -0.0060    0.0015    0.0022    0.0071    0.0038   -0.0020    0.0031   -0.0038    0.0037    0.0076
    79 C19    4px        0.0076    0.0001   -0.0000   -0.0024    0.0100   -0.0112   -0.0029    0.0022   -0.0050   -0.0025
    80 C19    2py        0.0196    0.0040   -0.0045    0.0321   -0.0247   -0.0013   -0.0301    0.0711   -0.0266   -0.0967
    81 C19    3py       -0.0098    0.0062    0.0060   -0.0198    0.0257   -0.0154    0.0033   -0.0093   -0.0051    0.0131
    82 C19    4py        0.0047    0.0006    0.0005   -0.0074    0.0147   -0.0153   -0.0043    0.0123   -0.0003   -0.0039
    83 C19    2pz        0.0071    0.0039   -0.0088    0.0079   -0.0115    0.0126    0.0024    0.0087   -0.0114   -0.0007
    84 C19    3pz        0.0057    0.0051   -0.0075    0.0026   -0.0061    0.0109    0.0055    0.0044    0.0011    0.0047
    85 C19    4pz        0.0012    0.0012    0.0001   -0.0014    0.0019   -0.0019    0.0009    0.0025   -0.0008    0.0003
    86 C19    3d2-       0.0003    0.0012   -0.0057    0.0079   -0.0060    0.0002   -0.0034    0.0079   -0.0010   -0.0064
    87 C19    3d1-       0.0006    0.0000    0.0000    0.0010   -0.0011    0.0006   -0.0001    0.0007   -0.0008   -0.0011
    88 C19    3d0        0.0011   -0.0002    0.0006   -0.0058    0.0063   -0.0025    0.0014   -0.0037    0.0041    0.0040
    89 C19    3d1+      -0.0011    0.0001   -0.0004    0.0010   -0.0003   -0.0005   -0.0008    0.0014   -0.0009   -0.0007
    90 C19    3d2+      -0.0066    0.0011   -0.0024   -0.0049    0.0061   -0.0031    0.0010   -0.0039    0.0013    0.0062
    91 N2     1s        -0.0187   -0.0090    0.0371   -0.0063   -0.0017    0.0043   -0.0016    0.0048    0.0023    0.0018
    92 N2     2s         0.1593    0.1158   -0.5764    0.1113    0.1363   -0.1974   -0.0117   -0.1012    0.0120    0.0667
    93 N2     3s        -0.0445   -0.0166    0.0612   -0.0071    0.0045   -0.0016   -0.0063    0.0092    0.0053    0.0112
    94 N2     4s        -0.0114   -0.0055    0.0220   -0.0018   -0.0014    0.0019   -0.0017    0.0030    0.0001    0.0017
    95 N2     2px       -0.0262    0.0011    0.0145   -0.1002    0.0751    0.0711    0.1409   -0.3770   -0.0484    0.0119
    96 N2     3px        0.0275   -0.0032    0.0081    0.0453    0.0124   -0.0423   -0.0545    0.1025    0.0061   -0.0026
    97 N2     4px       -0.0035    0.0017   -0.0035   -0.0000    0.0077   -0.0049   -0.0028    0.0000   -0.0038    0.0002
    98 N2     2py        0.0282    0.0015    0.0156   -0.1181    0.0438    0.0696    0.0352    0.1350    0.3440    0.1060
    99 N2     3py        0.0032   -0.0182    0.0552    0.0438    0.0058   -0.0692   -0.0141   -0.0149   -0.0689   -0.0137
   100 N2     4py       -0.0081   -0.0031    0.0145   -0.0024    0.0009   -0.0052   -0.0047    0.0087   -0.0005   -0.0001
   101 N2     2pz       -0.0049    0.0017    0.0003   -0.0311   -0.0046    0.0043    0.0018    0.0112   -0.0299    0.0792
   102 N2     3pz       -0.0032   -0.0084    0.0066   -0.0049   -0.0044   -0.0079    0.0004    0.0022   -0.0001   -0.0175
   103 N2     4pz       -0.0018   -0.0013    0.0025   -0.0032   -0.0017   -0.0012    0.0004    0.0012    0.0011   -0.0034
   104 N2     3d2-      -0.0020    0.0024   -0.0081   -0.0034   -0.0018    0.0086    0.0032    0.0052    0.0156    0.0020
   105 N2     3d1-       0.0005    0.0010   -0.0024   -0.0017    0.0001    0.0001    0.0000   -0.0006   -0.0009    0.0049
   106 N2     3d0       -0.0034   -0.0027    0.0152   -0.0012   -0.0030    0.0030    0.0008    0.0003   -0.0015    0.0012
   107 N2     3d1+       0.0003    0.0000   -0.0009   -0.0006   -0.0007    0.0008   -0.0004   -0.0004   -0.0000    0.0015
   108 N2     3d2+       0.0051    0.0005   -0.0033    0.0094   -0.0020   -0.0079   -0.0081    0.0183    0.0016   -0.0040
   109 N5     1s        -0.0024   -0.0410   -0.0096   -0.0023    0.0030    0.0010   -0.0032   -0.0009    0.0033   -0.0022
   110 N5     2s         0.0159    0.5669    0.1722   -0.0009   -0.1101   -0.1868    0.1737   -0.0243    0.1114   -0.1406
   111 N5     3s        -0.0036   -0.0802   -0.0170   -0.0136   -0.0041   -0.0131   -0.0017   -0.0045    0.0153   -0.0114
   112 N5     4s        -0.0004   -0.0260   -0.0067   -0.0042   -0.0011   -0.0011   -0.0021   -0.0003    0.0012   -0.0007
   113 N5     2px       -0.0025    0.0113   -0.0163   -0.0734   -0.0789   -0.0285   -0.1623   -0.0783    0.0616    0.1198
   114 N5     3px       -0.0042    0.0191   -0.0113    0.0077    0.0327    0.0273    0.0492    0.0091   -0.0136   -0.0209
   115 N5     4px       -0.0015   -0.0005   -0.0028   -0.0049    0.0023    0.0032    0.0002   -0.0010   -0.0016   -0.0027
   116 N5     2py       -0.0120   -0.0004    0.0161    0.0451    0.0480    0.0469   -0.3215   -0.1992    0.2471   -0.2132
   117 N5     3py       -0.0148   -0.0458   -0.0004   -0.0262   -0.0431   -0.0512    0.0674    0.0189   -0.0520    0.0187
   118 N5     4py       -0.0043   -0.0120    0.0014   -0.0062   -0.0006   -0.0057   -0.0078   -0.0025   -0.0008    0.0011
   119 N5     2pz       -0.0164   -0.0280    0.0242    0.1195    0.1623    0.0814    0.1872    0.0774   -0.0368   -0.2880
   120 N5     3pz       -0.0203    0.0002    0.0262   -0.0518   -0.0539   -0.0560   -0.0441   -0.0150   -0.0117    0.0539
   121 N5     4pz       -0.0032    0.0015    0.0051    0.0002    0.0018   -0.0041   -0.0007   -0.0000   -0.0012    0.0066
   122 N5     3d2-      -0.0001    0.0018    0.0010   -0.0042   -0.0067   -0.0070    0.0014    0.0005   -0.0036    0.0079
   123 N5     3d1-       0.0003    0.0014    0.0003    0.0061    0.0106    0.0078    0.0124    0.0067   -0.0013   -0.0104
   124 N5     3d0        0.0010    0.0093    0.0012   -0.0027   -0.0026    0.0016   -0.0122   -0.0042    0.0055    0.0033
   125 N5     3d1+      -0.0003   -0.0157   -0.0041    0.0005    0.0015    0.0005    0.0062    0.0031   -0.0038    0.0006
   126 N5     3d2+       0.0004   -0.0051   -0.0025   -0.0022   -0.0010    0.0042   -0.0090   -0.0023    0.0008    0.0021
   127 O7     1s        -0.0237    0.0020   -0.0047   -0.0019    0.0025   -0.0014    0.0026   -0.0099   -0.0057    0.0049
   128 O7     2s         0.6693   -0.1189    0.3150   -0.1575    0.1398   -0.0253    0.0809   -0.2920   -0.1364    0.0880
   129 O7     3s        -0.0288   -0.0014    0.0054   -0.0132    0.0135   -0.0063    0.0094   -0.0354   -0.0186    0.0149
   130 O7     4s        -0.0124    0.0006   -0.0012   -0.0022    0.0024   -0.0016    0.0015   -0.0069   -0.0038    0.0029
   131 O7     2px        0.0915   -0.0043    0.0053   -0.0008    0.0128   -0.0259   -0.0485    0.1404    0.0844   -0.0327
   132 O7     3px       -0.0251    0.0066   -0.0051   -0.0072    0.0059    0.0063    0.0023   -0.0200   -0.0098    0.0004
   133 O7     4px       -0.0012    0.0013   -0.0009   -0.0015    0.0004    0.0024   -0.0001   -0.0023   -0.0003   -0.0006
   134 O7     2py       -0.1091    0.0239   -0.0485   -0.0120    0.0197   -0.0210    0.0106   -0.0838   -0.0810    0.0832
   135 O7     3py        0.0375    0.0036    0.0011    0.0069   -0.0089    0.0041   -0.0058    0.0170    0.0066   -0.0095
   136 O7     4py        0.0008    0.0020    0.0008   -0.0011   -0.0001    0.0021   -0.0005    0.0014    0.0009   -0.0009
   137 O7     2pz       -0.0140    0.0057   -0.0009   -0.0107    0.0058    0.0022    0.0017   -0.0160   -0.0113    0.0093
   138 O7     3pz        0.0017    0.0032    0.0004   -0.0011    0.0016    0.0067   -0.0038   -0.0016    0.0006   -0.0021
   139 O7     4pz       -0.0006    0.0008    0.0001   -0.0002    0.0008    0.0021   -0.0014   -0.0003    0.0004   -0.0005
   140 O7     3d2-      -0.0177    0.0024   -0.0048    0.0006   -0.0018    0.0014    0.0024   -0.0082   -0.0056    0.0035
   141 O7     3d1-       0.0018   -0.0002    0.0009    0.0002   -0.0003    0.0003   -0.0001    0.0004    0.0007   -0.0008
   142 O7     3d0       -0.0101    0.0017   -0.0044    0.0016   -0.0010   -0.0006    0.0008   -0.0028   -0.0031    0.0019
   143 O7     3d1+      -0.0013    0.0006    0.0000   -0.0004    0.0001    0.0000    0.0003   -0.0008   -0.0008    0.0008
   144 O7     3d2+      -0.0041    0.0015   -0.0045   -0.0004    0.0029   -0.0044   -0.0020    0.0032    0.0000    0.0032
   145 O8     1s         0.0009    0.0025    0.0008    0.0031    0.0029   -0.0023    0.0136    0.0005    0.0162    0.0131
   146 O8     2s        -0.0635   -0.3067   -0.0115    0.1781    0.1049   -0.0847    0.3499    0.0192    0.2693    0.2226
   147 O8     3s        -0.0012   -0.0089    0.0010    0.0140    0.0105   -0.0096    0.0432    0.0010    0.0463    0.0373
   148 O8     4s         0.0003    0.0002   -0.0001    0.0020    0.0014   -0.0020    0.0083    0.0001    0.0095    0.0080
   149 O8     2px        0.0022    0.0007   -0.0055   -0.0065    0.0078    0.0129    0.0571    0.0359    0.0297    0.0691
[...]
AIVX     1  Mu1.0001  In1.022 Se1.046               0.18021674      0.00186131     -0.00345149     -0.00000642
AIVX     1  Mu1.0001  In1.023 Se1.046               0.27730054     -0.00060257      0.00103031     -0.00000062
AIVX     1  Mu1.0001  In1.024 Se1.046               0.24851857     -0.00142928      0.00230276     -0.00000329
AIVX     1  Mu1.0001  In1.025 Se1.046               0.26389668     -0.00026682      0.00044261     -0.00000012
AIVX     1  Mu1.0001  In1.026 Se1.046               0.24206192      0.00046018     -0.00079555     -0.00000037
AIVX     1  Mu1.0001  In1.027 Se1.046               0.10347511      0.00259123     -0.00555454     -0.00001439
AIVX     1  Mu1.0001  In1.028 Se1.046               0.13095323      0.00016662     -0.00046557     -0.00000008
AIVX     1  Mu1.0001  In1.029 Se1.046               0.11764860      0.00099945     -0.00204745     -0.00000205
AIVX     1  Mu1.0001  In1.022 Se1.047               0.19060226      0.00035145     -0.00076358     -0.00000027
AIVX     1  Mu1.0001  In1.023 Se1.047               0.28768607      0.00024968     -0.00043644     -0.00000011
AIVX     1  Mu1.0001  In1.024 Se1.047               0.25890409     -0.00111062      0.00198128     -0.00000220
AIVX     1  Mu1.0001  In1.025 Se1.047               0.27428220      0.00002303      0.00001719      0.00000000
AIVX     1  Mu1.0001  In1.026 Se1.047               0.25244744     -0.00053271      0.00086764     -0.00000046
AIVX     1  Mu1.0001  In1.027 Se1.047               0.11386063      0.00152032     -0.00306951     -0.00000467
AIVX     1  Mu1.0001  In1.028 Se1.047               0.14133875     -0.00046910      0.00120373     -0.00000056
AIVX     1  Mu1.0001  In1.029 Se1.047               0.12803412      0.00001736      0.00001373      0.00000000
AIVX     1  Mu1.0001  In1.022 Se1.048               0.20894344      0.00067557     -0.00107899     -0.00000073
AIVX     1  Mu1.0001  In1.024 Se1.048               0.27724527     -0.00041738      0.00146765     -0.00000061
AIVX     1  Mu1.0001  In1.025 Se1.048               0.29262338      0.00090876     -0.00064818     -0.00000059
AIVX     1  Mu1.0001  In1.026 Se1.048               0.27078862     -0.00062219      0.00103948     -0.00000065
AIVX     1  Mu1.0001  In1.027 Se1.048               0.13220181      0.00030910      0.00001769      0.00000001
AIVX     1  Mu1.0001  In1.028 Se1.048               0.15967993     -0.00030411      0.00117863     -0.00000036
AIVX     1  Mu1.0001  In1.029 Se1.048               0.14637530     -0.00060380      0.00111998     -0.00000068
AIVX     1  Mu1.0001  In1.022 Se1.049               0.21451035      0.00179389     -0.00322079     -0.00000578
AIVX     1  Mu1.0001  In1.024 Se1.049               0.28281218      0.00105555     -0.00219161     -0.00000231
AIVX     1  Mu1.0001  In1.025 Se1.049               0.29819029     -0.00151253      0.00201160     -0.00000304
AIVX     1  Mu1.0001  In1.026 Se1.049               0.27635553      0.00120158     -0.00205447     -0.00000247
AIVX     1  Mu1.0001  In1.027 Se1.049               0.13776872      0.00053754     -0.00139737     -0.00000075
AIVX     1  Mu1.0001  In1.028 Se1.049               0.16524684      0.00029627     -0.00120330     -0.00000036
AIVX     1  Mu1.0001  In1.029 Se1.049               0.15194221     -0.00023214      0.00061021     -0.00000014
AIVX     1  Mu1.0001  In1.022 Se1.050               0.22987260      0.00230688     -0.00407764     -0.00000941
AIVX     1  Mu1.0001  In1.024 Se1.050               0.29817444     -0.00054418      0.00023437     -0.00000013
AIVX     1  Mu1.0001  In1.026 Se1.050               0.29171779      0.00081151     -0.00111603     -0.00000091
AIVX     1  Mu1.0001  In1.027 Se1.050               0.15313097      0.00084538     -0.00208016     -0.00000176
AIVX     1  Mu1.0001  In1.028 Se1.050               0.18060909     -0.00081408      0.00186501     -0.00000152
AIVX     1  Mu1.0001  In1.029 Se1.050               0.16730447      0.00102543     -0.00190484     -0.00000195
AIVX     1  Mu1.0001  In1.022 Se1.051               0.22182295      0.00003837     -0.00017398     -0.00000001
AIVX     1  Mu1.0001  In1.024 Se1.051               0.29012479      0.00040530     -0.00102712     -0.00000042
AIVX     1  Mu1.0001  In1.026 Se1.051               0.28366814      0.00140671     -0.00226508     -0.00000319
AIVX     1  Mu1.0001  In1.027 Se1.051               0.14508132     -0.00034257      0.00036262     -0.00000012
AIVX     1  Mu1.0001  In1.028 Se1.051               0.17255944     -0.00018109      0.00030977     -0.00000006
AIVX     1  Mu1.0001  In1.029 Se1.051               0.15925482      0.00061620     -0.00114045     -0.00000070
AIVX     1  Mu1.0001  In1.022 Se1.052               0.26064386     -0.00053477      0.00102306     -0.00000055
AIVX     1  Mu1.0001  In1.027 Se1.052               0.18390223     -0.00189496      0.00297425     -0.00000564
AIVX     1  Mu1.0001  In1.028 Se1.052               0.21138035     -0.00026325      0.00039421     -0.00000010
AIVX     1  Mu1.0001  In1.029 Se1.052               0.19807572      0.00055214     -0.00094690     -0.00000052
AIVX     1  Mu1.0001  In1.022 Se1.053               0.28142429     -0.00116666      0.00158019     -0.00000184
AIVX     1  Mu1.0001  In1.027 Se1.053               0.20468266     -0.00070732      0.00101387     -0.00000072
AIVX     1  Mu1.0001  In1.028 Se1.053               0.23216078     -0.00027738      0.00070377     -0.00000020
AIVX     1  Mu1.0001  In1.029 Se1.053               0.21885615     -0.00164441      0.00290915     -0.00000478
AIVX     1  Mu1.0001  In1.022 Se1.054               0.29569461     -0.00063782      0.00096508     -0.00000062
AIVX     1  Mu1.0001  In1.027 Se1.054               0.21895298      0.00032570     -0.00052501     -0.00000017
AIVX     1  Mu1.0001  In1.028 Se1.054               0.24643110     -0.00038050      0.00088643     -0.00000034
AIVX     1  Mu1.0001  In1.029 Se1.054               0.23312647     -0.00011954      0.00026681     -0.00000003
AIVX     1  Mu1.0001  In1.027 Se1.055               0.23933085      0.00037724     -0.00043581     -0.00000016
AIVX     1  Mu1.0001  In1.028 Se1.055               0.26680897      0.00125878     -0.00232937     -0.00000293
AIVX     1  Mu1.0001  In1.029 Se1.055               0.25350434     -0.00115813      0.00168331     -0.00000195
AIVX     1  Mu1.0001  In1.027 Se1.056               0.23155741      0.00081623     -0.00186685     -0.00000152
AIVX     1  Mu1.0001  In1.028 Se1.056               0.25903553     -0.00172834      0.00317802     -0.00000549
AIVX     1  Mu1.0001  In1.029 Se1.056               0.24573090     -0.00060486      0.00116904     -0.00000071
AIVX     1  Mu1.0001  In1.027 Se1.057               0.26319717      0.00153775     -0.00208241     -0.00000320
AIVX     1  Mu1.0001  In1.028 Se1.057               0.29067529     -0.00091324      0.00154475     -0.00000141
AIVX     1  Mu1.0001  In1.029 Se1.057               0.27737067      0.00026453     -0.00074145     -0.00000020
AIVX     1  Mu1.0001  In1.027 Se1.058               0.25855768      0.00051725     -0.00094568     -0.00000049
AIVX     1  Mu1.0001  In1.028 Se1.058               0.28603580     -0.00049300      0.00073160     -0.00000036
AIVX     1  Mu1.0001  In1.029 Se1.058               0.27273118      0.00137595     -0.00224479     -0.00000309
AIVX     1  Mu1.0001  In1.027 Se1.059               0.28041980      0.00097744     -0.00133118     -0.00000130
AIVX     1  Mu1.0001  In1.029 Se1.059               0.29459330     -0.00007477      0.00018542     -0.00000001
AIVX     1  Mu1.0001  In1.027 Se1.060               0.28694387      0.00079392     -0.00089544     -0.00000071
--
 
   (Skipping property calculation,
    use PROP keyword to activate)
--
 
  Total CASPT2 energies:
::    CASPT2 Root  1     Total energy:   -455.37673650
::    CASPT2 Root  2     Total energy:   -455.16306416
::    CASPT2 Root  3     Total energy:   -455.17188346
::    CASPT2 Root  4     Total energy:   -455.12642315
::    CASPT2 Root  5     Total energy:   -455.11963861
::    CASPT2 Root  6     Total energy:   -455.10955107
::    CASPT2 Root  7     Total energy:   -455.07686988
 
++ Multi-State CASPT2 section:
********************************************************************************
  MULTI-STATE CASPT2 SECTION
--------------------------------------------------------------------------------
 
  Output diagonal energies have been shifted. Add   -455.000000000000     
 
  Effective Hamiltonian matrix (Symmetric):
 
                1               2               3               4               5
   1        -0.37673650
   2         0.00038659     -0.16306416
   3        -0.00005134     -0.00095062     -0.17188346
   4         0.01139007      0.00035461     -0.00092274     -0.12642315
   5        -0.01771296     -0.00043911     -0.00172521      0.00289744     -0.11963861
   6         0.01116180     -0.00077482     -0.00217828      0.00317392      0.02075665
   7        -0.00947578      0.00086945     -0.00007891      0.00979000     -0.00672431
 
                6               7
   6        -0.10955107
   7         0.00065498     -0.07686988
 
       Total MS-CASPT2 energies:
::    MS-CASPT2 Root  1     Total energy:   -455.37941380
::    MS-CASPT2 Root  2     Total energy:   -455.17209976
::    MS-CASPT2 Root  3     Total energy:   -455.16298049
::    MS-CASPT2 Root  4     Total energy:   -455.13457641
::    MS-CASPT2 Root  5     Total energy:   -455.12824251
::    MS-CASPT2 Root  6     Total energy:   -455.09285928
::    MS-CASPT2 Root  7     Total energy:   -455.07399459
 
       Eigenvectors:
            0.99458815      0.00048505      0.00199108     -0.08969113      0.04922953
           -0.00185642      0.10735777      0.99404299      0.00568382      0.00982173
            0.00016481      0.99346522     -0.10754427     -0.00035228     -0.01187514
           -0.04635956      0.01588422     -0.01164714     -0.02040975      0.97180992
            0.07292012      0.02180476      0.00131144      0.78301309     -0.05152467
           -0.04628807      0.02780333      0.00990238     -0.60898476     -0.13182115
            0.03437729     -0.00039328     -0.00856498      0.08680197     -0.18136383
 
           -0.00416438     -0.01745919
           -0.00956046      0.01136718
           -0.03629066      0.00170632
            0.15910950      0.16527526
            0.59532610     -0.15500978
            0.77762022     -0.06367005
            0.11896233      0.97168165
 
--
 
  THE ORIGINAL CI ARRAYS ARE NOW MIXED AS LINEAR
  COMBINATIONS, GIVEN BY THE EIGENVECTORS.
  A NEW JOBIPH FILE NAMED 'JOBMIX' IS PREPARED.
********************************************************************************
 
++ Mixed CI coefficients:
  The CI coefficients for the MIXED state nr.   1
--------------------------------------------------------------------------------
 CI COEFFICIENTS LARGER THAN  0.50D-01
  Occupation of active orbitals, and spin coupling
  of open shells. (u,d: Spin up or down).
  SGUGA info is (Midvert:IsyUp:UpperWalk/LowerWalk)
        Conf  SGUGA info        Occupation    Coefficient         Weight
           1  ( 1:1:   1/   1)   22222200       -0.961629       0.924730
           6  ( 1:1:   6/   1)   22220220        0.106280       0.011295
          41  ( 2:1:   1/   2)   22u222d0       -0.100427       0.010085
          61  ( 2:1:   1/   3)   2u2222d0        0.090767       0.008239
          84  ( 2:1:   4/   4)   u222220d       -0.116865       0.013657
         105  ( 3:1:   5/   1)   22202202        0.070975       0.005037
         171  ( 3:1:   1/   8)   20222220        0.082848       0.006864
         195  ( 3:1:   5/  10)   02222202        0.075494       0.005699
 
  The CI coefficients for the MIXED state nr.   2
--------------------------------------------------------------------------------
 CI COEFFICIENTS LARGER THAN  0.50D-01
  Occupation of active orbitals, and spin coupling
  of open shells. (u,d: Spin up or down).
  SGUGA info is (Midvert:IsyUp:UpperWalk/LowerWalk)
        Conf  SGUGA info        Occupation    Coefficient         Weight
          24  ( 2:1:   4/   1)   222u220d       -0.449172       0.201756
          44  ( 2:1:   4/   2)   22u2220d       -0.833203       0.694227
          46  ( 2:1:   6/   2)   22u2d2ud       -0.056032       0.003140
          48  ( 2:1:   8/   2)   22u2u2dd       -0.077663       0.006032
          52  ( 2:1:  12/   2)   22u2022d        0.080625       0.006500
         105  ( 3:1:   5/   1)   22202202        0.104007       0.010817
         115  ( 3:1:   5/   2)   22ud2202        0.087082       0.007583
         135  ( 3:1:   5/   4)   u22d2202        0.060673       0.003681
         142  ( 3:1:   2/   5)   220222ud       -0.067558       0.004564
         145  ( 3:1:   5/   5)   22022202       -0.102612       0.010529
         165  ( 3:1:   5/   7)   u2d22202        0.112150       0.012578
         219  ( 4:1:   1/   4)   2uu222dd       -0.071401       0.005098
         221  ( 4:1:   3/   4)   2uu2d22d        0.050595       0.002560
         293  ( 5:1:   1/  15)   20u2222d       -0.079308       0.006290
 
  The CI coefficients for the MIXED state nr.   3
--------------------------------------------------------------------------------
 CI COEFFICIENTS LARGER THAN  0.50D-01
  Occupation of active orbitals, and spin coupling
  of open shells. (u,d: Spin up or down).
  SGUGA info is (Midvert:IsyUp:UpperWalk/LowerWalk)
        Conf  SGUGA info        Occupation    Coefficient         Weight
           2  ( 1:1:   2/   1)   22222ud0       -0.951056       0.904507
           3  ( 1:1:   3/   1)   2222u2d0       -0.066854       0.004469
           5  ( 1:1:   5/   1)   2222ud20        0.127241       0.016190
           7  ( 1:1:   7/   1)   22222u0d       -0.070341       0.004948
          42  ( 2:1:   2/   2)   22u22d20       -0.053728       0.002887
          62  ( 2:1:   2/   3)   2u222d20       -0.166751       0.027806
          85  ( 2:1:   5/   4)   u2222dud       -0.059168       0.003501
          87  ( 2:1:   7/   4)   u2222udd       -0.097810       0.009567
         106  ( 3:1:   6/   1)   22202ud2        0.070012       0.004902
         136  ( 3:1:   6/   4)   u22d2ud2        0.051604       0.002663
         196  ( 3:1:   6/  10)   02222ud2        0.078666       0.006188
 
  The CI coefficients for the MIXED state nr.   4
--------------------------------------------------------------------------------
 CI COEFFICIENTS LARGER THAN  0.50D-01
  Occupation of active orbitals, and spin coupling
  of open shells. (u,d: Spin up or down).
  SGUGA info is (Midvert:IsyUp:UpperWalk/LowerWalk)
        Conf  SGUGA info        Occupation    Coefficient         Weight
           2  ( 1:1:   2/   1)   22222ud0       -0.064097       0.004108
           3  ( 1:1:   3/   1)   2222u2d0        0.913765       0.834966
           6  ( 1:1:   6/   1)   22220220        0.155995       0.024334
           8  ( 1:1:   8/   1)   2222u20d        0.108879       0.011855
          41  ( 2:1:   1/   2)   22u222d0       -0.095720       0.009162
          61  ( 2:1:   1/   3)   2u2222d0        0.064572       0.004170
          63  ( 2:1:   3/   3)   2u22d220        0.241390       0.058269
          86  ( 2:1:   6/   4)   u222d2ud        0.059559       0.003547
          88  ( 2:1:   8/   4)   u222u2dd        0.100896       0.010180
         107  ( 3:1:   7/   1)   2220u2d2       -0.067887       0.004609
         171  ( 3:1:   1/   8)   20222220       -0.102893       0.010587
         197  ( 3:1:   7/  10)   0222u2d2       -0.073955       0.005469
 
  The CI coefficients for the MIXED state nr.   5
--------------------------------------------------------------------------------
 CI COEFFICIENTS LARGER THAN  0.50D-01
  Occupation of active orbitals, and spin coupling
  of open shells. (u,d: Spin up or down).
  SGUGA info is (Midvert:IsyUp:UpperWalk/LowerWalk)
        Conf  SGUGA info        Occupation    Coefficient         Weight
           7  ( 1:1:   7/   1)   22222u0d        0.262515       0.068914
           8  ( 1:1:   8/   1)   2222u20d        0.321327       0.103251
          24  ( 2:1:   4/   1)   222u220d       -0.741677       0.550085
          26  ( 2:1:   6/   1)   222ud2ud       -0.054586       0.002980
          28  ( 2:1:   8/   1)   222uu2dd       -0.077494       0.006005
          32  ( 2:1:  12/   1)   222u022d        0.075159       0.005649
          41  ( 2:1:   1/   2)   22u222d0       -0.064190       0.004120
          44  ( 2:1:   4/   2)   22u2220d        0.399262       0.159410
          84  ( 2:1:   4/   4)   u222220d        0.072348       0.005234
         135  ( 3:1:   5/   4)   u22d2202        0.177627       0.031551
         165  ( 3:1:   5/   7)   u2d22202       -0.093070       0.008662
         195  ( 3:1:   5/  10)   02222202        0.063720       0.004060
         201  ( 4:1:   1/   1)   22uu22dd        0.052873       0.002796
         207  ( 4:1:   1/   2)   2u2u22dd       -0.061890       0.003830
         261  ( 5:1:   1/   7)   202u222d       -0.070543       0.004976
 
  The CI coefficients for the MIXED state nr.   6
--------------------------------------------------------------------------------
 CI COEFFICIENTS LARGER THAN  0.50D-01
  Occupation of active orbitals, and spin coupling
  of open shells. (u,d: Spin up or down).
  SGUGA info is (Midvert:IsyUp:UpperWalk/LowerWalk)
        Conf  SGUGA info        Occupation    Coefficient         Weight
           3  ( 1:1:   3/   1)   2222u2d0       -0.097918       0.009588
           7  ( 1:1:   7/   1)   22222u0d       -0.099582       0.009917
           8  ( 1:1:   8/   1)   2222u20d        0.886002       0.785000
          24  ( 2:1:   4/   1)   222u220d        0.279295       0.078006
          44  ( 2:1:   4/   2)   22u2220d       -0.119997       0.014399
          46  ( 2:1:   6/   2)   22u2d2ud       -0.137003       0.018770
          66  ( 2:1:   6/   3)   2u22d2ud        0.142292       0.020247
          68  ( 2:1:   8/   3)   2u22u2dd        0.156712       0.024559
         174  ( 3:1:   4/   8)   2022u22d        0.114558       0.013124
 
  The CI coefficients for the MIXED state nr.   7
--------------------------------------------------------------------------------
 CI COEFFICIENTS LARGER THAN  0.50D-01
  Occupation of active orbitals, and spin coupling
  of open shells. (u,d: Spin up or down).
  SGUGA info is (Midvert:IsyUp:UpperWalk/LowerWalk)
        Conf  SGUGA info        Occupation    Coefficient         Weight
           2  ( 1:1:   2/   1)   22222ud0       -0.065256       0.004258
           7  ( 1:1:   7/   1)   22222u0d        0.866352       0.750565
          10  ( 1:1:  10/   1)   2222udud       -0.168802       0.028494
          12  ( 1:1:  12/   1)   2222uudd        0.246635       0.060829
          24  ( 2:1:   4/   1)   222u220d        0.226259       0.051193
          27  ( 2:1:   7/   1)   222u2udd        0.054151       0.002932
          44  ( 2:1:   4/   2)   22u2220d       -0.154647       0.023916
          45  ( 2:1:   5/   2)   22u22dud       -0.139277       0.019398
          47  ( 2:1:   7/   2)   22u22udd        0.159119       0.025319
          70  ( 2:1:  10/   3)   2u22du2d        0.061738       0.003812
          93  ( 2:1:  13/   4)   u2222d02       -0.051698       0.002673
         135  ( 3:1:   5/   4)   u22d2202       -0.050929       0.002594
         173  ( 3:1:   3/   8)   20222u2d        0.071187       0.005068
 
--
 
--- Stop Module: caspt2 at Tue Jun 10 22:26:30 2025 /rc=_RC_ALL_IS_WELL_ ---
*** files: xmldump
    saved to directory /home/pcaah4/diamide_project
--- Module caspt2 spent 6 minutes 46 seconds ---

.##################.
.# Happy landing! #.
.##################.

    Timing: Wall=674.35 User=588.43 System=76.86
******************************************************
*** WorkDir at /srv/COMMUNAL_SCRATCH/12497 cleaned ***
******************************************************
