   This run of MOLCAS is using the pymolcas driver

                             OPE
                             OPE          NMOL  CASOP  ENMOLC A   SO
                 OPE        NMOLC        AS  OP EN  MO LC     AS  OP
                OPENM       OL CA        SO  PE NM  OL CA     SOP EN
                OP EN      MO   LC       AS  OP ENMOL  CASO   PENMOL
                OP  EN     MO   LC       AS  OP EN     MO     LC ASO
               OP   E  NMOL  C  AS       OP  EN MO     LC     AS  OP
               OP  E   NMO   LC AS        OPEN  MO     LCASOP EN   M
               O  PEN   MO  LCA  SO
            OPE   NMO   L   CAS    OP
        OPENMOL  CASOP     ENMOL   CASOPE
     OPENMOLCA   SOPENMOLCASOPEN   MOLCASOPE
    OPENMOLCAS   OP           EN   MOL    CAS
    OPENMOLCAS       OP  ENM        O     LCA
    OPENMOLCAS    OPEN  MOLCASO     P  E  NMO
    OPENMOLCAS     OP               E  N  MOL
    OPENMOLCA   SO           PENM   O  L  CAS    OPEN    MO    LCAS
    OPENMOLCA   SOP           ENM   O  L  CAS   OP  EN  MOLC  AS   O
    OPENMOLCA   SOPE           NM      O  LCA   S      OP  EN MO
    OPENMOLC                AS         O  PEN   M      OL  CA  SOPE
    OPENMO        LCASOPE  NMOL        C  ASO   P      ENMOLC     AS
    OPE     NMO      LCA  SO     P     E   NM   OL  CA SO  PE N   MO
          OPENMOLCA            SOPE   NMO        LCAS  O    P  ENMO
     OPENMOLCASOPENMOLCASOPENMOLCASOPENMOLCA
        OPENMOLCASOPENMOLCASOPENMOLCASOPE
            OPENMOLCASOPENMOLCASOPENM
               OPENMOLCASOPENMOLCA        version: v23.06
                   OPENMOLCASO
                       OPE                tag:

 OpenMolcas is free software; you can redistribute it and/or modify it
 under the terms of the GNU Lesser General Public License version 2.1.
 OpenMolcas is distributed in the hope that it will be useful, but it
 is provided "as is" and without any express or implied warranties.
 For more details see the full text of the license in the file
 LICENSE or in <http://www.gnu.org/licenses/>.

                 Copyright (C) The OpenMolcas Authors
           For the author list and the recommended citation,
                   consult the file CONTRIBUTORS.md

           *************************************************
           * pymolcas version py2.24                       *
           *   build 4567b286dd94b1984b333a4ddf893180      *
           *   (after the EMIL interpreter by V. Veryazov) *
           *************************************************

configuration info
------------------
Host name: loginchem01.nottingham.ac.uk (Linux)
C Compiler ID: Intel
C flags: -std=gnu99 -gcc-sys -qopenmp
Fortran Compiler ID: Intel
Fortran flags: -fpp -i8 -heap-arrays -qopenmp
Definitions: _MOLCAS_;_I8_;_LINUX_
Parallel: OFF (GA=OFF)


   ----------------------------------------------------------------------------------------------------
  |
  |              Project: orca_geometry_optimisation_285_175_BP86_def2-SVP_def2J_scf_cas1_ras12i11_cas8
  |       Submitted from: /home/pcaah4/diamide_project
  |         Scratch area: /srv/COMMUNAL_SCRATCH/12440
  |      Save outputs to: /home/pcaah4/diamide_project
  |               Molcas: /software/chemistry/openmolcas/openmolcas-23.06-openmp
  |
  | Scratch area is empty
  |
  |       MOLCAS_DRIVER = /software/chemistry/openmolcas/openmolcas-23.06-openmp/sbin/pymolcas
  | MOLCAS_KEEP_WORKDIR = NO
  |       MOLCAS_NPROCS = 1
  |       MOLCAS_SOURCE = /software/chemistry/openmolcas/openmolcas-23.06-openmp
  |    MOLCAS_STRUCTURE = 0
  |
   ----------------------------------------------------------------------------------------------------

++ ---------   Input file   ---------

&SEWARD
TITLE
orca_geometry_optimisation_285_175_BP86_def2-SVP_def2J_scf_cas1_ras12i11
MULTIPOLES
2
SDIPOLE
ANGMOM
0 0 0
BASIS SET
C.ANO-S...4S3P1D.
C1            0.063282   -0.026563    0.245980 /Angstrom
C3            2.121448    1.253202    0.048569 /Angstrom
C4            2.009054    1.809475   -1.393305 /Angstrom
C6            2.523941    3.763313   -2.826811 /Angstrom
C19          -0.581237   -1.372847   -0.053664 /Angstrom
END OF BASIS
BASIS SET
N.ANO-S...4S3P1D.
N2            1.453064   -0.018887    0.192516 /Angstrom
N5            2.534562    3.065344   -1.554205 /Angstrom
END OF BASIS
BASIS SET
O.ANO-S...4S3P1D.
O7           -0.580399    0.977867    0.534373 /Angstrom
O8            1.524983    1.146702   -2.308184 /Angstrom
END OF BASIS
BASIS SET
H.ANO-S...2S1P.
H9           -0.740584   -1.455859   -1.149268 /Angstrom
H10          -1.567400   -1.417465    0.442896 /Angstrom
H11           0.042700   -2.229630    0.271085 /Angstrom
H12           1.877704   -0.794392   -0.322467 /Angstrom
H13           1.642042    1.967296    0.750025 /Angstrom
H14           3.191653    1.158359    0.331606 /Angstrom
H15           2.864763    3.562465   -0.725222 /Angstrom
H16           2.103740    3.066490   -3.576558 /Angstrom
H17           1.889074    4.674735   -2.793993 /Angstrom
H18           3.547876    4.057558   -3.141742 /Angstrom
END OF BASIS
END OF INPUT

&RASSCF
TITLE
orca_geometry_optimisation_285_175_BP86_def2-SVP_def2J_scf_cas1_ras12i11
LUMORB
SPIN
1
SYMMETRY
1
NACTEL
12  0  0
INACTIVE
29
DELETED  ! delete Rydberg orbitals from an initial CAS(12,11) if done
3
FROZEN
0
RAS2
8
ITERATIONS
64 25
CIROOT
7 7
1 2 3 4 5 6 7
1 1 1 1 1 1 1
LEVSHFT
0.3
CIMX
20
FILEorb = /home/pcaah4/diamide_project/cas/ras12i11/ras_orb/orca_geometry_optimisation_285_175_BP86_def2-SVP_def2J_scf_cas1_ras12i11.RasOrb
ALTEr
2
 1 36 38
 1 37 39
END OF INPUT

&RASSI
NROF JOBIPH
    1 7
    1 2 3 5 4 6 7
TOFILE
TRDI
TDMN
1.0D-6
END OF INPUT

&CASPT2
TITLE
orca_geometry_optimisation_285_175_BP86_def2-SVP_def2J_scf_cas1_ras12i11
MULTISTATE
7 1 2 3 4 5 6 7
SHIFT
0.35
MAXITER
50
END OF INPUT

-- ----------------------------------

--- Start Module: seward at Tue Jun 10 19:57:10 2025 ---
 
()()()()()()()()()()()()()()()()()()()()()()()()()()()()()()()()()()()()()()()()()()()()()()()()()()

                                              &SEWARD

                                   only a single process is used
                       available to each process: 2.0 GB of memory, 1 thread
                                            pid: 3125770
()()()()()()()()()()()()()()()()()()()()()()()()()()()()()()()()()()()()()()()()()()()()()()()()()()
 
               SEWARD will generate:
                  Multipole Moment integrals up to order  2
                  Kinetic Energy integrals
                  Nuclear Attraction integrals (point charge)
                  One-Electron Hamiltonian integrals
                  Velocity integrals
                  Orbital angular momentum around ( 0.0000  0.0000  0.0000 )
                  Velocity quadrupole around ( 2.3180  2.2438 -1.5281 )
                  Two-Electron Repulsion integrals
 
 Title:
            orca_geometry_optimisation_285_175_BP86_def2-SVP_def2J_scf_cas1_ras12i11    
 
 
                   Integrals are discarded if absolute value <: 0.10E-13
                   Integral cutoff threshold is set to       <: 0.10E-15
 
++    Symmetry information:
      ---------------------
 
                    Character Table for C1 
 
                             E  
                    a        1  x, y, xy, Rz, z, xz, Ry, yz, Rx, I
--
 
 
++    Basis set information:
      ----------------------
 
 
      Basis set label: C.ANO-S...4S3P1D......
 
      Electronic valence basis set:
      ------------------
      Associated Effective Charge   6.000000 au
      Associated Actual Charge      6.000000 au
      Nuclear Model: Point charge
 
      Shell  nPrim  nBasis  Cartesian Spherical Contaminant
         s      10       4        X                  
         p       6       3        X                  
         d       3       1                 X         
 
 
      Basis set label: N.ANO-S...4S3P1D......
 
      Electronic valence basis set:
      ------------------
      Associated Effective Charge   7.000000 au
      Associated Actual Charge      7.000000 au
      Nuclear Model: Point charge
 
      Shell  nPrim  nBasis  Cartesian Spherical Contaminant
         s      10       4        X                  
         p       6       3        X                  
         d       3       1                 X         
 
 
      Basis set label: O.ANO-S...4S3P1D......
 
      Electronic valence basis set:
      ------------------
      Associated Effective Charge   8.000000 au
      Associated Actual Charge      8.000000 au
      Nuclear Model: Point charge
 
      Shell  nPrim  nBasis  Cartesian Spherical Contaminant
         s      10       4        X                  
         p       6       3        X                  
         d       3       1                 X         
 
 
      Basis set label: H.ANO-S...2S1P......
 
      Electronic valence basis set:
      ------------------
      Associated Effective Charge   1.000000 au
      Associated Actual Charge      1.000000 au
      Nuclear Model: Point charge
 
      Shell  nPrim  nBasis  Cartesian Spherical Contaminant
         s       7       2        X                  
         p       3       1        X                  
--
 
 
++    Molecular structure info:
      -------------------------
 
                    ************************************************ 
                    **** Cartesian Coordinates / Bohr, Angstrom **** 
                    ************************************************ 
 
     Center  Label                x              y              z                     x              y              z
        1      C1               0.119586      -0.050197       0.464835              0.063282      -0.026563       0.245980
        2      C3               4.008956       2.368209       0.091782              2.121448       1.253202       0.048569
        3      C4               3.796562       3.419412      -2.632965              2.009054       1.809475      -1.393305
        4      C6               4.769557       7.111631      -5.341899              2.523941       3.763313      -2.826811
        5      C19             -1.098379      -2.594305      -0.101410             -0.581237      -1.372847      -0.053664
        6      N2               2.745893      -0.035691       0.363803              1.453064      -0.018887       0.192516
        7      N5               4.789628       5.792661      -2.937022              2.534562       3.065344      -1.554205
        8      O7              -1.096795       1.847901       1.009819             -0.580399       0.977867       0.534373
        9      O8               2.881800       2.166953      -4.361836              1.524983       1.146702      -2.308184
       10      H9              -1.399501      -2.751175      -2.171802             -0.740584      -1.455859      -1.149268
       11      H10             -2.961957      -2.678621       0.836952             -1.567400      -1.417465       0.442896
       12      H11              0.080691      -4.213390       0.512276              0.042700      -2.229630       0.271085
       13      H12              3.548346      -1.501183      -0.609374              1.877704      -0.794392      -0.322467
       14      H13              3.103010       3.717651       1.417342              1.642042       1.967296       0.750025
       15      H14              6.031350       2.188981       0.626645              3.191653       1.158359       0.331606
       16      H15              5.413617       6.732083      -1.370471              2.864763       3.562465      -0.725222
       17      H16              3.975492       5.794826      -6.758715              2.103740       3.066490      -3.576558
       18      H17              3.569832       8.833969      -5.279882              1.889074       4.674735      -2.793993
       19      H18              6.704514       7.667673      -5.937032              3.547876       4.057558      -3.141742
 
                    ************************************************* 
                    **** InterNuclear Distances / Bohr, Angstrom **** 
                    ************************************************* 
 
     Atom centers         Bohr        Angstrom
   16 H15       7 N5      1.930274        1.021457
   13 H12       6 N2      1.933564        1.023198
   11 H10       5 C19     2.088194        1.105025
   17 H16       4 C6      2.090905        1.106459
   12 H11       5 C19     2.094816        1.108529
   14 H13       2 C3      2.097341        1.109865
   10 H9        5 C19     2.098048        1.110239
   19 H18       4 C6      2.099387        1.110948
   15 H14       2 C3      2.099590        1.111055
   18 H17       4 C6      2.099913        1.111226
    8 O7        1 C1      2.319346        1.227345
    9 O8        3 C4      2.322593        1.229063
    7 N5        3 C4      2.590548        1.370859
    6 N2        1 C1      2.628290        1.390831
    6 N2        2 C3      2.729113        1.444184
    7 N5        4 C6      2.742903        1.451482
    5 C19       1 C1      2.876901        1.522390
    3 C4        2 C3      2.928205        1.549540
   11 H10      10 H9      3.391037        1.794460
   12 H11      10 H9      3.396074        1.797125
   15 H14      14 H13     3.396647        1.797428
   18 H17      17 H16     3.404100        1.801372
   19 H18      18 H17     3.408566        1.803735
   19 H18      17 H16     3.410319        1.804663
   12 H11      11 H10     3.423250        1.811506
   13 H12       1 C1      3.875008        2.050566
   16 H15       3 C4      3.896479        2.061928
   17 H16       7 N5      3.907449        2.067733
   14 H13       6 N2      3.914723        2.071582
   13 H12       2 C3      3.959290        2.095166
   15 H14       6 N2      3.976491        2.104268
   19 H18       7 N5      4.022751        2.128748
   18 H17       7 N5      4.028207        2.131635
   16 H15       4 C6      4.041177        2.138499
   11 H10       1 C1      4.067307        2.152326
   10 H9        1 C1      4.068754        2.153092
   14 H13       3 C4      4.120066        2.180245
   15 H14       3 C4      4.139238        2.190390
   12 H11       1 C1      4.163645        2.203306
    8 O7        6 N2      4.327991        2.290274
    9 O8        7 N5      4.337702        2.295413
   17 H16       9 O8      4.483599        2.372618
   13 H12      12 H11     4.542994        2.404049
    8 O7        5 C19     4.579085        2.423148
    2 C3        1 C1      4.595112        2.431628
    9 O8        2 C3      4.598445        2.433392
   14 H13       8 O7      4.615236        2.442278
   15 H14      13 H12     4.616315        2.442849
    7 N5        2 C3      4.637885        2.454263
    6 N2        5 C19     4.641266        2.456052
    4 C6        3 C4      4.681615        2.477404
    6 N2        3 C4      4.692788        2.483316
   16 H15      14 H13     4.711434        2.493184
   17 H16       3 C4      4.764076        2.521041
   13 H12       5 C19     4.800520        2.540326
   18 H17      16 H15     4.806346        2.543409
   16 H15       2 C3      4.811929        2.546363
   19 H18      16 H15     4.836861        2.559556
   11 H10       8 O7      4.898786        2.592326
   14 H13       1 C1      4.899466        2.592686
   12 H11       6 N2      4.957672        2.623487
   16 H15      15 H14     5.000984        2.646407
   14 H13       7 N5      5.109876        2.704030
    8 O7        2 C3      5.213655        2.758948
    9 O8        6 N2      5.215531        2.759940
   15 H14       7 N5      5.218055        2.761276
   13 H12       9 O8      5.289657        2.799166
   13 H12       3 C4      5.326236        2.818523
   13 H12      10 H9      5.337120        2.824282
    9 O8        4 C6      5.382750        2.848428
   10 H9        6 N2      5.566635        2.945737
   10 H9        8 O7      5.600521        2.963668
   14 H13      13 H12     5.616238        2.971985
   17 H16      16 H15     5.655071        2.992535
--
 
 
            Nuclear Potential Energy            458.24364859 au
 
 
      Basis set specifications :
      Symmetry species         a  
      Basis functions          212
 
 
      Input file to MOLDEN was generated!
 
--- Stop Module: seward at Tue Jun 10 19:58:59 2025 /rc=_RC_ALL_IS_WELL_ ---
*** files: orca_geometry_optimisation_285_175_BP86_def2-SVP_def2J_scf_cas1_ras12i11_cas8.GssOrb
           orca_geometry_optimisation_285_175_BP86_def2-SVP_def2J_scf_cas1_ras12i11_cas8.guessorb.molden xmldump
    saved to directory /home/pcaah4/diamide_project
--- Module seward spent 1 minute 49 seconds ---

*** symbolic link created: INPORB -> orca_geometry_optimisation_285_175_BP86_def2-SVP_def2J_scf_cas1_ras12i11_cas8.GssOrb
--- Start Module: rasscf at Tue Jun 10 19:59:00 2025 ---
 
()()()()()()()()()()()()()()()()()()()()()()()()()()()()()()()()()()()()()()()()()()()()()()()()()()

                                              &RASSCF

                                   only a single process is used
                       available to each process: 2.0 GB of memory, 1 thread
                                            pid: 3125807
()()()()()()()()()()()()()()()()()()()()()()()()()()()()()()()()()()()()()()()()()()()()()()()()()()
 
 
      Header of the ONEINT file:
      --------------------------
      orca_geometry_optimisation_285_175_BP86_def2-SVP_def2J_scf_cas1_ras12i11
      Integrals generated by Gateway/Seward, Tue Jun 10 19:57:10 2025
 
 
      OrdInt status: non-squared
 
 
      Cartesian coordinates in Angstrom:
      -----------------------------------------------------
      No.  Label        X            Y            Z        
      -----------------------------------------------------
       1   C1         0.06328200  -0.02656300   0.24598000
       2   C3         2.12144800   1.25320200   0.04856900
       3   C4         2.00905400   1.80947500  -1.39330500
       4   C6         2.52394100   3.76331300  -2.82681100
       5   C19       -0.58123700  -1.37284700  -0.05366400
       6   N2         1.45306400  -0.01888700   0.19251600
       7   N5         2.53456200   3.06534400  -1.55420500
       8   O7        -0.58039900   0.97786700   0.53437300
       9   O8         1.52498300   1.14670200  -2.30818400
      10   H9        -0.74058400  -1.45585900  -1.14926800
      11   H10       -1.56740000  -1.41746500   0.44289600
      12   H11        0.04270000  -2.22963000   0.27108500
      13   H12        1.87770400  -0.79439200  -0.32246700
      14   H13        1.64204200   1.96729600   0.75002500
      15   H14        3.19165300   1.15835900   0.33160600
      16   H15        2.86476300   3.56246500  -0.72522200
      17   H16        2.10374000   3.06649000  -3.57655800
      18   H17        1.88907400   4.67473500  -2.79399300
      19   H18        3.54787600   4.05755800  -3.14174200
      -----------------------------------------------------
      Nuclear repulsion energy =  458.24364859
 
++    Wave function specifications:
      -----------------------------
 
      Number of closed shell electrons          58
      Number of electrons in active shells      12
      Max number of holes in RAS1 space          0
      Max nr of electrons in RAS3 space          0
      Number of inactive orbitals               29
      Number of active orbitals                  8
      Number of secondary orbitals             172
      Spin quantum number                      0.0
      State symmetry                             1
--
 
++    Orbital specifications:
      -----------------------
 
      Symmetry species                           1
                                                 a
      Frozen orbitals                            0
      Inactive orbitals                         29
      Active orbitals                            8
      RAS1 orbitals                              0
      RAS2 orbitals                              8
      RAS3 orbitals                              0
      Secondary orbitals                       172
      Deleted orbitals                           3
      Number of basis functions                212
--
 
++    CI expansion specifications:
      ----------------------------
 
      Number of CSFs                           336
      Number of determinants                   406
      Number of root(s) required                 7
      Root chosen for geometry opt.              7
      CI roots used                              1     2     3     4     5     6     7
      weights                                0.143 0.143 0.143 0.143 0.143 0.143 0.143
      highest root included in the CI            7
      max. size of the explicit Hamiltonian    200
--
 
++    Optimization specifications:
      ----------------------------
 
      RASSCF algorithm: Conventional
      Maximum number of macro iterations        64
      Maximum number of SX iterations           25
      Threshold for RASSCF energy            0.100E-07
      Threshold for max MO rotation          0.100E+00
      Threshold for max BLB element          0.100E-03
      Level shift parameter                  0.300E+00
      Make Quasi-Newton update
--
 
      The MO-coefficients are taken from the file:
      /home/pcaah4/diamide_project/cas/ras12i11/ras_orb/orca_geometry_optimisation_285_175_BP86_def2-SVP_def2J_scf_cas1_ras12i11.RasOrb                                                                                                                               
      Title: RASSCF average (pseudo-natural) orbitals                                      
 
      Total molecular charge    0.00
 
      Molecular orbitals exchanged:
        In symmetry  1 :  36  38
        In symmetry  1 :  37  39
 
 
      ************************************************************************************************************************
      *                                                                                                                      *
      *                                            Wave function control section                                             *
      *                                                                                                                      *
      ************************************************************************************************************************
 
 
                                         RASSCF iterations: Energy and convergence statistics
                                         ----------------------------------------------------
 
      Iter CI   SX   CI       RASSCF       Energy    max ROT     max BLB   max BLB  Level Ln srch  Step   QN   Walltime
          iter iter root      energy       change     param      element    value   shift minimum  type update hh:mm:ss
 Nr of preliminary CI iterations:   4
        1   1   25    0  -453.69519550    0.00E+00   0.32E-01   33  40 1  0.94E-02*  0.16   0.00    SX    NO    0:00:13
        2   3   12    0  -453.69883330   -0.36E-02*  0.17E-01   36  39 1  0.46E-02*  0.16   0.00    SX    NO    0:00:07
        3   8   13    0  -453.70100753   -0.22E-02*  0.33E-01   33  38 1  0.30E-01*  0.18   0.00    SX    NO    0:00:06
        4   5   12    0  -453.70497850   -0.40E-02*  0.16E-01   19  60 1  0.66E-02*  0.19   0.00    SX    NO    0:00:06
        5   5   12    0  -453.70734525   -0.24E-02* -0.20E-01   34  40 1  0.38E-02*  0.19   1.17    QN   YES    0:00:06
        6   4   11    0  -453.70817462   -0.83E-03* -0.14E-01   33  38 1 -0.19E-02*  0.20   1.10    QN   YES    0:00:06
        7   5   10    0  -453.70831571   -0.14E-03* -0.11E-01   20  84 1 -0.98E-03*  0.20   1.18    QN   YES    0:00:06
        8   4   10    0  -453.70835852   -0.43E-04* -0.23E-02   34  40 1 -0.61E-03*  0.20   0.87    QN   YES    0:00:06
        9   6    9    0  -453.70836646   -0.79E-05*  0.10E-02   20  84 1 -0.51E-03*  0.20   0.90    QN   YES    0:00:06
       10   3    9    0  -453.70837011   -0.36E-05*  0.35E-03   33  38 1  0.14E-03*  0.20   1.15    QN   YES    0:00:06
       11   5    8    0  -453.70837084   -0.73E-06*  0.33E-03   20  84 1 -0.89E-04   0.20   1.19    QN   YES    0:00:06
       12   4    7    0  -453.70837106   -0.22E-06* -0.94E-04   26  94 1  0.17E-04   0.20   1.03    QN   YES    0:00:06
       13   1    7    0  -453.70837108   -0.24E-07*  0.18E-03   20  84 1 -0.14E-04   0.20   1.34    QN   YES    0:00:06
       14   3    7    0  -453.70837109   -0.61E-08   0.75E-04   34  40 1  0.19E-04   0.20   0.64    QN   YES    0:00:06
      Convergence after 14 iterations
       15   2    7    0  -453.70837109   -0.54E-08   0.75E-04   34  40 1  0.14E-04   0.20   0.64    QN   YES    0:00:06
 
      ************************************************************************************************************************
                                                      Wave function printout:
                       occupation of active orbitals, and spin coupling of open shells (u,d: Spin up or down)
      ************************************************************************************************************************
 
      Note: transformation to natural orbitals
      has been made, which may change the order of the CSFs.
 
      printout of CI-coefficients larger than  0.05 for root  1
      energy=    -453.962789
      conf/sym  11111111     Coeff  Weight
             1  22222200   0.96087 0.92328
             3  2222u2d0   0.13046 0.01702
             6  22220220  -0.07437 0.00553
            15  22222002  -0.07515 0.00565
            61  2u2222d0  -0.07763 0.00603
            63  2u22d220   0.07742 0.00599
            84  u222220d  -0.09433 0.00890
            93  u2222d02  -0.05371 0.00288
           171  20222220  -0.10413 0.01084
           195  02222202  -0.08208 0.00674
 
      printout of CI-coefficients larger than  0.05 for root  2
      energy=    -453.756872
      conf/sym  11111111     Coeff  Weight
             3  2222u2d0  -0.10112 0.01023
            21  222u22d0   0.95299 0.90818
            23  222ud220  -0.09999 0.01000
            35  222u20d2   0.07457 0.00556
           111  22ud2220   0.05681 0.00323
           121  2u2d2220   0.19298 0.03724
           213  u22u22dd  -0.08281 0.00686
           270  022u22d2  -0.08219 0.00675
 
      printout of CI-coefficients larger than  0.05 for root  3
      energy=    -453.739005
      conf/sym  11111111     Coeff  Weight
             7  22222u0d  -0.28428 0.08082
             8  2222u20d  -0.19927 0.03971
            15  22222002  -0.07432 0.00552
            44  22u2220d  -0.88201 0.77795
            46  22u2d2ud  -0.06194 0.00384
            48  22u2u2dd  -0.10293 0.01059
            52  22u2022d   0.07341 0.00539
            53  22u22d02  -0.13570 0.01842
           145  22022202   0.07006 0.00491
           165  u2d22202  -0.13246 0.01755
           219  2uu222dd  -0.07012 0.00492
           221  2uu2d22d   0.06265 0.00393
           293  20u2222d  -0.09594 0.00920
 
      printout of CI-coefficients larger than  0.05 for root  4
      energy=    -453.640809
      conf/sym  11111111     Coeff  Weight
             3  2222u2d0   0.05905 0.00349
             7  22222u0d  -0.87468 0.76507
             8  2222u20d  -0.13713 0.01881
            12  2222uudd   0.09618 0.00925
            14  22220u2d  -0.07066 0.00499
            44  22u2220d   0.31214 0.09743
            67  2u222udd  -0.06422 0.00412
            70  2u22du2d   0.06750 0.00456
            84  u222220d   0.08960 0.00803
            93  u2222d02  -0.20972 0.04398
           165  u2d22202   0.07212 0.00520
           173  20222u2d  -0.09307 0.00866
           195  02222202  -0.06824 0.00466
 
      printout of CI-coefficients larger than  0.05 for root  5
      energy=    -453.631721
      conf/sym  11111111     Coeff  Weight
             3  2222u2d0  -0.23739 0.05635
             7  22222u0d  -0.19395 0.03762
             8  2222u20d   0.84277 0.71027
            10  2222udud  -0.05653 0.00320
            24  222u220d  -0.27502 0.07563
            26  222ud2ud   0.06592 0.00435
            28  222uu2dd   0.08747 0.00765
            44  22u2220d  -0.11885 0.01413
            63  2u22d220  -0.06033 0.00364
            66  2u22d2ud   0.13273 0.01762
            68  2u22u2dd   0.18120 0.03283
           174  2022u22d   0.12386 0.01534
 
      printout of CI-coefficients larger than  0.05 for root  6
      energy=    -453.619018
      conf/sym  11111111     Coeff  Weight
             1  22222200  -0.11900 0.01416
             2  22222ud0  -0.05671 0.00322
             3  2222u2d0   0.87820 0.77124
             6  22220220   0.18277 0.03340
             8  2222u20d   0.23459 0.05503
            18  2222u0d2   0.07177 0.00515
            21  222u22d0   0.09250 0.00856
            24  222u220d  -0.06555 0.00430
            41  22u222d0  -0.05706 0.00326
            44  22u2220d  -0.05966 0.00356
            61  2u2222d0   0.05292 0.00280
            63  2u22d220   0.20423 0.04171
            84  u222220d   0.05741 0.00330
            86  u222d2ud  -0.06057 0.00367
            88  u222u2dd  -0.08222 0.00676
           171  20222220  -0.11180 0.01250
           197  0222u2d2  -0.07415 0.00550
 
      printout of CI-coefficients larger than  0.05 for root  7
      energy=    -453.608383
      conf/sym  11111111     Coeff  Weight
             8  2222u20d   0.28541 0.08146
            24  222u220d   0.85323 0.72801
            25  222u2dud  -0.08376 0.00702
            26  222ud2ud  -0.21537 0.04639
            27  222u2udd  -0.05595 0.00313
            28  222uu2dd  -0.28956 0.08384
            66  2u22d2ud   0.05203 0.00271
            68  2u22u2dd   0.06428 0.00413
           112  22ud22ud  -0.08387 0.00703
           201  22uu22dd   0.09438 0.00891
           209  2u2ud22d   0.06198 0.00384
           261  202u222d   0.07670 0.00588
 
      Natural orbitals and occupation numbers for root  1
      sym 1:   1.966905   1.948734   1.999831   1.999799   1.997395   1.995830   0.054092   0.037415
 
      Natural orbitals and occupation numbers for root  2
      sym 1:   1.965552   1.999805   1.999858   1.005095   1.999352   1.996081   0.995658   0.038600
 
      Natural orbitals and occupation numbers for root  3
      sym 1:   1.999953   1.996609   1.002439   1.999753   1.946086   1.999224   0.056675   0.999262
 
      Natural orbitals and occupation numbers for root  4
      sym 1:   1.945571   1.994949   1.999203   1.999651   1.979872   0.929324   0.058990   1.092439
 
      Natural orbitals and occupation numbers for root  5
      sym 1:   1.998265   1.906032   1.996581   1.974371   1.052494   1.989058   0.119702   0.963497
 
      Natural orbitals and occupation numbers for root  6
      sym 1:   1.961619   1.952826   1.992134   1.998743   1.111658   1.995265   0.928584   0.059172
 
      Natural orbitals and occupation numbers for root  7
      sym 1:   1.999782   1.984453   1.989349   1.021355   1.930533   1.997007   0.077921   0.999600
 
      ************************************************************************************************************************
      *                                                                                                                      *
      *                                                    Final results                                                     *
      *                                                                                                                      *
      ************************************************************************************************************************
 
 
++    Wave function specifications:
      -----------------------------
 
      Number of closed shell electrons          58
      Number of electrons in active shells      12
      Max number of holes in RAS1 space          0
      Max nr of electrons in RAS3 space          0
      Number of inactive orbitals               29
      Number of active orbitals                  8
      Number of secondary orbitals             172
      Spin quantum number                      0.0
      State symmetry                             1
--
 
++    Orbital specifications:
      -----------------------
 
      Symmetry species                           1
                                                 a
      Frozen orbitals                            0
      Inactive orbitals                         29
      Active orbitals                            8
      RAS1 orbitals                              0
      RAS2 orbitals                              8
      RAS3 orbitals                              0
      Secondary orbitals                       172
      Deleted orbitals                           3
      Number of basis functions                212
--
 
++    CI expansion specifications:
      ----------------------------
 
      Number of CSFs                           336
      Number of determinants                   406
      Number of root(s) required                 7
      CI roots used                              1     2     3     4     5     6     7
      weights                                0.143 0.143 0.143 0.143 0.143 0.143 0.143
      highest root included in the CI            7
      Root passed to geometry opt.               7
--
 
++    Final optimization conditions:
      ------------------------------
 
      Average CI energy                            -453.70837109
      RASSCF energy for state  7                   -453.60838330
      Super-CI energy                                -0.00000001
      RASSCF energy change                            0.00000000
      Max change in MO coefficients              -0.797E-04
      Max non-diagonal density matrix element     0.751E-04
      Maximum BLB matrix element                  0.141E-04
      (orbital pair  34,  40 in symmetry   1)
      Norm of electronic gradient            0.378E+00
--
 
 
      Final state energy(ies):
      ------------------------
 
::    RASSCF root number  1 Total energy:   -453.96278881
::    RASSCF root number  2 Total energy:   -453.75687192
::    RASSCF root number  3 Total energy:   -453.73900525
::    RASSCF root number  4 Total energy:   -453.64080947
::    RASSCF root number  5 Total energy:   -453.63172057
::    RASSCF root number  6 Total energy:   -453.61901832
::    RASSCF root number  7 Total energy:   -453.60838330
 
++    Molecular orbitals:
      -------------------
 
      Pseudonatural active orbitals and approximate occupation numbers
 
 
 
 
      Molecular orbitals for symmetry species 1: a  
 
 
      Orbital                 1         2         3         4         5         6         7         8         9        10
      Energy           -20.5934  -20.5160  -15.6324  -15.5796  -11.3350  -11.2860  -11.2815  -11.2598  -11.2506   -1.4192
      Occ. No.           2.0000    2.0000    2.0000    2.0000    2.0000    2.0000    2.0000    2.0000    2.0000    2.0000
 
     1 C1     1s         0.0003   -0.0000    0.0004    0.0000    1.0000    0.0001   -0.0000    0.0000   -0.0036   -0.0405
     2 C1     2s         0.0006   -0.0002    0.0016    0.0000    0.0027   -0.0008   -0.0002    0.0000    0.0003    0.3422
     3 C1     3s        -0.0007   -0.0002    0.0007    0.0000    0.0003   -0.0007   -0.0002   -0.0000   -0.0002   -0.0154
     4 C1     4s        -0.0004   -0.0001    0.0001    0.0000    0.0014   -0.0003   -0.0001   -0.0000   -0.0001    0.0001
     5 C1     2px       -0.0010   -0.0002    0.0018   -0.0003    0.0013   -0.0001   -0.0000   -0.0001   -0.0002   -0.0550
     6 C1     3px       -0.0005   -0.0002    0.0013   -0.0002    0.0015   -0.0005   -0.0000   -0.0002    0.0004    0.0067
     7 C1     4px        0.0002    0.0000   -0.0002   -0.0000    0.0005   -0.0003    0.0000   -0.0001    0.0003   -0.0170
     8 C1     2py        0.0028   -0.0005   -0.0000    0.0001    0.0010    0.0000   -0.0001   -0.0002   -0.0006    0.0916
     9 C1     3py        0.0021   -0.0006   -0.0001    0.0001    0.0009   -0.0005   -0.0003   -0.0003    0.0002   -0.0732
    10 C1     4py       -0.0002   -0.0001   -0.0000    0.0000    0.0007   -0.0004   -0.0001   -0.0001    0.0003    0.0206
    11 C1     2pz        0.0007    0.0000   -0.0003   -0.0000    0.0000    0.0000    0.0001   -0.0000   -0.0002    0.0294
    12 C1     3pz        0.0004   -0.0000   -0.0001   -0.0001   -0.0002   -0.0001   -0.0000   -0.0000   -0.0001   -0.0134
    13 C1     4pz       -0.0001   -0.0001    0.0000   -0.0000    0.0000   -0.0001   -0.0000    0.0000   -0.0000    0.0086
    14 C1     3d2-       0.0002   -0.0000    0.0001   -0.0000   -0.0004    0.0000   -0.0000   -0.0000    0.0000   -0.0308
    15 C1     3d1-      -0.0000    0.0000    0.0000   -0.0000    0.0002   -0.0000   -0.0000    0.0000   -0.0000    0.0162
    16 C1     3d0       -0.0000    0.0000    0.0001   -0.0000   -0.0004   -0.0001   -0.0000   -0.0000    0.0001   -0.0234
    17 C1     3d1+       0.0000    0.0000   -0.0000    0.0000   -0.0001   -0.0000    0.0000   -0.0000    0.0000   -0.0104
    18 C1     3d2+       0.0001   -0.0000   -0.0001   -0.0000   -0.0001    0.0001   -0.0000    0.0000   -0.0000   -0.0104
    19 C3     1s         0.0002   -0.0002    0.0005    0.0000   -0.0001    0.9978   -0.0597    0.0001   -0.0000   -0.0098
    20 C3     2s         0.0016   -0.0010    0.0029    0.0001    0.0004   -0.0010    0.0005    0.0007    0.0001    0.0221
    21 C3     3s         0.0010   -0.0007    0.0016    0.0001    0.0003   -0.0024    0.0003    0.0004    0.0000   -0.0195
    22 C3     4s         0.0002   -0.0002    0.0003   -0.0000    0.0000    0.0008    0.0000    0.0000   -0.0000   -0.0028
    23 C3     2px       -0.0003   -0.0002   -0.0010    0.0001   -0.0002   -0.0002   -0.0004    0.0001    0.0003   -0.0173
    24 C3     3px       -0.0003   -0.0003   -0.0005    0.0001    0.0001   -0.0004   -0.0005    0.0002    0.0003    0.0003
    25 C3     4px        0.0001   -0.0001    0.0002   -0.0000    0.0002   -0.0005   -0.0001    0.0000    0.0000   -0.0024
    26 C3     2py       -0.0003    0.0007   -0.0008   -0.0005    0.0004   -0.0010   -0.0001    0.0005   -0.0003   -0.0138
    27 C3     3py       -0.0002    0.0004   -0.0003   -0.0006    0.0005   -0.0009   -0.0004    0.0005   -0.0003    0.0074
    28 C3     4py        0.0000   -0.0002    0.0001   -0.0001    0.0000   -0.0008   -0.0001    0.0000   -0.0000   -0.0010
    29 C3     2pz        0.0002    0.0000   -0.0005    0.0001   -0.0002    0.0008   -0.0001   -0.0003    0.0001   -0.0017
    30 C3     3pz        0.0003    0.0001   -0.0004    0.0003   -0.0004    0.0006    0.0005   -0.0001    0.0001   -0.0012
    31 C3     4pz        0.0000    0.0001    0.0001    0.0002   -0.0001   -0.0001    0.0001    0.0001   -0.0000    0.0010
    32 C3     3d2-       0.0000    0.0000    0.0000    0.0001    0.0001   -0.0001   -0.0001   -0.0000    0.0000    0.0040
    33 C3     3d1-       0.0000   -0.0001    0.0000    0.0000    0.0000    0.0001    0.0000   -0.0000   -0.0000   -0.0004
    34 C3     3d0        0.0000   -0.0000    0.0001    0.0000   -0.0000   -0.0001    0.0000    0.0001   -0.0000   -0.0019
    35 C3     3d1+      -0.0000   -0.0001    0.0000    0.0000   -0.0001   -0.0000   -0.0000    0.0000    0.0000   -0.0002
    36 C3     3d2+      -0.0000   -0.0001    0.0000   -0.0000    0.0000    0.0001    0.0001    0.0000    0.0000   -0.0013
    37 C4     1s        -0.0000    0.0003   -0.0004    0.0003   -0.0002    0.0599    0.9982    0.0003    0.0000   -0.0014
    38 C4     2s        -0.0003    0.0011   -0.0023    0.0013   -0.0014    0.0012    0.0024   -0.0007    0.0001    0.0415
    39 C4     3s        -0.0003   -0.0003   -0.0016    0.0006   -0.0011    0.0004    0.0000   -0.0006   -0.0000    0.0117
    40 C4     4s        -0.0001   -0.0003   -0.0004    0.0001   -0.0003    0.0001    0.0014   -0.0002   -0.0000    0.0042
    41 C4     2px        0.0005   -0.0012   -0.0001    0.0006    0.0001   -0.0001    0.0005   -0.0002    0.0001   -0.0110
    42 C4     3px        0.0005   -0.0008   -0.0000    0.0005    0.0001   -0.0000    0.0001   -0.0003    0.0002   -0.0100
    43 C4     4px        0.0001    0.0001    0.0000    0.0000    0.0000    0.0001    0.0000   -0.0001    0.0001   -0.0023
    44 C4     2py        0.0006   -0.0017    0.0002    0.0015   -0.0001   -0.0007    0.0007   -0.0004    0.0004   -0.0215
    45 C4     3py        0.0006   -0.0012    0.0004    0.0011   -0.0000   -0.0001    0.0005   -0.0008    0.0005   -0.0201
    46 C4     4py        0.0000    0.0002    0.0002   -0.0001    0.0001    0.0003    0.0002   -0.0004    0.0001   -0.0055
    47 C4     2pz       -0.0003   -0.0023   -0.0009   -0.0003   -0.0000    0.0012   -0.0002   -0.0001    0.0000    0.0023
    48 C4     3pz       -0.0003   -0.0015   -0.0007   -0.0002    0.0001    0.0006    0.0000    0.0005   -0.0001    0.0072
    49 C4     4pz       -0.0000    0.0003    0.0000    0.0000    0.0001   -0.0001   -0.0003    0.0005   -0.0001    0.0009
    50 C4     3d2-      -0.0000   -0.0000    0.0001   -0.0002   -0.0000   -0.0000    0.0003    0.0001   -0.0000    0.0018
    51 C4     3d1-      -0.0000   -0.0002    0.0001   -0.0000    0.0000   -0.0000    0.0003   -0.0000   -0.0000    0.0011
    52 C4     3d0       -0.0000    0.0000   -0.0000    0.0001    0.0000    0.0001    0.0000   -0.0000   -0.0000    0.0016
    53 C4     3d1+       0.0000   -0.0000    0.0001   -0.0000    0.0000   -0.0000    0.0002    0.0000   -0.0000    0.0009
    54 C4     3d2+      -0.0000   -0.0000   -0.0000    0.0001    0.0000    0.0000   -0.0002   -0.0001    0.0000   -0.0007
    55 C6     1s         0.0000    0.0001    0.0001    0.0003   -0.0001    0.0001   -0.0005    0.9997   -0.0000    0.0001
    56 C6     2s         0.0001    0.0007    0.0003    0.0014   -0.0004    0.0008   -0.0005    0.0000   -0.0001    0.0067
    57 C6     3s        -0.0000    0.0005    0.0002    0.0004   -0.0003    0.0006   -0.0006   -0.0016   -0.0002    0.0061
    58 C6     4s        -0.0000    0.0001    0.0000   -0.0001   -0.0001    0.0001   -0.0003    0.0009   -0.0001    0.0028
    59 C6     2px       -0.0001    0.0000    0.0000    0.0000   -0.0000   -0.0000    0.0000    0.0001   -0.0000    0.0005
    60 C6     3px       -0.0001    0.0000    0.0000    0.0000   -0.0000   -0.0000    0.0001   -0.0000   -0.0000    0.0010
    61 C6     4px       -0.0000    0.0000   -0.0000    0.0000   -0.0000   -0.0000    0.0001   -0.0000   -0.0000    0.0003
    62 C6     2py        0.0001   -0.0004    0.0001   -0.0001    0.0000   -0.0001    0.0005    0.0001    0.0001   -0.0043
    63 C6     3py        0.0001   -0.0003    0.0001    0.0002    0.0000   -0.0001    0.0006    0.0001    0.0001   -0.0041
    64 C6     4py        0.0000    0.0001   -0.0000    0.0001    0.0000   -0.0000    0.0001   -0.0004    0.0000   -0.0006
    65 C6     2pz        0.0000    0.0001    0.0001    0.0005   -0.0001    0.0003   -0.0002    0.0001   -0.0001    0.0044
    66 C6     3pz        0.0000    0.0001    0.0001   -0.0001   -0.0002    0.0002   -0.0003   -0.0003   -0.0001    0.0039
    67 C6     4pz       -0.0000    0.0000   -0.0000   -0.0002   -0.0000   -0.0001   -0.0000    0.0006   -0.0000    0.0006
    68 C6     3d2-      -0.0000    0.0000   -0.0000   -0.0000    0.0000   -0.0000    0.0000    0.0000   -0.0000    0.0000
    69 C6     3d1-       0.0000   -0.0000    0.0000    0.0000    0.0000   -0.0000   -0.0000    0.0001    0.0000   -0.0004
    70 C6     3d0       -0.0000    0.0000    0.0000   -0.0001    0.0000    0.0000   -0.0000   -0.0001   -0.0000    0.0003
    71 C6     3d1+       0.0000    0.0000    0.0000   -0.0001    0.0000    0.0000   -0.0000   -0.0000   -0.0000   -0.0001
    72 C6     3d2+      -0.0000   -0.0000    0.0000    0.0000    0.0000   -0.0000   -0.0001    0.0000    0.0000   -0.0001
    73 C19    1s         0.0001   -0.0000   -0.0001   -0.0000    0.0035    0.0001   -0.0000   -0.0000    0.9999   -0.0123
    74 C19    2s         0.0006   -0.0002   -0.0003   -0.0003   -0.0001    0.0002   -0.0002   -0.0002    0.0014    0.0007
    75 C19    3s         0.0004   -0.0001   -0.0002   -0.0003   -0.0002   -0.0001   -0.0002   -0.0002   -0.0008   -0.0311
    76 C19    4s         0.0001   -0.0000   -0.0001   -0.0001    0.0000   -0.0001   -0.0001   -0.0001    0.0012   -0.0030
    77 C19    2px        0.0007   -0.0000   -0.0005   -0.0001   -0.0003    0.0000   -0.0001   -0.0000   -0.0002   -0.0085
    78 C19    3px        0.0004   -0.0000   -0.0004   -0.0001   -0.0005    0.0000   -0.0001   -0.0000   -0.0001   -0.0067
    79 C19    4px       -0.0001    0.0000    0.0000    0.0000   -0.0000    0.0000   -0.0000    0.0000    0.0002    0.0072
    80 C19    2py       -0.0001    0.0000    0.0003   -0.0001    0.0003    0.0001    0.0001   -0.0000   -0.0003    0.0177
    81 C19    3py       -0.0002    0.0000    0.0002   -0.0001   -0.0002   -0.0000    0.0000   -0.0000   -0.0000   -0.0093
    82 C19    4py       -0.0001    0.0000   -0.0001    0.0000   -0.0001   -0.0001   -0.0000    0.0000    0.0004    0.0041
    83 C19    2pz        0.0003   -0.0001    0.0001    0.0002    0.0004    0.0001    0.0001   -0.0000    0.0001    0.0016
    84 C19    3pz        0.0002   -0.0001    0.0000    0.0001    0.0003    0.0001    0.0000   -0.0000    0.0001   -0.0052
    85 C19    4pz       -0.0000   -0.0000   -0.0000   -0.0000   -0.0000   -0.0000   -0.0000   -0.0000    0.0001    0.0009
    86 C19    3d2-       0.0001    0.0000   -0.0000   -0.0000   -0.0000    0.0000    0.0000    0.0000   -0.0001    0.0000
    87 C19    3d1-      -0.0000   -0.0000    0.0000   -0.0000    0.0000    0.0000    0.0000    0.0000   -0.0001    0.0019
    88 C19    3d0       -0.0001   -0.0000   -0.0001   -0.0000    0.0001   -0.0000   -0.0000    0.0000    0.0001    0.0014
    89 C19    3d1+       0.0000   -0.0000   -0.0000   -0.0000    0.0000   -0.0000   -0.0000   -0.0000   -0.0000   -0.0003
    90 C19    3d2+       0.0001    0.0000    0.0000    0.0000   -0.0001   -0.0000   -0.0000    0.0000    0.0001   -0.0063
    91 N2     1s         0.0000    0.0001    0.9997    0.0000   -0.0003    0.0001   -0.0000    0.0000    0.0001   -0.0167
    92 N2     2s         0.0001    0.0010   -0.0009    0.0002   -0.0005    0.0013   -0.0001    0.0001    0.0005    0.1233
    93 N2     3s         0.0002    0.0007   -0.0020    0.0002   -0.0006    0.0007   -0.0000    0.0001    0.0004   -0.0448
    94 N2     4s         0.0001    0.0002    0.0003    0.0001   -0.0000    0.0003    0.0000    0.0000    0.0001   -0.0112
    95 N2     2px        0.0000    0.0001    0.0004   -0.0002   -0.0001    0.0003   -0.0000    0.0000   -0.0003   -0.0306
    96 N2     3px       -0.0000    0.0002    0.0003   -0.0003    0.0001   -0.0002   -0.0001    0.0000   -0.0003    0.0192
    97 N2     4px        0.0000   -0.0000   -0.0004   -0.0000   -0.0002   -0.0002   -0.0001   -0.0000    0.0001   -0.0037
    98 N2     2py       -0.0013    0.0002   -0.0007   -0.0000    0.0000    0.0005   -0.0001    0.0000   -0.0001    0.0365
    99 N2     3py       -0.0015    0.0003   -0.0003   -0.0001   -0.0000    0.0003   -0.0001   -0.0000   -0.0000    0.0103
   100 N2     4py        0.0000   -0.0000    0.0006   -0.0000   -0.0000    0.0002   -0.0000   -0.0000    0.0001   -0.0061
   101 N2     2pz       -0.0005   -0.0000   -0.0005   -0.0002   -0.0001   -0.0004   -0.0000    0.0001   -0.0003    0.0151
   102 N2     3pz       -0.0006    0.0000    0.0000   -0.0003   -0.0003   -0.0005   -0.0002    0.0001   -0.0005    0.0236
   103 N2     4pz       -0.0000    0.0000   -0.0005   -0.0000   -0.0001   -0.0001   -0.0000    0.0000   -0.0001    0.0008
   104 N2     3d2-       0.0001    0.0000   -0.0001    0.0000   -0.0001   -0.0000    0.0000    0.0000   -0.0000   -0.0030
   105 N2     3d1-       0.0000    0.0000    0.0001   -0.0000   -0.0001    0.0000   -0.0000    0.0000    0.0000   -0.0014
   106 N2     3d0       -0.0000   -0.0000    0.0001    0.0000    0.0001    0.0001   -0.0000   -0.0000   -0.0001   -0.0029
   107 N2     3d1+       0.0000   -0.0000   -0.0000    0.0000   -0.0000    0.0000   -0.0000    0.0000   -0.0000   -0.0013
   108 N2     3d2+      -0.0000    0.0000   -0.0000   -0.0000    0.0001   -0.0000   -0.0000   -0.0000    0.0000    0.0041
   109 N5     1s        -0.0000    0.0001    0.0001    0.9999    0.0001   -0.0000   -0.0002    0.0001   -0.0000   -0.0011
   110 N5     2s        -0.0002    0.0008    0.0004    0.0005    0.0006   -0.0000   -0.0001    0.0018   -0.0001    0.0074
   111 N5     3s        -0.0001    0.0006    0.0003   -0.0011    0.0004   -0.0000   -0.0003    0.0011   -0.0001   -0.0020
   112 N5     4s        -0.0000    0.0001    0.0000    0.0006    0.0001   -0.0000    0.0001    0.0004   -0.0000   -0.0001
   113 N5     2px       -0.0000    0.0004   -0.0001    0.0003   -0.0001   -0.0001    0.0000    0.0000    0.0000    0.0004
   114 N5     3px       -0.0001    0.0005   -0.0001    0.0001   -0.0001   -0.0000    0.0000   -0.0001    0.0000    0.0017
   115 N5     4px       -0.0000    0.0000    0.0000   -0.0002    0.0000    0.0001   -0.0001   -0.0001   -0.0000    0.0003
   116 N5     2py        0.0000    0.0001   -0.0004    0.0004    0.0000   -0.0006   -0.0001    0.0005    0.0001   -0.0044
   117 N5     3py       -0.0000    0.0001   -0.0005    0.0001    0.0002   -0.0006    0.0000    0.0003    0.0001   -0.0025
   118 N5     4py       -0.0000    0.0000    0.0000   -0.0002    0.0001    0.0000   -0.0002   -0.0000    0.0000   -0.0010
   119 N5     2pz        0.0001    0.0016    0.0004    0.0009   -0.0002    0.0003   -0.0005   -0.0008    0.0000   -0.0010
   120 N5     3pz        0.0001    0.0019    0.0005    0.0005   -0.0004    0.0005   -0.0005   -0.0009    0.0000    0.0007
   121 N5     4pz       -0.0000   -0.0000    0.0000   -0.0003   -0.0001    0.0001    0.0001   -0.0002    0.0000    0.0012
   122 N5     3d2-      -0.0000    0.0000    0.0000    0.0000    0.0000    0.0000   -0.0001   -0.0001    0.0000   -0.0002
   123 N5     3d1-       0.0000   -0.0001   -0.0000    0.0002   -0.0000   -0.0000    0.0001    0.0000    0.0000   -0.0001
   124 N5     3d0        0.0000    0.0001   -0.0000   -0.0000   -0.0000   -0.0000   -0.0001   -0.0000    0.0000   -0.0003
   125 N5     3d1+       0.0000    0.0000   -0.0000    0.0000   -0.0000   -0.0000   -0.0000   -0.0000    0.0000   -0.0001
   126 N5     3d2+      -0.0000   -0.0000   -0.0000    0.0000   -0.0000   -0.0000    0.0001    0.0001   -0.0000   -0.0000
   127 O7     1s         0.9997    0.0000    0.0000   -0.0000   -0.0003   -0.0000   -0.0000    0.0000    0.0000   -0.0238
   128 O7     2s        -0.0012    0.0001    0.0001   -0.0001    0.0002   -0.0001   -0.0001    0.0000    0.0002    0.6900
   129 O7     3s        -0.0012    0.0001    0.0000   -0.0001   -0.0002   -0.0000   -0.0001    0.0000    0.0001   -0.0332
   130 O7     4s         0.0001    0.0000   -0.0000   -0.0000   -0.0000    0.0000   -0.0000    0.0000    0.0000   -0.0135
   131 O7     2px        0.0002   -0.0000   -0.0004    0.0000    0.0003   -0.0001   -0.0001    0.0000    0.0001    0.0859
   132 O7     3px       -0.0003   -0.0000   -0.0005    0.0000   -0.0002   -0.0000   -0.0001    0.0000    0.0001   -0.0207
   133 O7     4px        0.0008   -0.0000   -0.0001    0.0000    0.0001   -0.0000   -0.0000    0.0000   -0.0000   -0.0003
   134 O7     2py       -0.0003    0.0001   -0.0002    0.0001   -0.0006    0.0000    0.0000    0.0000   -0.0001   -0.1181
   135 O7     3py        0.0004    0.0001   -0.0002    0.0001   -0.0004   -0.0000   -0.0000    0.0000   -0.0001    0.0384
   136 O7     4py       -0.0011    0.0000    0.0001   -0.0000   -0.0004   -0.0000   -0.0000    0.0000    0.0000    0.0005
   137 O7     2pz       -0.0001    0.0001   -0.0000    0.0000   -0.0001    0.0000    0.0001    0.0000   -0.0000   -0.0317
   138 O7     3pz        0.0000    0.0001    0.0001   -0.0000   -0.0000    0.0000    0.0001    0.0000   -0.0000    0.0108
   139 O7     4pz       -0.0004    0.0001    0.0000   -0.0000   -0.0001    0.0000    0.0000    0.0000    0.0000    0.0002
   140 O7     3d2-       0.0001    0.0000    0.0000    0.0000   -0.0002    0.0000    0.0000    0.0000   -0.0000   -0.0170
   141 O7     3d1-       0.0000   -0.0000    0.0000   -0.0000    0.0001   -0.0000   -0.0000   -0.0000    0.0000    0.0069
   142 O7     3d0       -0.0000    0.0000   -0.0000    0.0000   -0.0000   -0.0000    0.0000    0.0000   -0.0000   -0.0091
   143 O7     3d1+      -0.0000    0.0000    0.0000   -0.0000   -0.0000   -0.0000    0.0000    0.0000   -0.0000   -0.0047
   144 O7     3d2+       0.0000    0.0000   -0.0001    0.0000   -0.0001   -0.0000   -0.0000    0.0000    0.0000   -0.0066
   145 O8     1s         0.0000    0.9997   -0.0000    0.0000   -0.0000   -0.0000   -0.0002   -0.0000    0.0000   -0.0024
   146 O8     2s         0.0003   -0.0014   -0.0003    0.0002   -0.0000   -0.0001    0.0006   -0.0003    0.0001    0.0343
   147 O8     3s         0.0002   -0.0014   -0.0001    0.0002   -0.0000   -0.0000    0.0001   -0.0001    0.0000   -0.0047
   148 O8     4s         0.0000    0.0001   -0.0000    0.0000    0.0000   -0.0000    0.0000   -0.0000   -0.0000   -0.0011
   149 O8     2px       -0.0000    0.0001    0.0000   -0.0001    0.0001    0.0001    0.0005   -0.0000    0.0001    0.0019
   150 O8     3px       -0.0000   -0.0002    0.0001   -0.0001    0.0002    0.0001    0.0001   -0.0000    0.0001   -0.0043
   151 O8     4px        0.0000    0.0005    0.0000   -0.0000    0.0001    0.0000    0.0001    0.0000    0.0001   -0.0012
   152 O8     2py       -0.0001    0.0002    0.0000   -0.0002    0.0001    0.0002    0.0005   -0.0001    0.0001    0.0017
   153 O8     3py       -0.0002   -0.0002    0.0001   -0.0003    0.0002    0.0002    0.0002   -0.0000    0.0002   -0.0046
   154 O8     4py       -0.0001    0.0008    0.0000   -0.0001    0.0001    0.0001    0.0001    0.0000    0.0001   -0.0009
   155 O8     2pz        0.0000    0.0002   -0.0001    0.0002   -0.0001   -0.0001    0.0005   -0.0000   -0.0001    0.0102
   156 O8     3pz       -0.0001   -0.0004   -0.0000    0.0001   -0.0002   -0.0002    0.0001    0.0000   -0.0002    0.0035
   157 O8     4pz       -0.0001    0.0010   -0.0000   -0.0001   -0.0000   -0.0001    0.0002    0.0000   -0.0001    0.0025
   158 O8     3d2-      -0.0000   -0.0000   -0.0000    0.0000   -0.0000    0.0000    0.0001   -0.0000   -0.0000    0.0006
   159 O8     3d1-      -0.0000   -0.0001   -0.0000   -0.0000   -0.0000    0.0000    0.0002   -0.0000    0.0000    0.0008
   160 O8     3d0       -0.0000   -0.0000   -0.0000    0.0001   -0.0000    0.0000    0.0000    0.0000   -0.0000    0.0008
   161 O8     3d1+       0.0000   -0.0000    0.0000    0.0000   -0.0000    0.0000    0.0001   -0.0000    0.0000    0.0006
   162 O8     3d2+      -0.0000   -0.0000   -0.0000   -0.0000    0.0000   -0.0000   -0.0000    0.0000    0.0000   -0.0001
   163 H9     1s         0.0006   -0.0001    0.0000    0.0002    0.0004   -0.0000    0.0001   -0.0001    0.0006    0.0075
   164 H9     2s         0.0004   -0.0001   -0.0000    0.0001    0.0003   -0.0000    0.0000   -0.0000   -0.0001   -0.0002
   165 H9     2px       -0.0000    0.0000   -0.0000    0.0000    0.0000   -0.0000    0.0000   -0.0000    0.0000    0.0013
   166 H9     2py        0.0000    0.0000   -0.0001    0.0000    0.0000   -0.0000   -0.0000   -0.0000    0.0000    0.0009
   167 H9     2pz        0.0001   -0.0000    0.0000    0.0000    0.0001   -0.0000    0.0000   -0.0000   -0.0000    0.0001
   168 H10    1s         0.0002   -0.0000   -0.0001   -0.0002    0.0000   -0.0003   -0.0001   -0.0000    0.0004    0.0066
   169 H10    2s         0.0002   -0.0000   -0.0000   -0.0001    0.0000   -0.0002   -0.0001   -0.0000   -0.0002   -0.0036
   170 H10    2px       -0.0000   -0.0000    0.0000   -0.0000    0.0001   -0.0001   -0.0000   -0.0000   -0.0000    0.0004
   171 H10    2py       -0.0000   -0.0000    0.0000    0.0000    0.0000   -0.0000   -0.0000   -0.0000    0.0000    0.0004
   172 H10    2pz       -0.0000    0.0000    0.0000    0.0000   -0.0000    0.0000    0.0000    0.0000    0.0000   -0.0001
   173 H11    1s        -0.0001    0.0000    0.0004    0.0000    0.0003   -0.0000    0.0001   -0.0000    0.0004    0.0132
   174 H11    2s        -0.0001    0.0000    0.0003    0.0000    0.0002   -0.0000    0.0000   -0.0000   -0.0002    0.0016
   175 H11    2px       -0.0000   -0.0000   -0.0001    0.0000    0.0000    0.0000    0.0000    0.0000    0.0001    0.0007
   176 H11    2py        0.0000   -0.0000    0.0000    0.0000    0.0001    0.0000    0.0000   -0.0000   -0.0000    0.0013
   177 H11    2pz        0.0000    0.0000   -0.0000   -0.0000   -0.0001   -0.0000   -0.0000    0.0000    0.0000   -0.0009
   178 H12    1s        -0.0009   -0.0003   -0.0006   -0.0000   -0.0002   -0.0006   -0.0003   -0.0000   -0.0005    0.0502
   179 H12    2s        -0.0005   -0.0002   -0.0005   -0.0000   -0.0002   -0.0003   -0.0002   -0.0000   -0.0003    0.0040
   180 H12    2px        0.0000    0.0000    0.0002    0.0000   -0.0001    0.0001    0.0000   -0.0000   -0.0000   -0.0038
   181 H12    2py        0.0000   -0.0001   -0.0003    0.0000    0.0000    0.0000   -0.0000   -0.0000   -0.0000    0.0050
   182 H12    2pz       -0.0001    0.0000   -0.0003    0.0000    0.0001   -0.0000    0.0000   -0.0000    0.0000    0.0029
   183 H13    1s        -0.0004    0.0003   -0.0004    0.0002   -0.0007    0.0010   -0.0004   -0.0002    0.0001    0.0173
   184 H13    2s        -0.0002    0.0002   -0.0001    0.0002   -0.0004    0.0002   -0.0002   -0.0002    0.0001    0.0004
   185 H13    2px        0.0000   -0.0000    0.0000    0.0000   -0.0000    0.0000    0.0000   -0.0000   -0.0000   -0.0007
   186 H13    2py        0.0000   -0.0000   -0.0000   -0.0001    0.0001   -0.0000    0.0000   -0.0000    0.0000   -0.0016
   187 H13    2pz       -0.0000   -0.0000   -0.0000    0.0000    0.0001   -0.0001   -0.0000    0.0000   -0.0000   -0.0007
   188 H14    1s         0.0001    0.0009    0.0001   -0.0002    0.0002    0.0007   -0.0000   -0.0002   -0.0003    0.0109
   189 H14    2s         0.0000    0.0006    0.0002   -0.0002    0.0001    0.0001    0.0001   -0.0001   -0.0002    0.0017
   190 H14    2px       -0.0000   -0.0001   -0.0001   -0.0000   -0.0000    0.0000   -0.0000    0.0000    0.0000   -0.0009
   191 H14    2py        0.0000   -0.0000    0.0000   -0.0000   -0.0000   -0.0000    0.0001   -0.0000    0.0000   -0.0004
   192 H14    2pz       -0.0000   -0.0001   -0.0000    0.0000    0.0000   -0.0000   -0.0000    0.0000    0.0000   -0.0001
   193 H15    1s        -0.0001   -0.0013   -0.0001   -0.0008   -0.0000    0.0004    0.0004   -0.0001   -0.0001    0.0071
   194 H15    2s        -0.0001   -0.0008   -0.0000   -0.0006   -0.0000    0.0002    0.0002   -0.0000   -0.0001    0.0029
   195 H15    2px        0.0000    0.0000    0.0000    0.0001    0.0000   -0.0000   -0.0001    0.0000    0.0000   -0.0004
   196 H15    2py        0.0000    0.0001    0.0000    0.0002    0.0000   -0.0000   -0.0002    0.0000    0.0000   -0.0005
   197 H15    2pz        0.0000    0.0001   -0.0000    0.0004    0.0000   -0.0001   -0.0000   -0.0000    0.0000   -0.0007
   198 H16    1s        -0.0000   -0.0000    0.0000   -0.0002   -0.0001    0.0000   -0.0000    0.0010   -0.0001    0.0044
   199 H16    2s        -0.0000    0.0000   -0.0000   -0.0000   -0.0001    0.0000    0.0001    0.0001   -0.0001    0.0027
   200 H16    2px        0.0000   -0.0000    0.0000    0.0000   -0.0000    0.0000   -0.0000    0.0000   -0.0000    0.0001
   201 H16    2py       -0.0000    0.0000    0.0000    0.0000    0.0000    0.0000   -0.0000    0.0001    0.0000   -0.0001
   202 H16    2pz       -0.0000   -0.0000   -0.0000    0.0000   -0.0000    0.0000    0.0000    0.0001   -0.0000    0.0003
   203 H17    1s        -0.0002    0.0004   -0.0000   -0.0005   -0.0000   -0.0000   -0.0004    0.0005   -0.0001    0.0049
   204 H17    2s        -0.0002    0.0003   -0.0000   -0.0002   -0.0000   -0.0000   -0.0003   -0.0001   -0.0000    0.0032
   205 H17    2px       -0.0000    0.0000   -0.0000   -0.0000    0.0000   -0.0000   -0.0000   -0.0000   -0.0000    0.0003
   206 H17    2py        0.0000   -0.0000    0.0000    0.0000    0.0000    0.0000    0.0001   -0.0000    0.0000   -0.0003
   207 H17    2pz       -0.0000    0.0000    0.0000   -0.0000   -0.0000    0.0000    0.0000    0.0000    0.0000    0.0000
   208 H18    1s         0.0001    0.0002   -0.0000   -0.0004    0.0000    0.0000   -0.0003    0.0005    0.0000    0.0007
   209 H18    2s         0.0001    0.0001    0.0000   -0.0002   -0.0000    0.0000   -0.0003   -0.0001    0.0000    0.0003
   210 H18    2px        0.0000   -0.0000    0.0000    0.0000    0.0000   -0.0000    0.0001    0.0000    0.0000   -0.0004
   211 H18    2py       -0.0000   -0.0000   -0.0000    0.0000    0.0000   -0.0000    0.0000   -0.0000   -0.0000    0.0001
   212 H18    2pz        0.0000    0.0000   -0.0000   -0.0000    0.0000   -0.0000   -0.0000    0.0000    0.0000   -0.0000
 
 
      Orbital                11        12        13        14        15        16        17        18        19        20
      Energy            -1.3580   -1.2506   -1.2097   -1.0228   -0.9671   -0.9095   -0.8071   -0.7720   -0.7083   -0.6926
      Occ. No.           2.0000    2.0000    2.0000    2.0000    2.0000    2.0000    2.0000    2.0000    2.0000    2.0000
 
     1 C1     1s         0.0044    0.0069    0.0025   -0.0179   -0.0008    0.0066    0.0167   -0.0000   -0.0049    0.0055
     2 C1     2s         0.0011   -0.1280    0.0071    0.2580   -0.0530   -0.0782   -0.3802    0.0329    0.2013   -0.1586
     3 C1     3s         0.0166    0.0001    0.0127   -0.0306   -0.0062    0.0122    0.0135    0.0042   -0.0022    0.0179
     4 C1     4s         0.0046    0.0010    0.0037   -0.0089   -0.0017    0.0043    0.0043    0.0015   -0.0024    0.0042
     5 C1     2px        0.0312   -0.1272    0.0068   -0.0196    0.1056   -0.0999   -0.1364    0.0057   -0.1247    0.2726
     6 C1     3px        0.0104    0.0691    0.0174   -0.0501   -0.0065    0.0288    0.0210    0.0046    0.0470   -0.0768
     7 C1     4px        0.0063   -0.0188    0.0018   -0.0114    0.0167   -0.0087   -0.0111    0.0012   -0.0044    0.0160
     8 C1     2py        0.0094    0.0433    0.0170   -0.1624    0.0585    0.0061   -0.0415    0.0339   -0.0761   -0.0924
     9 C1     3py        0.0347   -0.0367    0.0183    0.0037   -0.0453    0.0436    0.0146   -0.0108    0.0201    0.0355
    10 C1     4py        0.0024    0.0068    0.0040   -0.0284    0.0063    0.0045   -0.0060    0.0006    0.0008   -0.0097
    11 C1     2pz       -0.0028    0.0262    0.0028   -0.0270    0.0085    0.0028   -0.0174    0.0116   -0.0196   -0.0408
    12 C1     3pz        0.0059   -0.0128    0.0015    0.0183   -0.0142    0.0084   -0.0025   -0.0004    0.0020    0.0147
    13 C1     4pz        0.0003    0.0010    0.0006   -0.0010   -0.0011    0.0017   -0.0019    0.0015   -0.0019   -0.0036
    14 C1     3d2-       0.0043   -0.0137   -0.0002    0.0075   -0.0099    0.0076   -0.0099    0.0066   -0.0146    0.0094
    15 C1     3d1-      -0.0021    0.0048    0.0002    0.0036   -0.0027    0.0003   -0.0031    0.0004    0.0055   -0.0080
    16 C1     3d0        0.0010    0.0069    0.0002   -0.0103   -0.0007    0.0056    0.0138   -0.0007   -0.0026    0.0021
    17 C1     3d1+      -0.0000    0.0007   -0.0002    0.0018   -0.0021    0.0016   -0.0037    0.0028   -0.0073    0.0023
    18 C1     3d2+       0.0037   -0.0274   -0.0011    0.0016    0.0133   -0.0129   -0.0104   -0.0001   -0.0128    0.0201
    19 C3     1s        -0.0132    0.0315   -0.0060    0.0345    0.0230   -0.0223    0.0030   -0.0065    0.0003    0.0038
    20 C3     2s         0.0348   -0.1687    0.0157   -0.2791   -0.2598    0.3300   -0.0827    0.0724    0.0464   -0.0014
    21 C3     3s        -0.0323    0.0594   -0.0178    0.0620    0.0340   -0.0164    0.0026   -0.0125   -0.0020    0.0073
    22 C3     4s        -0.0045    0.0138   -0.0026    0.0163    0.0097   -0.0052    0.0016   -0.0039   -0.0028   -0.0000
    23 C3     2px        0.0017    0.0351    0.0129   -0.0230   -0.0478    0.0212    0.0497   -0.0266    0.1616   -0.0914
    24 C3     3px        0.0189   -0.0295    0.0086   -0.0444   -0.0214    0.0137   -0.0176    0.0129   -0.0165    0.0053
    25 C3     4px        0.0047   -0.0016    0.0030   -0.0112   -0.0077    0.0078    0.0051    0.0017    0.0085   -0.0022
    26 C3     2py       -0.0233    0.0933    0.0216    0.0019   -0.0726   -0.0385   -0.1412   -0.0378    0.1308    0.1806
    27 C3     3py       -0.0069   -0.0172    0.0035   -0.0162    0.0101   -0.0286    0.0077    0.0203   -0.0247   -0.0182
    28 C3     4py        0.0101    0.0042    0.0062   -0.0053   -0.0080   -0.0017   -0.0090    0.0047    0.0021    0.0079
    29 C3     2pz       -0.0223   -0.0111   -0.0187    0.0077    0.0367    0.0250   -0.0090    0.1377   -0.2118   -0.1115
    30 C3     3pz        0.0088   -0.0094   -0.0097   -0.0139   -0.0269    0.0025   -0.0037   -0.0118    0.0248    0.0137
    31 C3     4pz       -0.0062   -0.0073   -0.0031   -0.0079   -0.0073    0.0125   -0.0022    0.0107   -0.0003    0.0000
    32 C3     3d2-       0.0007   -0.0181   -0.0003   -0.0026    0.0069   -0.0007    0.0017    0.0058   -0.0167   -0.0038
    33 C3     3d1-       0.0007    0.0039   -0.0052    0.0048    0.0065    0.0018    0.0003    0.0072   -0.0024    0.0004
    34 C3     3d0        0.0036    0.0102   -0.0012    0.0003   -0.0098   -0.0019   -0.0099   -0.0110    0.0201    0.0183
    35 C3     3d1+       0.0022    0.0007   -0.0023    0.0010   -0.0005    0.0007    0.0057   -0.0032    0.0129   -0.0019
    36 C3     3d2+       0.0012    0.0127   -0.0016    0.0040   -0.0029   -0.0002   -0.0136    0.0007    0.0073    0.0051
    37 C4     1s        -0.0390   -0.0087   -0.0052    0.0065    0.0142    0.0092    0.0046    0.0158   -0.0028   -0.0031
    38 C4     2s         0.3668   -0.0251    0.1245   -0.1122   -0.2278   -0.0420   -0.0922   -0.3914    0.0798    0.0889
    39 C4     3s        -0.0028   -0.0287    0.0103    0.0108    0.0121    0.0224    0.0053    0.0083   -0.0037   -0.0025
    40 C4     4s         0.0028   -0.0070    0.0027    0.0043    0.0047    0.0061    0.0020    0.0047   -0.0035   -0.0025
    41 C4     2px       -0.0296   -0.0015    0.0727   -0.0222   -0.0329   -0.0322   -0.0029   -0.0556   -0.0093   -0.0133
    42 C4     3px        0.0263    0.0128   -0.0188   -0.0081    0.0231    0.0156   -0.0043    0.0087    0.0058    0.0123
    43 C4     4px       -0.0082   -0.0012    0.0145   -0.0066   -0.0021   -0.0013   -0.0005   -0.0027    0.0011   -0.0011
    44 C4     2py       -0.0327    0.0208    0.1615    0.0003   -0.0095   -0.0705   -0.0120   -0.1042   -0.1169   -0.0705
    45 C4     3py        0.0416    0.0276   -0.0090   -0.0184    0.0478    0.0837   -0.0195    0.0233    0.0538    0.0313
    46 C4     4py       -0.0089    0.0068    0.0339   -0.0028    0.0044    0.0004   -0.0049   -0.0052   -0.0039   -0.0019
    47 C4     2pz       -0.0940   -0.0472    0.0091   -0.0815   -0.1184   -0.0032   -0.0242    0.0142    0.1586    0.1037
    48 C4     3pz        0.0383    0.0186   -0.0695    0.0235    0.0013   -0.0961    0.0276    0.0005   -0.0607   -0.0421
    49 C4     4pz       -0.0266   -0.0056   -0.0051   -0.0074   -0.0164   -0.0124    0.0017    0.0041    0.0028    0.0014
    50 C4     3d2-       0.0210    0.0034    0.0094    0.0002   -0.0069   -0.0123   -0.0012   -0.0092   -0.0055   -0.0006
    51 C4     3d1-       0.0256    0.0089   -0.0163    0.0059    0.0047   -0.0066    0.0013    0.0156    0.0059    0.0073
    52 C4     3d0        0.0131   -0.0008   -0.0162   -0.0064   -0.0036    0.0160   -0.0070    0.0005    0.0108    0.0094
    53 C4     3d1+       0.0207    0.0048   -0.0097   -0.0006   -0.0020    0.0002    0.0014    0.0023    0.0112    0.0030
    54 C4     3d2+      -0.0115   -0.0002   -0.0134    0.0014    0.0070    0.0090    0.0002    0.0117    0.0058    0.0032
    55 C6     1s        -0.0094   -0.0032   -0.0351   -0.0116   -0.0382   -0.0420    0.0069    0.0068   -0.0068   -0.0050
    56 C6     2s         0.0262   -0.0031    0.1560    0.0987    0.2583    0.3626   -0.0530   -0.1091    0.0530    0.0381
    57 C6     3s        -0.0147   -0.0143   -0.0623   -0.0109   -0.0718   -0.0698    0.0184    0.0105   -0.0183   -0.0144
    58 C6     4s        -0.0006   -0.0047   -0.0104   -0.0009   -0.0153   -0.0144    0.0048    0.0030   -0.0048   -0.0039
    59 C6     2px       -0.0040   -0.0030    0.0013   -0.0010    0.0030    0.0120    0.0068    0.0493    0.0479    0.0237
    60 C6     3px       -0.0007   -0.0024    0.0027   -0.0002    0.0021    0.0101   -0.0015   -0.0024   -0.0024   -0.0044
    61 C6     4px       -0.0001    0.0001    0.0009    0.0010    0.0008    0.0005    0.0006    0.0030    0.0026    0.0011
    62 C6     2py       -0.0165    0.0006   -0.0519   -0.0139   -0.0010    0.0294   -0.0129    0.0523    0.1404    0.1150
    63 C6     3py        0.0017    0.0053    0.0124    0.0006    0.0165    0.0115   -0.0024    0.0020   -0.0171   -0.0119
    64 C6     4py       -0.0018    0.0003    0.0016    0.0028    0.0083    0.0109   -0.0015    0.0008    0.0073    0.0058
    65 C6     2pz        0.0177   -0.0028    0.0924    0.0219    0.0166   -0.0303    0.0451    0.1401   -0.0569   -0.0572
    66 C6     3pz       -0.0033   -0.0089   -0.0167   -0.0020   -0.0164    0.0021   -0.0019   -0.0065    0.0123    0.0118
    67 C6     4pz        0.0033   -0.0013    0.0021   -0.0034   -0.0124   -0.0164    0.0045    0.0115   -0.0028   -0.0026
    68 C6     3d2-       0.0003    0.0001   -0.0006    0.0005    0.0007    0.0008   -0.0005   -0.0059   -0.0041   -0.0036
    69 C6     3d1-      -0.0038   -0.0004   -0.0171   -0.0032   -0.0034    0.0036   -0.0034   -0.0050    0.0116    0.0095
    70 C6     3d0        0.0030    0.0005    0.0163    0.0038    0.0054   -0.0013    0.0049    0.0154   -0.0070   -0.0073
    71 C6     3d1+       0.0001    0.0001    0.0001    0.0005    0.0013    0.0011    0.0002    0.0025   -0.0006   -0.0005
    72 C6     3d2+      -0.0016   -0.0004   -0.0041   -0.0014   -0.0016    0.0007    0.0001    0.0057    0.0089    0.0060
    73 C19    1s         0.0018    0.0072    0.0022   -0.0553    0.0394   -0.0197   -0.0135   -0.0025    0.0087   -0.0017
    74 C19    2s         0.0097   -0.0195    0.0112    0.3161   -0.2819    0.1739    0.0898    0.0179   -0.0899    0.0340
    75 C19    3s         0.0101    0.0145    0.0132   -0.1080    0.0672   -0.0279   -0.0343   -0.0057    0.0173    0.0034
    76 C19    4s         0.0033    0.0012    0.0041   -0.0245    0.0157   -0.0065   -0.0098   -0.0013    0.0053    0.0007
    77 C19    2px        0.0024   -0.0357    0.0026    0.0457    0.0009   -0.0263   -0.0432   -0.0243    0.0797    0.0780
    78 C19    3px       -0.0007   -0.0103    0.0030   -0.0076    0.0077   -0.0032    0.0117   -0.0042   -0.0061   -0.0020
    79 C19    4px       -0.0013   -0.0003   -0.0007   -0.0080    0.0114   -0.0092   -0.0031   -0.0025    0.0067    0.0005
    80 C19    2py        0.0007   -0.0025    0.0033    0.0486   -0.0127   -0.0143   -0.0723   -0.0104    0.1827   -0.1364
    81 C19    3py        0.0020    0.0077    0.0046   -0.0296    0.0174   -0.0036    0.0070    0.0023   -0.0206    0.0202
    82 C19    4py       -0.0005   -0.0005    0.0001   -0.0140    0.0141   -0.0097   -0.0129    0.0006    0.0070   -0.0044
    83 C19    2pz        0.0020    0.0031    0.0012    0.0083   -0.0061    0.0006   -0.0189   -0.0007    0.0340   -0.0408
    84 C19    3pz        0.0035    0.0049    0.0014   -0.0086   -0.0000    0.0034   -0.0005    0.0013   -0.0059    0.0033
    85 C19    4pz        0.0006    0.0003    0.0002   -0.0036    0.0029   -0.0021   -0.0030   -0.0006    0.0007   -0.0009
    86 C19    3d2-       0.0003   -0.0054   -0.0004    0.0115   -0.0030   -0.0023   -0.0082   -0.0010    0.0128   -0.0052
    87 C19    3d1-      -0.0001    0.0009   -0.0001    0.0040   -0.0021    0.0001   -0.0018   -0.0003    0.0067   -0.0067
    88 C19    3d0        0.0002    0.0009   -0.0000   -0.0071    0.0033   -0.0001    0.0028    0.0011   -0.0081    0.0020
    89 C19    3d1+       0.0003   -0.0018    0.0001    0.0027   -0.0001   -0.0013   -0.0028   -0.0008    0.0023    0.0050
    90 C19    3d2+       0.0007   -0.0022   -0.0002   -0.0062    0.0036   -0.0004    0.0036    0.0007   -0.0112    0.0070
    91 N2     1s        -0.0065    0.0408    0.0003   -0.0029   -0.0052    0.0019   -0.0050    0.0017   -0.0028    0.0007
    92 N2     2s         0.0437   -0.5823   -0.0270   -0.0087    0.2023   -0.1282    0.1335   -0.0119   -0.1343    0.0034
    93 N2     3s        -0.0172    0.0797   -0.0030   -0.0064   -0.0011   -0.0015   -0.0121    0.0079   -0.0105    0.0051
    94 N2     4s        -0.0042    0.0258   -0.0002   -0.0002   -0.0025    0.0010   -0.0040    0.0021    0.0003    0.0008
    95 N2     2px        0.0039    0.0294    0.0087   -0.1350   -0.0345    0.1210    0.3710   -0.0203    0.0479   -0.2791
    96 N2     3px       -0.0006   -0.0052    0.0093    0.0237    0.0295   -0.0479   -0.0861   -0.0009    0.0059    0.0532
    97 N2     4px        0.0021   -0.0059    0.0026   -0.0046    0.0056   -0.0027    0.0004   -0.0019    0.0027    0.0070
    98 N2     2py       -0.0009   -0.0164    0.0044   -0.1260   -0.0506    0.1244   -0.1803    0.1572   -0.2898   -0.0645
    99 N2     3py       -0.0161    0.0328    0.0019    0.0345    0.0435   -0.0511    0.0178   -0.0367    0.0594    0.0104
   100 N2     4py       -0.0005    0.0118    0.0008   -0.0010    0.0040   -0.0035   -0.0084   -0.0010    0.0011    0.0037
   101 N2     2pz       -0.0094    0.0161    0.0073    0.0125   -0.0121    0.0038   -0.1096    0.0582   -0.1498   -0.0042
   102 N2     3pz       -0.0022   -0.0349    0.0031    0.0189   -0.0071   -0.0060    0.0369   -0.0225    0.0249   -0.0005
   103 N2     4pz       -0.0020    0.0021   -0.0003    0.0037   -0.0019    0.0002   -0.0024   -0.0008    0.0013    0.0012
   104 N2     3d2-       0.0010   -0.0077   -0.0003   -0.0022   -0.0061    0.0090   -0.0001    0.0049   -0.0070   -0.0035
   105 N2     3d1-      -0.0007   -0.0014   -0.0006    0.0032    0.0043   -0.0048    0.0104   -0.0035    0.0059   -0.0021
   106 N2     3d0       -0.0006    0.0140    0.0004    0.0014   -0.0021    0.0006    0.0075   -0.0032    0.0080   -0.0018
   107 N2     3d1+      -0.0003    0.0028    0.0001    0.0027   -0.0017    0.0004   -0.0076    0.0028   -0.0034    0.0041
   108 N2     3d2+      -0.0000   -0.0041    0.0001    0.0112    0.0055   -0.0116   -0.0198   -0.0006    0.0026    0.0112
   109 N5     1s        -0.0196   -0.0015   -0.0422   -0.0017    0.0007    0.0032   -0.0011   -0.0035   -0.0035   -0.0024
   110 N5     2s         0.1326    0.0230    0.5779    0.0419   -0.0255   -0.2216    0.0828    0.1575   -0.1173   -0.0925
   111 N5     3s        -0.0487   -0.0045   -0.0781   -0.0024   -0.0071   -0.0119    0.0035   -0.0006   -0.0164   -0.0120
   112 N5     4s        -0.0115   -0.0021   -0.0259   -0.0011   -0.0030   -0.0009    0.0002   -0.0020   -0.0019   -0.0012
   113 N5     2px       -0.0165   -0.0006   -0.0104    0.0119    0.0279    0.0159    0.0201    0.1674    0.0842    0.0592
   114 N5     3px        0.0039    0.0074    0.0121    0.0095    0.0029   -0.0059   -0.0081   -0.0390   -0.0171   -0.0067
   115 N5     4px       -0.0018    0.0024    0.0035    0.0038    0.0025   -0.0012    0.0002    0.0030    0.0007    0.0004
   116 N5     2py       -0.0260    0.0014   -0.0135    0.0386    0.1287    0.1038    0.0534    0.3357    0.1287    0.0618
   117 N5     3py        0.0197    0.0084    0.0098   -0.0161   -0.0248   -0.0390   -0.0148   -0.0862   -0.0172   -0.0068
   118 N5     4py       -0.0045    0.0021    0.0065    0.0013    0.0042   -0.0022    0.0005    0.0035    0.0020    0.0012
   119 N5     2pz       -0.0295   -0.0161    0.0074   -0.0390   -0.1266   -0.1179    0.0271    0.1401    0.1875    0.1432
   120 N5     3pz       -0.0129   -0.0124    0.0327    0.0264    0.0475    0.0815   -0.0002   -0.0380   -0.0359   -0.0305
   121 N5     4pz        0.0066   -0.0019    0.0089    0.0018   -0.0003    0.0035    0.0025    0.0066    0.0016   -0.0002
   122 N5     3d2-       0.0042    0.0012    0.0104   -0.0008   -0.0042   -0.0071   -0.0004   -0.0057   -0.0026   -0.0007
   123 N5     3d1-       0.0014    0.0008   -0.0098   -0.0001   -0.0026   -0.0076    0.0027    0.0086    0.0028    0.0026
   124 N5     3d0       -0.0031   -0.0005    0.0039    0.0027    0.0078    0.0070    0.0024    0.0154    0.0031    0.0007
   125 N5     3d1+       0.0009    0.0005    0.0009    0.0011    0.0017   -0.0013    0.0017    0.0064    0.0005    0.0001
   126 N5     3d2+      -0.0037   -0.0007   -0.0125    0.0007    0.0029    0.0042    0.0006    0.0058    0.0016    0.0010
   127 O7     1s         0.0015   -0.0036   -0.0004   -0.0038    0.0019    0.0004    0.0139   -0.0030   -0.0092    0.0229
   128 O7     2s        -0.0865    0.2956    0.0084   -0.1993    0.0605    0.0244    0.3581   -0.0735   -0.1439    0.3759
   129 O7     3s        -0.0003    0.0037   -0.0006   -0.0175    0.0077    0.0003    0.0437   -0.0098   -0.0252    0.0649
   130 O7     4s         0.0008   -0.0016   -0.0002   -0.0027    0.0016   -0.0005    0.0084   -0.0021   -0.0047    0.0134
   131 O7     2px       -0.0058   -0.0062   -0.0007   -0.0042    0.0196   -0.0287   -0.1731    0.0379    0.0386   -0.1993
   132 O7     3px        0.0034   -0.0087   -0.0002   -0.0065   -0.0058    0.0054    0.0249   -0.0090    0.0022    0.0145
   133 O7     4px        0.0010   -0.0021    0.0002   -0.0009   -0.0023    0.0018    0.0025   -0.0011    0.0011    0.0004
   134 O7     2py        0.0131   -0.0427   -0.0013   -0.0315    0.0196    0.0023    0.1625   -0.0376   -0.1699    0.4267
   135 O7     3py       -0.0041   -0.0028   -0.0006    0.0119   -0.0064    0.0004   -0.0256    0.0047    0.0236   -0.0471
   136 O7     4py       -0.0003   -0.0002    0.0001   -0.0010   -0.0017    0.0017   -0.0030    0.0006    0.0031   -0.0069
   137 O7     2pz        0.0009   -0.0060   -0.0017   -0.0069    0.0063    0.0013    0.0521   -0.0093   -0.0404    0.1145
   138 O7     3pz       -0.0048    0.0020   -0.0022    0.0026    0.0027   -0.0038   -0.0059    0.0032    0.0048   -0.0113
   139 O7     4pz       -0.0016    0.0005   -0.0007   -0.0003    0.0009   -0.0009   -0.0007    0.0008    0.0003   -0.0016
   140 O7     3d2-       0.0015   -0.0031   -0.0001    0.0010   -0.0020    0.0023    0.0119   -0.0024   -0.0045    0.0165
   141 O7     3d1-      -0.0008    0.0030    0.0002   -0.0003   -0.0009    0.0007   -0.0023    0.0007    0.0037   -0.0092
   142 O7     3d0        0.0009   -0.0036   -0.0002    0.0015    0.0000   -0.0002    0.0043   -0.0013   -0.0026    0.0099
   143 O7     3d1+       0.0002   -0.0007   -0.0002    0.0009   -0.0006    0.0005    0.0034   -0.0005   -0.0011    0.0041
   144 O7     3d2+       0.0009   -0.0049   -0.0002   -0.0025    0.0038   -0.0026   -0.0005   -0.0001   -0.0085    0.0146
   145 O8     1s        -0.0237   -0.0027    0.0039    0.0005    0.0031   -0.0001    0.0023    0.0119   -0.0010   -0.0023
   146 O8     2s         0.6669    0.1340   -0.3273    0.0948    0.1505    0.0098    0.0650    0.3393   -0.0115   -0.0346
   147 O8     3s        -0.0290   -0.0005   -0.0096    0.0047    0.0138   -0.0011    0.0076    0.0436   -0.0022   -0.0066
   148 O8     4s        -0.0125   -0.0013   -0.0000    0.0001    0.0016   -0.0007    0.0010    0.0090   -0.0002   -0.0012
   149 O8     2px        0.0629    0.0124   -0.0136   -0.0031   -0.0036   -0.0121   -0.0076   -0.0813   -0.0261   -0.0002
   150 O8     3px       -0.0171    0.0013   -0.0001   -0.0034    0.0081   -0.0025    0.0039    0.0119    0.0021   -0.0007
   151 O8     4px       -0.0005    0.0008    0.0003   -0.0021    0.0016   -0.0007    0.0005    0.0012    0.0013    0.0001
   152 O8     2py        0.0789    0.0253   -0.0104    0.0090    0.0024   -0.0361   -0.0090   -0.1293   -0.0776   -0.0395
   153 O8     3py       -0.0274    0.0050   -0.0052   -0.0014    0.0103   -0.0107    0.0056    0.0162    0.0074    0.0014
   154 O8     4py       -0.0019    0.0025   -0.0015   -0.0015    0.0026   -0.0020    0.0002    0.0016    0.0028    0.0010
[...]
AIVX     1  Mu1.0001  In1.029 Se1.046               0.08752748     -0.00014741      0.00024218     -0.00000004
AIVX     1  Mu1.0001  In1.018 Se1.047               0.29816710     -0.00002540     -0.00006903      0.00000000
AIVX     1  Mu1.0001  In1.021 Se1.047               0.24969051     -0.00035499      0.00039060     -0.00000014
AIVX     1  Mu1.0001  In1.022 Se1.047               0.15214047     -0.00019451      0.00000033     -0.00000000
AIVX     1  Mu1.0001  In1.024 Se1.047               0.16433087      0.00022946     -0.00038401     -0.00000009
AIVX     1  Mu1.0001  In1.025 Se1.047               0.11905387      0.00023280     -0.00017692     -0.00000004
AIVX     1  Mu1.0001  In1.026 Se1.047               0.28737882      0.00001638     -0.00009611     -0.00000000
AIVX     1  Mu1.0001  In1.027 Se1.047               0.21139058      0.00013734     -0.00017338     -0.00000002
AIVX     1  Mu1.0001  In1.028 Se1.047               0.27027352      0.00030141     -0.00027886     -0.00000008
AIVX     1  Mu1.0001  In1.029 Se1.047               0.07642081      0.00009642     -0.00007135     -0.00000001
AIVX     1  Mu1.0001  In1.018 Se1.048               0.29677295      0.00015033     -0.00022456     -0.00000003
AIVX     1  Mu1.0001  In1.021 Se1.048               0.24829637     -0.00013742      0.00022293     -0.00000003
AIVX     1  Mu1.0001  In1.022 Se1.048               0.15074632     -0.00003602      0.00002657     -0.00000000
AIVX     1  Mu1.0001  In1.024 Se1.048               0.16293673      0.00010052     -0.00017421     -0.00000002
AIVX     1  Mu1.0001  In1.025 Se1.048               0.11765972      0.00013883     -0.00024165     -0.00000003
AIVX     1  Mu1.0001  In1.026 Se1.048               0.28598467     -0.00005447      0.00007818     -0.00000000
AIVX     1  Mu1.0001  In1.027 Se1.048               0.20999643     -0.00014600      0.00026880     -0.00000004
AIVX     1  Mu1.0001  In1.028 Se1.048               0.26887938     -0.00001287      0.00003522     -0.00000000
AIVX     1  Mu1.0001  In1.029 Se1.048               0.07502666      0.00002956     -0.00003592     -0.00000000
AIVX     1  Mu1.0001  In1.021 Se1.049               0.28442008      0.00018558     -0.00019759     -0.00000004
AIVX     1  Mu1.0001  In1.022 Se1.049               0.18687004      0.00022931     -0.00027447     -0.00000006
AIVX     1  Mu1.0001  In1.024 Se1.049               0.19906044      0.00003518     -0.00009660     -0.00000000
AIVX     1  Mu1.0001  In1.025 Se1.049               0.15378344     -0.00025463      0.00035403     -0.00000009
AIVX     1  Mu1.0001  In1.027 Se1.049               0.24612015      0.00009467     -0.00016256     -0.00000002
AIVX     1  Mu1.0001  In1.029 Se1.049               0.11115038     -0.00003570     -0.00000558      0.00000000
AIVX     1  Mu1.0001  In1.021 Se1.050               0.27839964      0.00024001     -0.00032723     -0.00000008
AIVX     1  Mu1.0001  In1.022 Se1.050               0.18084959      0.00003634      0.00008215      0.00000000
AIVX     1  Mu1.0001  In1.024 Se1.050               0.19304000      0.00000088     -0.00001770     -0.00000000
AIVX     1  Mu1.0001  In1.025 Se1.050               0.14776299     -0.00017568      0.00022241     -0.00000004
AIVX     1  Mu1.0001  In1.027 Se1.050               0.24009970     -0.00016321      0.00025912     -0.00000004
AIVX     1  Mu1.0001  In1.028 Se1.050               0.29898265     -0.00006899      0.00000501     -0.00000000
AIVX     1  Mu1.0001  In1.029 Se1.050               0.10512993      0.00002467     -0.00010121     -0.00000000
AIVX     1  Mu1.0001  In1.021 Se1.051               0.29699652      0.00045240     -0.00046120     -0.00000021
AIVX     1  Mu1.0001  In1.022 Se1.051               0.19944648      0.00040539     -0.00030232     -0.00000012
AIVX     1  Mu1.0001  In1.024 Se1.051               0.21163688     -0.00008109      0.00012584     -0.00000001
AIVX     1  Mu1.0001  In1.025 Se1.051               0.16635988     -0.00035479      0.00033917     -0.00000012
AIVX     1  Mu1.0001  In1.027 Se1.051               0.25869659      0.00039981     -0.00075344     -0.00000030
AIVX     1  Mu1.0001  In1.029 Se1.051               0.12372682     -0.00006031     -0.00002154      0.00000000
AIVX     1  Mu1.0001  In1.022 Se1.052               0.23857802     -0.00006280      0.00009769     -0.00000001
AIVX     1  Mu1.0001  In1.024 Se1.052               0.25076843      0.00000421      0.00001472      0.00000000
AIVX     1  Mu1.0001  In1.025 Se1.052               0.20549142      0.00013323     -0.00023223     -0.00000003
AIVX     1  Mu1.0001  In1.027 Se1.052               0.29782813      0.00007214     -0.00011358     -0.00000001
AIVX     1  Mu1.0001  In1.029 Se1.052               0.16285836     -0.00008994      0.00014976     -0.00000001
AIVX     1  Mu1.0001  In1.022 Se1.053               0.24360087     -0.00010824      0.00006499     -0.00000001
AIVX     1  Mu1.0001  In1.024 Se1.053               0.25579128     -0.00004729      0.00007398     -0.00000000
AIVX     1  Mu1.0001  In1.025 Se1.053               0.21051428      0.00019724     -0.00023528     -0.00000005
AIVX     1  Mu1.0001  In1.029 Se1.053               0.16788121      0.00009050     -0.00012449     -0.00000001
AIVX     1  Mu1.0001  In1.022 Se1.054               0.27443079      0.00027178     -0.00030393     -0.00000008
AIVX     1  Mu1.0001  In1.024 Se1.054               0.28662119     -0.00002452      0.00001382     -0.00000000
AIVX     1  Mu1.0001  In1.025 Se1.054               0.24134419     -0.00007036      0.00002437     -0.00000000
AIVX     1  Mu1.0001  In1.029 Se1.054               0.19871112     -0.00023468      0.00033905     -0.00000008
AIVX     1  Mu1.0001  In1.022 Se1.055               0.26055903      0.00067169     -0.00054011     -0.00000036
AIVX     1  Mu1.0001  In1.024 Se1.055               0.27274944     -0.00005278      0.00002599     -0.00000000
AIVX     1  Mu1.0001  In1.025 Se1.055               0.22747243     -0.00061136      0.00059885     -0.00000037
AIVX     1  Mu1.0001  In1.029 Se1.055               0.18483937     -0.00019918      0.00015443     -0.00000003
AIVX     1  Mu1.0001  In1.025 Se1.056               0.28447222     -0.00007963      0.00007012     -0.00000001
AIVX     1  Mu1.0001  In1.029 Se1.056               0.24183916     -0.00007529      0.00006573     -0.00000000
AIVX     1  Mu1.0001  In1.025 Se1.057               0.27658621      0.00014944     -0.00022780     -0.00000003
AIVX     1  Mu1.0001  In1.029 Se1.057               0.23395314     -0.00005362      0.00007464     -0.00000000
AIVX     1  Mu1.0001  In1.029 Se1.059               0.26183597      0.00005476     -0.00002948     -0.00000000
AIVX     1  Mu1.0001  In1.025 Se1.060               0.29514806      0.00013603     -0.00015385     -0.00000002
AIVX     1  Mu1.0001  In1.029 Se1.060               0.25251500     -0.00002046      0.00002531     -0.00000000
AIVX     1  Mu1.0001  In1.022 Se1.061               0.29011582     -0.00028370      0.00054745     -0.00000016
AIVX     1  Mu1.0001  In1.025 Se1.061               0.25702922     -0.00001199     -0.00008871      0.00000000
AIVX     1  Mu1.0001  In1.029 Se1.061               0.21439616     -0.00003016      0.00001575     -0.00000000
AIVX     1  Mu1.0001  In1.029 Se1.062               0.26598139     -0.00020259      0.00014264     -0.00000003
AIVX     1  Mu1.0001  In1.029 Se1.063               0.27935360      0.00000584     -0.00001269     -0.00000000
--
 
   (Skipping property calculation,
    use PROP keyword to activate)
--
 
  Total CASPT2 energies:
::    CASPT2 Root  1     Total energy:   -455.38194644
::    CASPT2 Root  2     Total energy:   -455.17490161
::    CASPT2 Root  3     Total energy:   -455.16881228
::    CASPT2 Root  4     Total energy:   -455.12690570
::    CASPT2 Root  5     Total energy:   -455.09835415
::    CASPT2 Root  6     Total energy:   -455.12731585
::    CASPT2 Root  7     Total energy:   -455.06922065
 
++ Multi-State CASPT2 section:
********************************************************************************
  MULTI-STATE CASPT2 SECTION
--------------------------------------------------------------------------------
 
  Output diagonal energies have been shifted. Add   -455.000000000000     
 
  Effective Hamiltonian matrix (Symmetric):
 
                1               2               3               4               5
   1        -0.38194644
   2        -0.00082496     -0.17490161
   3        -0.00030240      0.00000533     -0.16881228
   4         0.01067435      0.00024002      0.00016290     -0.12690570
   5        -0.00538856     -0.00344037      0.00264034     -0.00337768     -0.09835415
   6         0.01856983      0.00468067      0.00138938      0.00026773      0.01172012
   7        -0.00040849      0.00021308      0.00103661      0.00007480      0.00019185
 
                6               7
   6        -0.12731585
   7        -0.00247017     -0.06922065
 
       Total MS-CASPT2 energies:
::    MS-CASPT2 Root  1     Total energy:   -455.38387103
::    MS-CASPT2 Root  2     Total energy:   -455.17559108
::    MS-CASPT2 Root  3     Total energy:   -455.16894562
::    MS-CASPT2 Root  4     Total energy:   -455.13063908
::    MS-CASPT2 Root  5     Total energy:   -455.12553225
::    MS-CASPT2 Root  6     Total energy:   -455.09377881
::    MS-CASPT2 Root  7     Total energy:   -455.06909880
 
       Eigenvectors:
            0.99622748     -0.01480787     -0.00286993      0.04509886      0.07249100
            0.00596970      0.99255643      0.00187909      0.10665966      0.05441089
            0.00163853     -0.00238729      0.99907191      0.00528338      0.01382767
           -0.04103297      0.00306473     -0.00570583     -0.48721287      0.86730500
            0.02137554      0.05935854     -0.03386218     -0.32384788     -0.08037262
           -0.07315302     -0.10513338     -0.02335213      0.80198027      0.48218452
            0.00070634     -0.00457249     -0.01090980      0.03370026      0.02033875
 
           -0.00012824     -0.00379814
           -0.02134486      0.00036869
            0.03921334      0.00949363
           -0.09316103      0.00100737
            0.93991009     -0.01023825
            0.32452337     -0.04539387
            0.02411076      0.99886379
 
--
 
  THE ORIGINAL CI ARRAYS ARE NOW MIXED AS LINEAR
  COMBINATIONS, GIVEN BY THE EIGENVECTORS.
  A NEW JOBIPH FILE NAMED 'JOBMIX' IS PREPARED.
********************************************************************************
 
++ Mixed CI coefficients:
  The CI coefficients for the MIXED state nr.   1
--------------------------------------------------------------------------------
 CI COEFFICIENTS LARGER THAN  0.50D-01
  Occupation of active orbitals, and spin coupling
  of open shells. (u,d: Spin up or down).
  SGUGA info is (Midvert:IsyUp:UpperWalk/LowerWalk)
        Conf  SGUGA info        Occupation    Coefficient         Weight
           1  ( 1:1:   1/   1)   22222200        0.967967       0.936960
           3  ( 1:1:   3/   1)   2222u2d0        0.057606       0.003318
           6  ( 1:1:   6/   1)   22220220       -0.088494       0.007831
          15  ( 1:1:  15/   1)   22222002       -0.078591       0.006176
          61  ( 2:1:   1/   3)   2u2222d0       -0.080514       0.006483
          63  ( 2:1:   3/   3)   2u22d220        0.060114       0.003614
          84  ( 2:1:   4/   4)   u222220d       -0.101840       0.010371
         171  ( 3:1:   1/   8)   20222220       -0.094769       0.008981
         195  ( 3:1:   5/  10)   02222202       -0.080014       0.006402
 
  The CI coefficients for the MIXED state nr.   2
--------------------------------------------------------------------------------
 CI COEFFICIENTS LARGER THAN  0.50D-01
  Occupation of active orbitals, and spin coupling
  of open shells. (u,d: Spin up or down).
  SGUGA info is (Midvert:IsyUp:UpperWalk/LowerWalk)
        Conf  SGUGA info        Occupation    Coefficient         Weight
           3  ( 1:1:   3/   1)   2222u2d0       -0.208483       0.043465
          21  ( 2:1:   1/   1)   222u22d0        0.934541       0.873367
          23  ( 2:1:   3/   1)   222ud220       -0.097993       0.009603
          35  ( 2:1:  15/   1)   222u20d2        0.073292       0.005372
          63  ( 2:1:   3/   3)   2u22d220       -0.051234       0.002625
         111  ( 3:1:   1/   2)   22ud2220        0.055625       0.003094
         121  ( 3:1:   1/   3)   2u2d2220        0.187795       0.035267
         213  ( 4:1:   1/   3)   u22u22dd       -0.081413       0.006628
         270  ( 5:1:   2/   9)   022u22d2       -0.080608       0.006498
 
  The CI coefficients for the MIXED state nr.   3
--------------------------------------------------------------------------------
 CI COEFFICIENTS LARGER THAN  0.50D-01
  Occupation of active orbitals, and spin coupling
  of open shells. (u,d: Spin up or down).
  SGUGA info is (Midvert:IsyUp:UpperWalk/LowerWalk)
        Conf  SGUGA info        Occupation    Coefficient         Weight
           7  ( 1:1:   7/   1)   22222u0d       -0.272114       0.074046
           8  ( 1:1:   8/   1)   2222u20d       -0.235422       0.055423
          15  ( 1:1:  15/   1)   22222002       -0.074705       0.005581
          44  ( 2:1:   4/   2)   22u2220d       -0.877142       0.769379
          46  ( 2:1:   6/   2)   22u2d2ud       -0.060347       0.003642
          48  ( 2:1:   8/   2)   22u2u2dd       -0.103654       0.010744
          52  ( 2:1:  12/   2)   22u2022d        0.073286       0.005371
          53  ( 2:1:  13/   2)   22u22d02       -0.134006       0.017958
         145  ( 3:1:   5/   5)   22022202        0.069435       0.004821
         165  ( 3:1:   5/   7)   u2d22202       -0.131907       0.017399
         219  ( 4:1:   1/   4)   2uu222dd       -0.069729       0.004862
         221  ( 4:1:   3/   4)   2uu2d22d        0.062272       0.003878
         293  ( 5:1:   1/  15)   20u2222d       -0.095265       0.009075
 
  The CI coefficients for the MIXED state nr.   4
--------------------------------------------------------------------------------
 CI COEFFICIENTS LARGER THAN  0.50D-01
  Occupation of active orbitals, and spin coupling
  of open shells. (u,d: Spin up or down).
  SGUGA info is (Midvert:IsyUp:UpperWalk/LowerWalk)
        Conf  SGUGA info        Occupation    Coefficient         Weight
           2  ( 1:1:   2/   1)   22222ud0       -0.057709       0.003330
           3  ( 1:1:   3/   1)   2222u2d0        0.747174       0.558268
           6  ( 1:1:   6/   1)   22220220        0.153201       0.023470
           7  ( 1:1:   7/   1)   22222u0d        0.492585       0.242640
          18  ( 1:1:  18/   1)   2222u0d2        0.063036       0.003974
          21  ( 2:1:   1/   1)   222u22d0        0.180315       0.032513
          24  ( 2:1:   4/   1)   222u220d        0.060841       0.003702
          44  ( 2:1:   4/   2)   22u2220d       -0.167499       0.028056
          61  ( 2:1:   1/   3)   2u2222d0        0.052806       0.002789
          63  ( 2:1:   3/   3)   2u22d220        0.176589       0.031184
          88  ( 2:1:   8/   4)   u222u2dd       -0.073626       0.005421
          93  ( 2:1:  13/   4)   u2222d02        0.125670       0.015793
         171  ( 3:1:   1/   8)   20222220       -0.098845       0.009770
         173  ( 3:1:   3/   8)   20222u2d        0.050395       0.002540
         197  ( 3:1:   7/  10)   0222u2d2       -0.058774       0.003454
 
  The CI coefficients for the MIXED state nr.   5
--------------------------------------------------------------------------------
 CI COEFFICIENTS LARGER THAN  0.50D-01
  Occupation of active orbitals, and spin coupling
  of open shells. (u,d: Spin up or down).
  SGUGA info is (Midvert:IsyUp:UpperWalk/LowerWalk)
        Conf  SGUGA info        Occupation    Coefficient         Weight
           3  ( 1:1:   3/   1)   2222u2d0        0.497439       0.247446
           6  ( 1:1:   6/   1)   22220220        0.089823       0.008068
           7  ( 1:1:   7/   1)   22222u0d       -0.744373       0.554092
           8  ( 1:1:   8/   1)   2222u20d       -0.070764       0.005008
          12  ( 1:1:  12/   1)   2222uudd        0.085769       0.007356
          14  ( 1:1:  14/   1)   22220u2d       -0.057735       0.003333
          21  ( 2:1:   1/   1)   222u22d0        0.106552       0.011353
          44  ( 2:1:   4/   2)   22u2220d        0.238656       0.056957
          63  ( 2:1:   3/   3)   2u22d220        0.120747       0.014580
          67  ( 2:1:   7/   3)   2u222udd       -0.053992       0.002915
          70  ( 2:1:  10/   3)   2u22du2d        0.057591       0.003317
          84  ( 2:1:   4/   4)   u222220d        0.098836       0.009768
          93  ( 2:1:  13/   4)   u2222d02       -0.174322       0.030388
         165  ( 3:1:   5/   7)   u2d22202        0.055562       0.003087
         171  ( 3:1:   1/   8)   20222220       -0.066558       0.004430
         173  ( 3:1:   3/   8)   20222u2d       -0.080682       0.006510
         195  ( 3:1:   5/  10)   02222202       -0.058807       0.003458
 
  The CI coefficients for the MIXED state nr.   6
--------------------------------------------------------------------------------
 CI COEFFICIENTS LARGER THAN  0.50D-01
  Occupation of active orbitals, and spin coupling
  of open shells. (u,d: Spin up or down).
  SGUGA info is (Midvert:IsyUp:UpperWalk/LowerWalk)
        Conf  SGUGA info        Occupation    Coefficient         Weight
           3  ( 1:1:   3/   1)   2222u2d0        0.058044       0.003369
           7  ( 1:1:   7/   1)   22222u0d       -0.110276       0.012161
           8  ( 1:1:   8/   1)   2222u20d        0.880101       0.774579
          10  ( 1:1:  10/   1)   2222udud       -0.057446       0.003300
          24  ( 2:1:   4/   1)   222u220d       -0.259902       0.067549
          26  ( 2:1:   6/   1)   222ud2ud        0.062024       0.003847
          28  ( 2:1:   8/   1)   222uu2dd        0.082134       0.006746
          44  ( 2:1:   4/   2)   22u2220d       -0.195644       0.038277
          66  ( 2:1:   6/   3)   2u22d2ud        0.136316       0.018582
          68  ( 2:1:   8/   3)   2u22u2dd        0.188836       0.035659
         174  ( 3:1:   4/   8)   2022u22d        0.129033       0.016650
 
  The CI coefficients for the MIXED state nr.   7
--------------------------------------------------------------------------------
 CI COEFFICIENTS LARGER THAN  0.50D-01
  Occupation of active orbitals, and spin coupling
  of open shells. (u,d: Spin up or down).
  SGUGA info is (Midvert:IsyUp:UpperWalk/LowerWalk)
        Conf  SGUGA info        Occupation    Coefficient         Weight
           8  ( 1:1:   8/   1)   2222u20d        0.263794       0.069587
          24  ( 2:1:   4/   1)   222u220d        0.858133       0.736392
          25  ( 2:1:   5/   1)   222u2dud       -0.084129       0.007078
          26  ( 2:1:   6/   1)   222ud2ud       -0.216508       0.046876
          27  ( 2:1:   7/   1)   222u2udd       -0.056334       0.003174
          28  ( 2:1:   8/   1)   222uu2dd       -0.291052       0.084711
          68  ( 2:1:   8/   3)   2u22u2dd        0.060010       0.003601
         112  ( 3:1:   2/   2)   22ud22ud       -0.084291       0.007105
         201  ( 4:1:   1/   1)   22uu22dd        0.094689       0.008966
         209  ( 4:1:   3/   2)   2u2ud22d        0.062321       0.003884
         261  ( 5:1:   1/   7)   202u222d        0.077030       0.005934
 
--
 
--- Stop Module: caspt2 at Tue Jun 10 20:08:51 2025 /rc=_RC_ALL_IS_WELL_ ---
*** files: xmldump
    saved to directory /home/pcaah4/diamide_project
--- Module caspt2 spent 7 minutes 10 seconds ---

.##################.
.# Happy landing! #.
.##################.

    Timing: Wall=696.60 User=604.71 System=81.76
******************************************************
*** WorkDir at /srv/COMMUNAL_SCRATCH/12440 cleaned ***
******************************************************
