   This run of MOLCAS is using the pymolcas driver

                             OPE
                             OPE          NMOL  CASOP  ENMOLC A   SO
                 OPE        NMOLC        AS  OP EN  MO LC     AS  OP
                OPENM       OL CA        SO  PE NM  OL CA     SOP EN
                OP EN      MO   LC       AS  OP ENMOL  CASO   PENMOL
                OP  EN     MO   LC       AS  OP EN     MO     LC ASO
               OP   E  NMOL  C  AS       OP  EN MO     LC     AS  OP
               OP  E   NMO   LC AS        OPEN  MO     LCASOP EN   M
               O  PEN   MO  LCA  SO
            OPE   NMO   L   CAS    OP
        OPENMOL  CASOP     ENMOL   CASOPE
     OPENMOLCA   SOPENMOLCASOPEN   MOLCASOPE
    OPENMOLCAS   OP           EN   MOL    CAS
    OPENMOLCAS       OP  ENM        O     LCA
    OPENMOLCAS    OPEN  MOLCASO     P  E  NMO
    OPENMOLCAS     OP               E  N  MOL
    OPENMOLCA   SO           PENM   O  L  CAS    OPEN    MO    LCAS
    OPENMOLCA   SOP           ENM   O  L  CAS   OP  EN  MOLC  AS   O
    OPENMOLCA   SOPE           NM      O  LCA   S      OP  EN MO
    OPENMOLC                AS         O  PEN   M      OL  CA  SOPE
    OPENMO        LCASOPE  NMOL        C  ASO   P      ENMOLC     AS
    OPE     NMO      LCA  SO     P     E   NM   OL  CA SO  PE N   MO
          OPENMOLCA            SOPE   NMO        LCAS  O    P  ENMO
     OPENMOLCASOPENMOLCASOPENMOLCASOPENMOLCA
        OPENMOLCASOPENMOLCASOPENMOLCASOPE
            OPENMOLCASOPENMOLCASOPENM
               OPENMOLCASOPENMOLCA        version: v23.06
                   OPENMOLCASO
                       OPE                tag:

 OpenMolcas is free software; you can redistribute it and/or modify it
 under the terms of the GNU Lesser General Public License version 2.1.
 OpenMolcas is distributed in the hope that it will be useful, but it
 is provided "as is" and without any express or implied warranties.
 For more details see the full text of the license in the file
 LICENSE or in <http://www.gnu.org/licenses/>.

                 Copyright (C) The OpenMolcas Authors
           For the author list and the recommended citation,
                   consult the file CONTRIBUTORS.md

           *************************************************
           * pymolcas version py2.24                       *
           *   build 4567b286dd94b1984b333a4ddf893180      *
           *   (after the EMIL interpreter by V. Veryazov) *
           *************************************************

configuration info
------------------
Host name: loginchem01.nottingham.ac.uk (Linux)
C Compiler ID: Intel
C flags: -std=gnu99 -gcc-sys -qopenmp
Fortran Compiler ID: Intel
Fortran flags: -fpp -i8 -heap-arrays -qopenmp
Definitions: _MOLCAS_;_I8_;_LINUX_
Parallel: OFF (GA=OFF)


   --------------------------------------------------------------------------------------------------
  |
  |              Project: orca_geometry_optimisation_285_0_BP86_def2-SVP_def2J_scf_cas1_ras12i11_cas8
  |       Submitted from: /home/pcaah4/diamide_project
  |         Scratch area: /srv/COMMUNAL_SCRATCH/12435
  |      Save outputs to: /home/pcaah4/diamide_project
  |               Molcas: /software/chemistry/openmolcas/openmolcas-23.06-openmp
  |
  | Scratch area is empty
  |
  |       MOLCAS_DRIVER = /software/chemistry/openmolcas/openmolcas-23.06-openmp/sbin/pymolcas
  | MOLCAS_KEEP_WORKDIR = NO
  |       MOLCAS_NPROCS = 1
  |       MOLCAS_SOURCE = /software/chemistry/openmolcas/openmolcas-23.06-openmp
  |    MOLCAS_STRUCTURE = 0
  |
   --------------------------------------------------------------------------------------------------

++ ---------   Input file   ---------

&SEWARD
TITLE
orca_geometry_optimisation_285_0_BP86_def2-SVP_def2J_scf_cas1_ras12i11
MULTIPOLES
2
SDIPOLE
ANGMOM
0 0 0
BASIS SET
C.ANO-S...4S3P1D.
C1            0.100623   -0.230662    0.014115 /Angstrom
C3            1.956423    1.385388   -0.245581 /Angstrom
C4            1.635861    2.417997   -1.355242 /Angstrom
C6            0.969100    0.906264   -3.281742 /Angstrom
C19          -0.317703   -1.684219   -0.199771 /Angstrom
END OF BASIS
BASIS SET
N.ANO-S...4S3P1D.
N2            1.426470    0.038370   -0.286899 /Angstrom
N5            0.827543    2.087263   -2.430375 /Angstrom
END OF BASIS
BASIS SET
O.ANO-S...4S3P1D.
O7           -0.657051    0.633973    0.440545 /Angstrom
O8            2.004028    3.576984   -1.173212 /Angstrom
END OF BASIS
BASIS SET
H.ANO-S...2S1P.
H9           -1.351854   -1.807408    0.167118 /Angstrom
H10           0.348909   -2.384419    0.344824 /Angstrom
H11          -0.288673   -1.959164   -1.275340 /Angstrom
H12           1.994606   -0.704328   -0.697306 /Angstrom
H13           1.534172    1.882392    0.652782 /Angstrom
H14           3.055094    1.372030   -0.110694 /Angstrom
H15           0.661553    2.944210   -2.972523 /Angstrom
H16           1.954174    0.855597   -3.800071 /Angstrom
H17           0.833961   -0.022424   -2.699967 /Angstrom
H18           0.177556    0.929161   -4.055531 /Angstrom
END OF BASIS
END OF INPUT

&RASSCF
TITLE
orca_geometry_optimisation_285_0_BP86_def2-SVP_def2J_scf_cas1_ras12i11
LUMORB
SPIN
1
SYMMETRY
1
NACTEL
12  0  0
INACTIVE
29
DELETED  ! delete Rydberg orbitals from an initial CAS(12,11) if done
3
FROZEN
0
RAS2
8
ITERATIONS
64 25
CIROOT
7 7
1 2 3 4 5 6 7
1 1 1 1 1 1 1
LEVSHFT
0.3
CIMX
20
FILEorb = /home/pcaah4/diamide_project/cas/ras12i11/ras_orb/orca_geometry_optimisation_285_0_BP86_def2-SVP_def2J_scf_cas1_ras12i11.RasOrb
ALTEr
2
 1 36 37
 1 37 40
END OF INPUT

&RASSI
NROF JOBIPH
    1 7
    1 2 3 5 4 6 7
TOFILE
TRDI
TDMN
1.0D-6
END OF INPUT

&CASPT2
TITLE
orca_geometry_optimisation_285_0_BP86_def2-SVP_def2J_scf_cas1_ras12i11
MULTISTATE
7 1 2 3 4 5 6 7
SHIFT
0.35
MAXITER
50
END OF INPUT

-- ----------------------------------

--- Start Module: seward at Tue Jun 10 19:45:27 2025 ---
 
()()()()()()()()()()()()()()()()()()()()()()()()()()()()()()()()()()()()()()()()()()()()()()()()()()

                                              &SEWARD

                                   only a single process is used
                       available to each process: 2.0 GB of memory, 1 thread
                                            pid: 3125423
()()()()()()()()()()()()()()()()()()()()()()()()()()()()()()()()()()()()()()()()()()()()()()()()()()
 
               SEWARD will generate:
                  Multipole Moment integrals up to order  2
                  Kinetic Energy integrals
                  Nuclear Attraction integrals (point charge)
                  One-Electron Hamiltonian integrals
                  Velocity integrals
                  Orbital angular momentum around ( 0.0000  0.0000  0.0000 )
                  Velocity quadrupole around ( 1.6595  1.9144 -1.8182 )
                  Two-Electron Repulsion integrals
 
 Title:
             orca_geometry_optimisation_285_0_BP86_def2-SVP_def2J_scf_cas1_ras12i11     
 
 
                   Integrals are discarded if absolute value <: 0.10E-13
                   Integral cutoff threshold is set to       <: 0.10E-15
 
++    Symmetry information:
      ---------------------
 
                    Character Table for C1 
 
                             E  
                    a        1  x, y, xy, Rz, z, xz, Ry, yz, Rx, I
--
 
 
++    Basis set information:
      ----------------------
 
 
      Basis set label: C.ANO-S...4S3P1D......
 
      Electronic valence basis set:
      ------------------
      Associated Effective Charge   6.000000 au
      Associated Actual Charge      6.000000 au
      Nuclear Model: Point charge
 
      Shell  nPrim  nBasis  Cartesian Spherical Contaminant
         s      10       4        X                  
         p       6       3        X                  
         d       3       1                 X         
 
 
      Basis set label: N.ANO-S...4S3P1D......
 
      Electronic valence basis set:
      ------------------
      Associated Effective Charge   7.000000 au
      Associated Actual Charge      7.000000 au
      Nuclear Model: Point charge
 
      Shell  nPrim  nBasis  Cartesian Spherical Contaminant
         s      10       4        X                  
         p       6       3        X                  
         d       3       1                 X         
 
 
      Basis set label: O.ANO-S...4S3P1D......
 
      Electronic valence basis set:
      ------------------
      Associated Effective Charge   8.000000 au
      Associated Actual Charge      8.000000 au
      Nuclear Model: Point charge
 
      Shell  nPrim  nBasis  Cartesian Spherical Contaminant
         s      10       4        X                  
         p       6       3        X                  
         d       3       1                 X         
 
 
      Basis set label: H.ANO-S...2S1P......
 
      Electronic valence basis set:
      ------------------
      Associated Effective Charge   1.000000 au
      Associated Actual Charge      1.000000 au
      Nuclear Model: Point charge
 
      Shell  nPrim  nBasis  Cartesian Spherical Contaminant
         s       7       2        X                  
         p       3       1        X                  
--
 
 
++    Molecular structure info:
      -------------------------
 
                    ************************************************ 
                    **** Cartesian Coordinates / Bohr, Angstrom **** 
                    ************************************************ 
 
     Center  Label                x              y              z                     x              y              z
        1      C1               0.190150      -0.435888       0.026673              0.100623      -0.230662       0.014115
        2      C3               3.697104       2.618004      -0.464081              1.956423       1.385388      -0.245581
        3      C4               3.091329       4.569352      -2.561036              1.635861       2.417997      -1.355242
        4      C6               1.831334       1.712591      -6.201594              0.969100       0.906264      -3.281742
        5      C19             -0.600372      -3.182713      -0.377512             -0.317703      -1.684219      -0.199771
        6      N2               2.695638       0.072509      -0.542161              1.426470       0.038370      -0.286899
        7      N5               1.563830       3.944355      -4.592743              0.827543       2.087263      -2.430375
        8      O7              -1.241646       1.198035       0.832509             -0.657051       0.633973       0.440545
        9      O8               3.787064       6.759520      -2.217049              2.004028       3.576984      -1.173212
       10      H9              -2.554634      -3.415506       0.315807             -1.351854      -1.807408       0.167118
       11      H10              0.659342      -4.505899       0.651623              0.348909      -2.384419       0.344824
       12      H11             -0.545513      -3.702283      -2.410043             -0.288673      -1.959164      -1.275340
       13      H12              3.769259      -1.330987      -1.317717              1.994606      -0.704328      -0.697306
       14      H13              2.899165       3.557205       1.233579              1.534172       1.882392       0.652782
       15      H14              5.773291       2.592761      -0.209181              3.055094       1.372030      -0.110694
       16      H15              1.250154       5.563751      -5.617254              0.661553       2.944210      -2.972523
       17      H16              3.692854       1.616844      -7.181093              1.954174       0.855597      -3.800071
       18      H17              1.575958      -0.042375      -5.102198              0.833961      -0.022424      -2.699967
       19      H18              0.335532       1.755860      -7.663843              0.177556       0.929161      -4.055531
 
                    ************************************************* 
                    **** InterNuclear Distances / Bohr, Angstrom **** 
                    ************************************************* 
 
     Atom centers         Bohr        Angstrom
   13 H12       6 N2      1.929754        1.021182
   16 H15       7 N5      1.941766        1.027538
   18 H17       4 C6      2.086574        1.104168
   10 H9        5 C19     2.086630        1.104197
   15 H14       2 C3      2.091928        1.107001
   19 H18       4 C6      2.092240        1.107166
   11 H10       5 C19     2.096860        1.109610
   14 H13       2 C3      2.097822        1.110119
   12 H11       5 C19     2.098605        1.110534
   17 H16       4 C6      2.105670        1.114272
    8 O7        1 C1      2.317136        1.226175
    9 O8        3 C4      2.323620        1.229607
    7 N5        3 C4      2.617577        1.385162
    6 N2        1 C1      2.619066        1.385950
    6 N2        2 C3      2.736526        1.448107
    7 N5        4 C6      2.764187        1.462745
    5 C19       1 C1      2.886752        1.527603
    3 C4        2 C3      2.927788        1.549319
   15 H14      14 H13     3.357426        1.776673
   19 H18      18 H17     3.366649        1.781554
   12 H11      11 H10     3.386927        1.792285
   19 H18      17 H16     3.394699        1.796397
   12 H11      10 H9      3.398392        1.798352
   18 H17      17 H16     3.399421        1.798896
   11 H10      10 H9      3.410480        1.804748
   16 H15       3 C4      3.703947        1.960044
   14 H13       6 N2      3.916348        2.072442
   13 H12       1 C1      3.926654        2.077896
   14 H13       3 C4      3.931981        2.080715
   16 H15       4 C6      3.938357        2.084089
   19 H18       7 N5      3.966091        2.098765
   15 H14       6 N2      3.991804        2.112371
   18 H17       7 N5      4.019168        2.126852
   13 H12       2 C3      4.040845        2.138323
   10 H9        1 C1      4.061473        2.149239
   15 H14       3 C4      4.078119        2.158047
   17 H16       7 N5      4.080393        2.159251
   12 H11       1 C1      4.141030        2.191339
   11 H10       1 C1      4.144357        2.193099
    9 O8        7 N5      4.302539        2.276806
    8 O7        6 N2      4.319576        2.285821
   16 H15       9 O8      4.407627        2.332416
   19 H18      16 H15     4.418720        2.338286
    9 O8        2 C3      4.498127        2.380306
   15 H14      13 H12     4.543214        2.404165
   18 H17      13 H12     4.559976        2.413036
    8 O7        5 C19     4.589808        2.428822
    6 N2        5 C19     4.635434        2.452966
    2 C3        1 C1      4.676090        2.474480
   18 H17       6 N2      4.696895        2.485490
   14 H13       8 O7      4.782558        2.530821
   14 H13       9 O8      4.790618        2.535086
    4 C6        3 C4      4.796075        2.537973
   10 H9        8 O7      4.824488        2.553009
    7 N5        2 C3      4.832796        2.557406
   13 H12       5 C19     4.838031        2.560176
   13 H12      11 H10     4.861064        2.572365
   17 H16      16 H15     4.898004        2.591912
    6 N2        3 C4      4.945102        2.616835
   14 H13       1 C1      4.973950        2.632101
   18 H17      12 H11     5.014306        2.653456
   15 H14       9 O8      5.033738        2.663739
   13 H12      12 H11     5.043162        2.668726
   11 H10       6 N2      5.151061        2.725824
    8 O7        2 C3      5.299878        2.804575
   12 H11       6 N2      5.314424        2.812272
   18 H17       1 C1      5.327348        2.819111
   18 H17       3 C4      5.479223        2.899480
   17 H16       3 C4      5.515801        2.918836
   14 H13      13 H12     5.582168        2.953956
   18 H17      16 H15     5.639156        2.984113
--
 
 
            Nuclear Potential Energy            463.68601293 au
 
 
      Basis set specifications :
      Symmetry species         a  
      Basis functions          212
 
 
      Input file to MOLDEN was generated!
 
--- Stop Module: seward at Tue Jun 10 19:47:18 2025 /rc=_RC_ALL_IS_WELL_ ---
*** files: orca_geometry_optimisation_285_0_BP86_def2-SVP_def2J_scf_cas1_ras12i11_cas8.GssOrb
           orca_geometry_optimisation_285_0_BP86_def2-SVP_def2J_scf_cas1_ras12i11_cas8.guessorb.molden xmldump
    saved to directory /home/pcaah4/diamide_project
--- Module seward spent 1 minute 51 seconds ---

*** symbolic link created: INPORB -> orca_geometry_optimisation_285_0_BP86_def2-SVP_def2J_scf_cas1_ras12i11_cas8.GssOrb
--- Start Module: rasscf at Tue Jun 10 19:47:19 2025 ---
 
()()()()()()()()()()()()()()()()()()()()()()()()()()()()()()()()()()()()()()()()()()()()()()()()()()

                                              &RASSCF

                                   only a single process is used
                       available to each process: 2.0 GB of memory, 1 thread
                                            pid: 3125462
()()()()()()()()()()()()()()()()()()()()()()()()()()()()()()()()()()()()()()()()()()()()()()()()()()
 
 
      Header of the ONEINT file:
      --------------------------
      orca_geometry_optimisation_285_0_BP86_def2-SVP_def2J_scf_cas1_ras12i11
      Integrals generated by Gateway/Seward, Tue Jun 10 19:45:27 2025
 
 
      OrdInt status: non-squared
 
 
      Cartesian coordinates in Angstrom:
      -----------------------------------------------------
      No.  Label        X            Y            Z        
      -----------------------------------------------------
       1   C1         0.10062300  -0.23066200   0.01411500
       2   C3         1.95642300   1.38538800  -0.24558100
       3   C4         1.63586100   2.41799700  -1.35524200
       4   C6         0.96910000   0.90626400  -3.28174200
       5   C19       -0.31770300  -1.68421900  -0.19977100
       6   N2         1.42647000   0.03837000  -0.28689900
       7   N5         0.82754300   2.08726300  -2.43037500
       8   O7        -0.65705100   0.63397300   0.44054500
       9   O8         2.00402800   3.57698400  -1.17321200
      10   H9        -1.35185400  -1.80740800   0.16711800
      11   H10        0.34890900  -2.38441900   0.34482400
      12   H11       -0.28867300  -1.95916400  -1.27534000
      13   H12        1.99460600  -0.70432800  -0.69730600
      14   H13        1.53417200   1.88239200   0.65278200
      15   H14        3.05509400   1.37203000  -0.11069400
      16   H15        0.66155300   2.94421000  -2.97252300
      17   H16        1.95417400   0.85559700  -3.80007100
      18   H17        0.83396100  -0.02242400  -2.69996700
      19   H18        0.17755600   0.92916100  -4.05553100
      -----------------------------------------------------
      Nuclear repulsion energy =  463.68601293
 
++    Wave function specifications:
      -----------------------------
 
      Number of closed shell electrons          58
      Number of electrons in active shells      12
      Max number of holes in RAS1 space          0
      Max nr of electrons in RAS3 space          0
      Number of inactive orbitals               29
      Number of active orbitals                  8
      Number of secondary orbitals             172
      Spin quantum number                      0.0
      State symmetry                             1
--
 
++    Orbital specifications:
      -----------------------
 
      Symmetry species                           1
                                                 a
      Frozen orbitals                            0
      Inactive orbitals                         29
      Active orbitals                            8
      RAS1 orbitals                              0
      RAS2 orbitals                              8
      RAS3 orbitals                              0
      Secondary orbitals                       172
      Deleted orbitals                           3
      Number of basis functions                212
--
 
++    CI expansion specifications:
      ----------------------------
 
      Number of CSFs                           336
      Number of determinants                   406
      Number of root(s) required                 7
      Root chosen for geometry opt.              7
      CI roots used                              1     2     3     4     5     6     7
      weights                                0.143 0.143 0.143 0.143 0.143 0.143 0.143
      highest root included in the CI            7
      max. size of the explicit Hamiltonian    200
--
 
++    Optimization specifications:
      ----------------------------
 
      RASSCF algorithm: Conventional
      Maximum number of macro iterations        64
      Maximum number of SX iterations           25
      Threshold for RASSCF energy            0.100E-07
      Threshold for max MO rotation          0.100E+00
      Threshold for max BLB element          0.100E-03
      Level shift parameter                  0.300E+00
      Make Quasi-Newton update
--
 
      The MO-coefficients are taken from the file:
      /home/pcaah4/diamide_project/cas/ras12i11/ras_orb/orca_geometry_optimisation_285_0_BP86_def2-SVP_def2J_scf_cas1_ras12i11.RasOrb                                                                                                                                 
      Title: RASSCF average (pseudo-natural) orbitals                                      
 
      Total molecular charge    0.00
 
      Molecular orbitals exchanged:
        In symmetry  1 :  36  37
        In symmetry  1 :  37  40
 
 
      ************************************************************************************************************************
      *                                                                                                                      *
      *                                            Wave function control section                                             *
      *                                                                                                                      *
      ************************************************************************************************************************
 
 
                                         RASSCF iterations: Energy and convergence statistics
                                         ----------------------------------------------------
 
      Iter CI   SX   CI       RASSCF       Energy    max ROT     max BLB   max BLB  Level Ln srch  Step   QN   Walltime
          iter iter root      energy       change     param      element    value   shift minimum  type update hh:mm:ss
 Nr of preliminary CI iterations:   4
        1   1   25    0  -453.69426284    0.00E+00  -0.42E-01   32  38 1 -0.12E-01*  0.20   0.00    SX    NO    0:00:13
        2   3   12    0  -453.69751625   -0.33E-02* -0.26E-01   33  39 1  0.50E-02*  0.20   0.00    SX    NO    0:00:06
        3   3   11    0  -453.69812103   -0.60E-03* -0.18E-01   36  38 1 -0.15E-02*  0.20   0.00    SX    NO    0:00:06
        4   5   10    0  -453.69832566   -0.20E-03* -0.12E-01   36  38 1 -0.88E-03*  0.20   0.00    SX    NO    0:00:07
        5   4   10    0  -453.69839859   -0.73E-04* -0.15E-01   36  38 1 -0.53E-03*  0.20   2.40    LS   YES    0:00:06
        6   5   10    0  -453.69843956   -0.41E-04*  0.66E-02   27  92 1  0.61E-03*  0.20   1.14    QN   YES    0:00:06
        7   4    9    0  -453.69845507   -0.16E-04*  0.18E-02   33  39 1 -0.23E-03*  0.20   0.96    QN   YES    0:00:06
        8   4    9    0  -453.69845862   -0.36E-05*  0.27E-02   36  43 1  0.15E-03*  0.20   2.50    LS   YES    0:00:06
        9   6    8    0  -453.69845973   -0.11E-05* -0.11E-02   20  71 1  0.17E-03*  0.20   0.73    QN   YES    0:00:06
       10   4    8    0  -453.69846043   -0.70E-06* -0.39E-03   33  39 1  0.36E-04   0.20   1.01    QN   YES    0:00:06
       11   4    7    0  -453.69846052   -0.96E-07* -0.36E-03   36  43 1  0.20E-04   0.20   1.90    QN   YES    0:00:06
       12   3    7    0  -453.69846056   -0.41E-07*  0.95E-04   33  39 1  0.12E-04   0.20   0.85    QN   YES    0:00:06
       13   1    6    0  -453.69846057   -0.59E-08  -0.69E-04   33  39 1 -0.46E-05   0.20   1.32    QN   YES    0:00:06
      Convergence after 13 iterations
       14   1    6    0  -453.69846057   -0.20E-08  -0.69E-04   35  40 1  0.26E-05   0.20   1.32    QN   YES    0:00:06
 
      ************************************************************************************************************************
                                                      Wave function printout:
                       occupation of active orbitals, and spin coupling of open shells (u,d: Spin up or down)
      ************************************************************************************************************************
 
      Note: transformation to natural orbitals
      has been made, which may change the order of the CSFs.
 
      printout of CI-coefficients larger than  0.05 for root  1
      energy=    -453.945341
      conf/sym  11111111     Coeff  Weight
             1  22222200  -0.95819 0.91812
             4  22222020   0.07831 0.00613
             8  2222u20d  -0.14538 0.02113
            17  22220202   0.06957 0.00484
            61  2u2222d0  -0.09235 0.00853
            62  2u222d20   0.06279 0.00394
            84  u222220d   0.07957 0.00633
            94  u222d202  -0.07242 0.00524
           171  20222220   0.08661 0.00750
           195  02222202   0.10101 0.01020
 
      printout of CI-coefficients larger than  0.05 for root  2
      energy=    -453.741715
      conf/sym  11111111     Coeff  Weight
             2  22222ud0   0.15894 0.02526
             3  2222u2d0  -0.39296 0.15442
            41  22u222d0   0.84308 0.71078
            42  22u22d20  -0.15846 0.02511
            46  22u2d2ud   0.07098 0.00504
            48  22u2u2dd  -0.10375 0.01077
            58  22u202d2   0.07320 0.00536
            81  u22222d0   0.05387 0.00290
           151  2ud22220  -0.14146 0.02001
           225  u2u222dd  -0.05477 0.00300
           229  u2u2d2d2   0.05671 0.00322
           302  02u222d2  -0.08900 0.00792
 
      printout of CI-coefficients larger than  0.05 for root  3
      energy=    -453.740360
      conf/sym  11111111     Coeff  Weight
            24  222u220d   0.95624 0.91440
            29  222u202d  -0.07738 0.00599
            34  222ud202  -0.08725 0.00761
           115  22ud2202  -0.11121 0.01237
           135  u22d2202   0.18743 0.03513
           207  2u2u22dd  -0.07763 0.00603
           208  2u2u2d2d   0.05342 0.00285
           261  202u222d   0.08622 0.00743
 
      printout of CI-coefficients larger than  0.05 for root  4
      energy=    -453.644574
      conf/sym  11111111     Coeff  Weight
             2  22222ud0   0.87112 0.75884
             3  2222u2d0   0.34669 0.12020
             4  22222020   0.05997 0.00360
             8  2222u20d   0.05138 0.00264
            12  2222uudd   0.10131 0.01026
            19  22220ud2  -0.06976 0.00487
            21  222u22d0  -0.07512 0.00564
            61  2u2222d0  -0.09286 0.00862
            62  2u222d20  -0.19435 0.03777
            87  u2222udd  -0.06845 0.00468
            88  u222u2dd  -0.06404 0.00410
            96  u222dud2   0.06255 0.00391
           171  20222220  -0.07834 0.00614
           196  02222ud2  -0.08914 0.00795
 
      printout of CI-coefficients larger than  0.05 for root  5
      energy=    -453.610783
      conf/sym  11111111     Coeff  Weight
             1  22222200   0.07403 0.00548
             2  22222ud0  -0.24748 0.06125
             3  2222u2d0   0.64959 0.42197
             5  2222ud20   0.06800 0.00462
             8  2222u20d  -0.42376 0.17957
            17  22220202  -0.10160 0.01032
            21  222u22d0  -0.30155 0.09093
            26  222ud2ud   0.08023 0.00644
            28  222uu2dd  -0.11207 0.01256
            41  22u222d0   0.32093 0.10300
            61  2u2222d0   0.05948 0.00354
            86  u222d2ud   0.13095 0.01715
            88  u222u2dd  -0.15823 0.02504
            94  u222d202  -0.09383 0.00880
           195  02222202   0.05009 0.00251
           197  0222u2d2  -0.09479 0.00898
 
      printout of CI-coefficients larger than  0.05 for root  6
      energy=    -453.606397
      conf/sym  11111111     Coeff  Weight
             1  22222200   0.10795 0.01165
             2  22222ud0   0.18759 0.03519
             3  2222u2d0  -0.29264 0.08564
             8  2222u20d  -0.79311 0.62903
            13  2222u02d   0.06820 0.00465
            17  22220202  -0.18960 0.03595
            21  222u22d0   0.23137 0.05353
            26  222ud2ud  -0.06604 0.00436
            28  222uu2dd   0.09161 0.00839
            41  22u222d0  -0.15150 0.02295
            44  22u2220d  -0.09954 0.00991
            61  2u2222d0   0.05574 0.00311
            62  2u222d20  -0.05866 0.00344
            66  2u22d2ud  -0.05020 0.00252
            68  2u22u2dd   0.07188 0.00517
            84  u222220d  -0.06567 0.00431
            86  u222d2ud  -0.05044 0.00254
            88  u222u2dd   0.06541 0.00428
            94  u222d202  -0.17465 0.03050
           165  u2d22202  -0.05458 0.00298
           174  2022u22d  -0.06874 0.00473
           195  02222202   0.09942 0.00988
 
      printout of CI-coefficients larger than  0.05 for root  7
      energy=    -453.600053
      conf/sym  11111111     Coeff  Weight
             2  22222ud0   0.06567 0.00431
             3  2222u2d0  -0.34430 0.11854
             8  2222u20d  -0.07873 0.00620
            21  222u22d0  -0.76748 0.58903
            26  222ud2ud   0.24310 0.05910
            28  222uu2dd  -0.30928 0.09566
            41  22u222d0  -0.20712 0.04290
            86  u222d2ud  -0.07038 0.00495
            88  u222u2dd   0.08246 0.00680
           112  22ud22ud  -0.13518 0.01827
           201  22uu22dd  -0.13656 0.01865
           217  u22ud2d2   0.07035 0.00495
           258  u2du22d2  -0.05118 0.00262
           270  022u22d2   0.06171 0.00381
 
      Natural orbitals and occupation numbers for root  1
      sym 1:   1.997402   1.963787   1.999776   1.999791   1.946965   1.996552   0.039837   0.055889
 
      Natural orbitals and occupation numbers for root  2
      sym 1:   1.995211   1.999363   1.017948   1.999143   1.945523   1.997413   0.987835   0.057564
 
      Natural orbitals and occupation numbers for root  3
      sym 1:   1.999836   1.964426   1.999178   1.003166   1.999706   1.996565   0.039817   0.997306
 
      Natural orbitals and occupation numbers for root  4
      sym 1:   1.971147   1.989638   1.998158   1.998733   1.940190   0.917112   1.120006   0.065016
 
      Natural orbitals and occupation numbers for root  5
      sym 1:   1.931095   1.995131   1.978730   1.900094   1.120185   1.986030   0.907149   0.181585
 
      Natural orbitals and occupation numbers for root  6
      sym 1:   1.948638   1.973307   1.992176   1.887996   1.118832   1.988769   0.163155   0.927128
 
      Natural orbitals and occupation numbers for root  7
      sym 1:   1.978747   1.999189   1.956325   1.083455   1.896879   1.990037   0.965639   0.129730
 
      ************************************************************************************************************************
      *                                                                                                                      *
      *                                                    Final results                                                     *
      *                                                                                                                      *
      ************************************************************************************************************************
 
 
++    Wave function specifications:
      -----------------------------
 
      Number of closed shell electrons          58
      Number of electrons in active shells      12
      Max number of holes in RAS1 space          0
      Max nr of electrons in RAS3 space          0
      Number of inactive orbitals               29
      Number of active orbitals                  8
      Number of secondary orbitals             172
      Spin quantum number                      0.0
      State symmetry                             1
--
 
++    Orbital specifications:
      -----------------------
 
      Symmetry species                           1
                                                 a
      Frozen orbitals                            0
      Inactive orbitals                         29
      Active orbitals                            8
      RAS1 orbitals                              0
      RAS2 orbitals                              8
      RAS3 orbitals                              0
      Secondary orbitals                       172
      Deleted orbitals                           3
      Number of basis functions                212
--
 
++    CI expansion specifications:
      ----------------------------
 
      Number of CSFs                           336
      Number of determinants                   406
      Number of root(s) required                 7
      CI roots used                              1     2     3     4     5     6     7
      weights                                0.143 0.143 0.143 0.143 0.143 0.143 0.143
      highest root included in the CI            7
      Root passed to geometry opt.               7
--
 
++    Final optimization conditions:
      ------------------------------
 
      Average CI energy                            -453.69846057
      RASSCF energy for state  7                   -453.60005328
      Super-CI energy                                -0.00000000
      RASSCF energy change                            0.00000000
      Max change in MO coefficients              -0.509E-04
      Max non-diagonal density matrix element    -0.692E-04
      Maximum BLB matrix element                  0.256E-05
      (orbital pair  35,  40 in symmetry   1)
      Norm of electronic gradient            0.330E+00
--
 
 
      Final state energy(ies):
      ------------------------
 
::    RASSCF root number  1 Total energy:   -453.94534143
::    RASSCF root number  2 Total energy:   -453.74171531
::    RASSCF root number  3 Total energy:   -453.74036003
::    RASSCF root number  4 Total energy:   -453.64457397
::    RASSCF root number  5 Total energy:   -453.61078259
::    RASSCF root number  6 Total energy:   -453.60639738
::    RASSCF root number  7 Total energy:   -453.60005328
 
++    Molecular orbitals:
      -------------------
 
      Pseudonatural active orbitals and approximate occupation numbers
 
 
 
 
      Molecular orbitals for symmetry species 1: a  
 
 
      Orbital                 1         2         3         4         5         6         7         8         9        10
      Energy           -20.6003  -20.5219  -15.6457  -15.5812  -11.3440  -11.2886  -11.2875  -11.2769  -11.2650   -1.4269
      Occ. No.           2.0000    2.0000    2.0000    2.0000    2.0000    2.0000    2.0000    2.0000    2.0000    2.0000
 
     1 C1     1s         0.0003   -0.0001    0.0002   -0.0001    1.0000    0.0000   -0.0001   -0.0001   -0.0038   -0.0403
     2 C1     2s         0.0010   -0.0005    0.0009   -0.0006    0.0025   -0.0011   -0.0003   -0.0005    0.0002    0.3486
     3 C1     3s        -0.0005   -0.0003    0.0003   -0.0005    0.0001   -0.0009   -0.0003   -0.0004   -0.0002   -0.0124
     4 C1     4s        -0.0004   -0.0000    0.0001   -0.0001    0.0014   -0.0003   -0.0001   -0.0001   -0.0001    0.0007
     5 C1     2px       -0.0013   -0.0002    0.0015    0.0000    0.0012   -0.0001    0.0000   -0.0001   -0.0002   -0.0641
     6 C1     3px       -0.0008   -0.0002    0.0011    0.0001    0.0014   -0.0003    0.0000   -0.0000    0.0002    0.0198
     7 C1     4px        0.0002   -0.0000   -0.0001    0.0000    0.0005   -0.0002    0.0000    0.0000    0.0002   -0.0182
     8 C1     2py        0.0030   -0.0000    0.0003    0.0000    0.0013    0.0000   -0.0004   -0.0002   -0.0007    0.0792
     9 C1     3py        0.0025   -0.0000    0.0002    0.0000    0.0014   -0.0005   -0.0004   -0.0003    0.0002   -0.0723
    10 C1     4py       -0.0001   -0.0000   -0.0000   -0.0000    0.0009   -0.0004   -0.0000   -0.0001    0.0004    0.0167
    11 C1     2pz        0.0010    0.0002   -0.0004    0.0000   -0.0003    0.0001   -0.0000    0.0002   -0.0003    0.0418
    12 C1     3pz        0.0006    0.0002   -0.0003   -0.0000   -0.0005   -0.0001   -0.0001    0.0002   -0.0003   -0.0171
    13 C1     4pz       -0.0001   -0.0000   -0.0000   -0.0000   -0.0001   -0.0001    0.0000    0.0000   -0.0001    0.0118
    14 C1     3d2-       0.0002   -0.0000    0.0000   -0.0000   -0.0003    0.0000   -0.0000   -0.0000    0.0000   -0.0302
    15 C1     3d1-      -0.0000   -0.0000   -0.0000    0.0000    0.0003    0.0000    0.0000    0.0000   -0.0000    0.0192
    16 C1     3d0       -0.0000    0.0000    0.0001    0.0000   -0.0003   -0.0001    0.0000   -0.0000    0.0001   -0.0184
    17 C1     3d1+       0.0000    0.0000    0.0001    0.0000   -0.0003   -0.0000    0.0000    0.0000    0.0001   -0.0193
    18 C1     3d2+       0.0000   -0.0000   -0.0002    0.0000    0.0000    0.0000    0.0000    0.0000   -0.0001   -0.0011
    19 C3     1s         0.0002    0.0002    0.0004    0.0000   -0.0002    0.9712   -0.2360   -0.0001   -0.0000   -0.0083
    20 C3     2s         0.0014    0.0012    0.0023    0.0000    0.0002   -0.0012    0.0002   -0.0006    0.0002    0.0243
    21 C3     3s         0.0009    0.0008    0.0013    0.0000    0.0001   -0.0024    0.0003   -0.0004    0.0001   -0.0140
    22 C3     4s         0.0001    0.0001    0.0002   -0.0000   -0.0000    0.0007   -0.0002   -0.0001    0.0000   -0.0016
    23 C3     2px       -0.0003    0.0002   -0.0011    0.0001    0.0000   -0.0003   -0.0003    0.0001    0.0003   -0.0152
    24 C3     3px       -0.0002    0.0003   -0.0007    0.0002    0.0003   -0.0004   -0.0002    0.0001    0.0003   -0.0029
    25 C3     4px        0.0001    0.0001    0.0002    0.0001    0.0002   -0.0005    0.0001    0.0000    0.0001   -0.0029
    26 C3     2py       -0.0003   -0.0010   -0.0007    0.0008    0.0004   -0.0011    0.0004   -0.0000   -0.0004   -0.0136
    27 C3     3py       -0.0002   -0.0012   -0.0003    0.0007    0.0005   -0.0010   -0.0001   -0.0002   -0.0003    0.0045
    28 C3     4py        0.0001   -0.0002    0.0001   -0.0000    0.0001   -0.0009    0.0000   -0.0001    0.0000   -0.0036
    29 C3     2pz        0.0003   -0.0001   -0.0003   -0.0001   -0.0002    0.0002   -0.0001    0.0002    0.0001    0.0008
    30 C3     3pz        0.0002    0.0000   -0.0002   -0.0001   -0.0004    0.0003    0.0003    0.0001    0.0000    0.0042
    31 C3     4pz       -0.0001    0.0002    0.0001   -0.0000   -0.0002   -0.0002    0.0001   -0.0001   -0.0000    0.0026
    32 C3     3d2-       0.0000    0.0000   -0.0000    0.0000    0.0001   -0.0000   -0.0001   -0.0000    0.0000    0.0032
    33 C3     3d1-       0.0000    0.0001   -0.0000   -0.0000    0.0000    0.0000   -0.0000    0.0000    0.0000   -0.0004
    34 C3     3d0        0.0000    0.0000    0.0001   -0.0000   -0.0000   -0.0001    0.0000   -0.0000   -0.0000   -0.0021
    35 C3     3d1+      -0.0000    0.0001    0.0001    0.0000   -0.0000   -0.0001   -0.0000   -0.0000    0.0000   -0.0000
    36 C3     3d2+      -0.0001    0.0000    0.0000   -0.0001    0.0000    0.0001    0.0000   -0.0000   -0.0000   -0.0023
    37 C4     1s         0.0000    0.0004   -0.0002    0.0003   -0.0001    0.2362    0.9717    0.0007    0.0001   -0.0013
    38 C4     2s         0.0001    0.0019   -0.0014    0.0012   -0.0008    0.0016    0.0021   -0.0006    0.0005    0.0198
    39 C4     3s         0.0000    0.0003   -0.0009    0.0004   -0.0006    0.0005   -0.0000   -0.0003    0.0003    0.0035
    40 C4     4s        -0.0000   -0.0002   -0.0002    0.0000   -0.0002    0.0005    0.0013   -0.0001    0.0001    0.0019
    41 C4     2px        0.0001    0.0006    0.0002   -0.0012   -0.0002    0.0000   -0.0006   -0.0002   -0.0001    0.0007
    42 C4     3px        0.0002    0.0005    0.0002   -0.0012   -0.0003    0.0003   -0.0003   -0.0002   -0.0001    0.0023
    43 C4     4px        0.0000    0.0000   -0.0000   -0.0001   -0.0001    0.0001   -0.0003   -0.0000   -0.0000    0.0015
    44 C4     2py       -0.0002    0.0027    0.0007   -0.0001    0.0001   -0.0010    0.0003   -0.0002    0.0000   -0.0006
    45 C4     3py       -0.0001    0.0020    0.0005    0.0001    0.0001   -0.0003   -0.0003    0.0001    0.0001   -0.0027
    46 C4     4py        0.0001   -0.0001   -0.0000    0.0001    0.0000    0.0004   -0.0001    0.0002    0.0001   -0.0018
    47 C4     2pz        0.0001    0.0004   -0.0002   -0.0019   -0.0002    0.0007   -0.0004    0.0004    0.0001   -0.0005
    48 C4     3pz        0.0002    0.0005    0.0000   -0.0014   -0.0001    0.0006   -0.0002    0.0007    0.0001   -0.0031
    49 C4     4pz        0.0000    0.0001    0.0001    0.0001    0.0000    0.0001   -0.0001    0.0002   -0.0000    0.0000
    50 C4     3d2-      -0.0000   -0.0001    0.0000    0.0000   -0.0000    0.0000    0.0002   -0.0000    0.0000    0.0008
    51 C4     3d1-       0.0000   -0.0001    0.0001   -0.0000    0.0000   -0.0000    0.0002    0.0001   -0.0000   -0.0006
    52 C4     3d0       -0.0000    0.0001    0.0000   -0.0001   -0.0000   -0.0000   -0.0001    0.0000    0.0000   -0.0003
    53 C4     3d1+       0.0000    0.0001    0.0001   -0.0002    0.0000    0.0000    0.0002    0.0001   -0.0000    0.0001
    54 C4     3d2+      -0.0000    0.0001    0.0000   -0.0001    0.0000   -0.0000   -0.0002    0.0000   -0.0000   -0.0009
    55 C6     1s         0.0001   -0.0001   -0.0001    0.0003   -0.0001   -0.0002   -0.0008    0.9997    0.0000   -0.0010
    56 C6     2s         0.0003   -0.0007   -0.0005    0.0012   -0.0006    0.0003   -0.0001   -0.0000    0.0000    0.0012
    57 C6     3s         0.0002   -0.0005   -0.0003    0.0000   -0.0006    0.0002   -0.0002   -0.0016   -0.0001    0.0024
    58 C6     4s        -0.0000   -0.0001   -0.0001   -0.0002   -0.0002    0.0000   -0.0001    0.0009   -0.0001    0.0024
    59 C6     2px       -0.0001    0.0005   -0.0001    0.0003    0.0000   -0.0001    0.0002   -0.0001    0.0001    0.0022
    60 C6     3px       -0.0000    0.0005   -0.0001    0.0002   -0.0000   -0.0002    0.0001   -0.0000    0.0001    0.0024
    61 C6     4px        0.0000   -0.0000   -0.0000   -0.0001   -0.0000   -0.0000   -0.0001   -0.0000    0.0000    0.0001
    62 C6     2py       -0.0001   -0.0002    0.0000    0.0005   -0.0003   -0.0001    0.0000    0.0001   -0.0004    0.0102
    63 C6     3py       -0.0001   -0.0002    0.0000   -0.0002   -0.0003   -0.0001   -0.0001   -0.0001   -0.0002    0.0079
    64 C6     4py       -0.0000   -0.0000    0.0000   -0.0003    0.0000    0.0000   -0.0001    0.0004    0.0001   -0.0007
    65 C6     2pz        0.0003    0.0000   -0.0000    0.0002   -0.0001    0.0000   -0.0001   -0.0002    0.0001   -0.0010
    66 C6     3pz        0.0002    0.0000   -0.0000   -0.0003   -0.0002   -0.0001   -0.0002   -0.0001   -0.0000    0.0012
    67 C6     4pz       -0.0001   -0.0000    0.0000   -0.0002   -0.0000   -0.0001   -0.0001    0.0005   -0.0001    0.0024
    68 C6     3d2-       0.0000    0.0000    0.0000    0.0001   -0.0000    0.0000    0.0000   -0.0000    0.0000   -0.0002
    69 C6     3d1-       0.0000   -0.0000    0.0000   -0.0000   -0.0000   -0.0000    0.0001   -0.0001   -0.0000    0.0009
    70 C6     3d0        0.0000   -0.0000   -0.0000   -0.0000   -0.0000    0.0000    0.0000   -0.0000    0.0000   -0.0002
    71 C6     3d1+       0.0000    0.0000    0.0000    0.0000    0.0000    0.0000   -0.0000    0.0001   -0.0000   -0.0001
    72 C6     3d2+       0.0000   -0.0000   -0.0000    0.0000   -0.0000   -0.0000    0.0000    0.0001   -0.0000    0.0001
    73 C19    1s         0.0001   -0.0000   -0.0000    0.0001    0.0037    0.0001   -0.0000   -0.0000    0.9998   -0.0126
    74 C19    2s         0.0006   -0.0001   -0.0001    0.0005    0.0001    0.0004   -0.0001    0.0001    0.0011   -0.0006
    75 C19    3s         0.0004   -0.0001   -0.0001    0.0003   -0.0001    0.0001   -0.0001   -0.0000   -0.0010   -0.0328
    76 C19    4s         0.0001   -0.0000   -0.0000    0.0001    0.0001   -0.0001   -0.0000   -0.0000    0.0012   -0.0036
    77 C19    2px        0.0004   -0.0001   -0.0003    0.0000   -0.0002    0.0002   -0.0000   -0.0000   -0.0001   -0.0138
    78 C19    3px        0.0003   -0.0000   -0.0003    0.0000   -0.0004    0.0002   -0.0000   -0.0000   -0.0001   -0.0085
    79 C19    4px       -0.0001    0.0000    0.0000   -0.0000   -0.0000    0.0000   -0.0000   -0.0000    0.0002    0.0060
    80 C19    2py        0.0001    0.0001    0.0002    0.0001    0.0003    0.0002   -0.0001   -0.0001   -0.0004    0.0161
    81 C19    3py       -0.0000    0.0000    0.0001    0.0001   -0.0001    0.0000   -0.0000   -0.0001   -0.0001   -0.0101
    82 C19    4py       -0.0001   -0.0000   -0.0001   -0.0000   -0.0001   -0.0001    0.0000   -0.0000    0.0005    0.0056
    83 C19    2pz        0.0000    0.0000    0.0001   -0.0000    0.0004    0.0000   -0.0001   -0.0002    0.0001    0.0046
    84 C19    3pz        0.0001   -0.0000    0.0001   -0.0000    0.0004    0.0000   -0.0001   -0.0002    0.0002   -0.0033
    85 C19    4pz        0.0000   -0.0000   -0.0000    0.0000    0.0000   -0.0000    0.0000   -0.0000    0.0000   -0.0005
    86 C19    3d2-       0.0001    0.0000   -0.0000    0.0000   -0.0001    0.0000   -0.0000   -0.0000   -0.0001   -0.0025
    87 C19    3d1-      -0.0000   -0.0000    0.0000    0.0000   -0.0000   -0.0000    0.0000   -0.0000   -0.0000    0.0022
    88 C19    3d0       -0.0001   -0.0000   -0.0001    0.0000    0.0001   -0.0000    0.0000    0.0000    0.0001    0.0003
    89 C19    3d1+      -0.0000   -0.0000   -0.0001    0.0000    0.0001    0.0000    0.0000   -0.0000   -0.0000    0.0007
    90 C19    3d2+       0.0001   -0.0000    0.0000   -0.0000   -0.0001   -0.0000   -0.0000    0.0000    0.0001   -0.0055
    91 N2     1s         0.0000   -0.0000    0.9998    0.0001   -0.0003    0.0001   -0.0000    0.0001    0.0001   -0.0161
    92 N2     2s         0.0000   -0.0000   -0.0001    0.0003   -0.0006    0.0015   -0.0004    0.0005    0.0004    0.1298
    93 N2     3s         0.0000    0.0001   -0.0014    0.0003   -0.0006    0.0008   -0.0002    0.0004    0.0003   -0.0407
    94 N2     4s        -0.0000    0.0001    0.0005    0.0001   -0.0000    0.0003   -0.0001    0.0001    0.0001   -0.0102
    95 N2     2px        0.0004   -0.0004    0.0004   -0.0001   -0.0003    0.0002   -0.0001   -0.0001   -0.0004   -0.0322
    96 N2     3px        0.0004   -0.0005    0.0001   -0.0001   -0.0002   -0.0003   -0.0002   -0.0002   -0.0005    0.0205
    97 N2     4px        0.0000   -0.0000   -0.0004    0.0000   -0.0003   -0.0002   -0.0000   -0.0000    0.0000   -0.0021
    98 N2     2py       -0.0018   -0.0002   -0.0008    0.0002    0.0002    0.0006    0.0001    0.0001   -0.0003    0.0297
    99 N2     3py       -0.0020   -0.0001   -0.0002    0.0003    0.0002    0.0005    0.0001    0.0001   -0.0003    0.0160
   100 N2     4py        0.0000    0.0000    0.0004   -0.0000   -0.0001    0.0002   -0.0001   -0.0000    0.0001   -0.0073
   101 N2     2pz       -0.0006   -0.0002   -0.0005    0.0003    0.0000   -0.0003    0.0003   -0.0000   -0.0002    0.0206
   102 N2     3pz       -0.0007   -0.0004   -0.0003    0.0004   -0.0002   -0.0004    0.0002   -0.0000   -0.0004    0.0112
   103 N2     4pz        0.0000   -0.0001   -0.0001    0.0000   -0.0001   -0.0000   -0.0000    0.0000   -0.0001    0.0015
   104 N2     3d2-       0.0000   -0.0000   -0.0002    0.0000   -0.0000   -0.0001    0.0000    0.0000    0.0000   -0.0009
   105 N2     3d1-       0.0000    0.0000    0.0001   -0.0000   -0.0001   -0.0000   -0.0000    0.0000    0.0000   -0.0005
   106 N2     3d0       -0.0000   -0.0000    0.0000   -0.0000    0.0001    0.0001   -0.0000   -0.0000   -0.0001   -0.0020
   107 N2     3d1+      -0.0000    0.0000   -0.0000    0.0000    0.0000    0.0000    0.0000   -0.0000   -0.0000   -0.0027
   108 N2     3d2+      -0.0001    0.0000    0.0000    0.0000    0.0001   -0.0000   -0.0000   -0.0000    0.0000    0.0048
   109 N5     1s         0.0000    0.0000    0.0000    0.9997    0.0000   -0.0001   -0.0002    0.0001    0.0000   -0.0028
   110 N5     2s         0.0001    0.0001    0.0003   -0.0007    0.0003   -0.0002   -0.0002    0.0014    0.0003   -0.0042
   111 N5     3s        -0.0000    0.0002    0.0002   -0.0019    0.0002   -0.0000   -0.0004    0.0007    0.0002   -0.0083
   112 N5     4s        -0.0001    0.0001    0.0001    0.0003    0.0000    0.0001   -0.0000    0.0003    0.0000   -0.0010
   113 N5     2px       -0.0000   -0.0003    0.0000   -0.0002    0.0001    0.0000    0.0000    0.0003   -0.0001    0.0004
   114 N5     3px        0.0000   -0.0005    0.0000   -0.0006    0.0002    0.0001    0.0001    0.0004   -0.0001   -0.0020
   115 N5     4px        0.0001   -0.0001   -0.0000    0.0008    0.0001    0.0000    0.0002    0.0001    0.0000   -0.0005
   116 N5     2py        0.0006   -0.0012    0.0001    0.0000    0.0001    0.0002   -0.0001   -0.0008    0.0002   -0.0124
   117 N5     3py        0.0008   -0.0015    0.0002   -0.0009    0.0001    0.0003   -0.0004   -0.0007    0.0003   -0.0166
   118 N5     4py        0.0001   -0.0001    0.0000   -0.0005   -0.0000    0.0000   -0.0001   -0.0001    0.0000   -0.0014
   119 N5     2pz       -0.0003   -0.0003   -0.0000   -0.0004   -0.0003   -0.0000    0.0002   -0.0003   -0.0003    0.0132
   120 N5     3pz       -0.0004   -0.0005   -0.0000   -0.0001   -0.0005   -0.0000    0.0000    0.0000   -0.0004    0.0158
   121 N5     4pz       -0.0000   -0.0002   -0.0000   -0.0002   -0.0000    0.0001    0.0001    0.0001   -0.0000    0.0018
   122 N5     3d2-      -0.0000   -0.0000   -0.0000    0.0001   -0.0000    0.0000    0.0000    0.0000   -0.0000    0.0002
   123 N5     3d1-      -0.0000   -0.0001    0.0000   -0.0002    0.0000    0.0000    0.0000   -0.0000   -0.0000    0.0005
   124 N5     3d0       -0.0000    0.0000   -0.0000   -0.0000    0.0000   -0.0000    0.0000   -0.0000    0.0000    0.0001
   125 N5     3d1+      -0.0000    0.0000    0.0000   -0.0000    0.0000   -0.0000   -0.0001   -0.0000   -0.0000    0.0002
   126 N5     3d2+      -0.0000   -0.0000    0.0000    0.0000   -0.0000   -0.0000    0.0001    0.0000   -0.0000    0.0003
   127 O7     1s         0.9997    0.0000    0.0000    0.0000   -0.0003   -0.0000    0.0000    0.0000    0.0000   -0.0241
   128 O7     2s        -0.0015    0.0001    0.0001    0.0000    0.0002   -0.0002    0.0001    0.0001    0.0002    0.6888
   129 O7     3s        -0.0014    0.0001    0.0000    0.0000   -0.0002   -0.0001    0.0001    0.0000    0.0001   -0.0342
   130 O7     4s         0.0001    0.0000   -0.0001   -0.0000   -0.0001   -0.0000    0.0000    0.0000    0.0000   -0.0135
   131 O7     2px        0.0002    0.0000   -0.0003   -0.0000    0.0004   -0.0001   -0.0000   -0.0000    0.0001    0.0985
   132 O7     3px       -0.0003    0.0001   -0.0005   -0.0001   -0.0001   -0.0001   -0.0000   -0.0001    0.0001   -0.0263
   133 O7     4px        0.0009   -0.0000   -0.0001   -0.0000    0.0001   -0.0000   -0.0000   -0.0000   -0.0000   -0.0004
   134 O7     2py       -0.0003    0.0001   -0.0003   -0.0000   -0.0006   -0.0000   -0.0001    0.0000   -0.0001   -0.1009
   135 O7     3py        0.0003    0.0001   -0.0003   -0.0001   -0.0005   -0.0001   -0.0001   -0.0000   -0.0000    0.0340
   136 O7     4py       -0.0009    0.0000    0.0000   -0.0000   -0.0003   -0.0000   -0.0000   -0.0000    0.0000    0.0003
   137 O7     2pz       -0.0001   -0.0001    0.0000    0.0001   -0.0001    0.0000    0.0001    0.0000   -0.0000   -0.0505
   138 O7     3pz        0.0001   -0.0001    0.0001    0.0001    0.0000    0.0000    0.0001    0.0001    0.0000    0.0158
   139 O7     4pz       -0.0005   -0.0000    0.0000    0.0000   -0.0001    0.0000    0.0000    0.0000    0.0000    0.0003
   140 O7     3d2-       0.0001    0.0000    0.0000    0.0000   -0.0002    0.0000   -0.0000    0.0000    0.0000   -0.0170
   141 O7     3d1-      -0.0000   -0.0000    0.0000    0.0000    0.0001   -0.0000    0.0000    0.0000    0.0000    0.0091
   142 O7     3d0       -0.0000   -0.0000   -0.0000   -0.0000   -0.0000   -0.0000    0.0000   -0.0000   -0.0000   -0.0069
   143 O7     3d1+      -0.0000   -0.0000    0.0000    0.0000   -0.0001    0.0000    0.0000    0.0000   -0.0000   -0.0083
   144 O7     3d2+      -0.0000   -0.0000   -0.0001    0.0000   -0.0000   -0.0000    0.0000    0.0000    0.0000   -0.0011
   145 O8     1s         0.0000    0.9998   -0.0000    0.0000    0.0000    0.0000   -0.0003    0.0001   -0.0000   -0.0009
   146 O8     2s         0.0001   -0.0010   -0.0001    0.0001    0.0002    0.0007    0.0004    0.0004   -0.0000    0.0139
   147 O8     3s         0.0000   -0.0011   -0.0000    0.0002    0.0001    0.0004   -0.0000    0.0003   -0.0000   -0.0017
   148 O8     4s        -0.0000    0.0002    0.0000    0.0001    0.0000    0.0001    0.0000    0.0001   -0.0000   -0.0005
   149 O8     2px       -0.0000   -0.0001   -0.0000    0.0002   -0.0000   -0.0002   -0.0005   -0.0000    0.0000   -0.0010
   150 O8     3px       -0.0001    0.0001    0.0000    0.0002   -0.0000    0.0000    0.0001   -0.0000    0.0000    0.0008
   151 O8     4px       -0.0000   -0.0004    0.0000    0.0001    0.0000    0.0001    0.0000    0.0000    0.0000   -0.0000
   152 O8     2py       -0.0000   -0.0004   -0.0001   -0.0001   -0.0001   -0.0004   -0.0005   -0.0002   -0.0000   -0.0019
   153 O8     3py       -0.0000    0.0003   -0.0001   -0.0001   -0.0000   -0.0002   -0.0001   -0.0001   -0.0000    0.0033
   154 O8     4py        0.0000   -0.0013   -0.0000    0.0000    0.0000    0.0000   -0.0002    0.0000   -0.0000    0.0004
   155 O8     2pz       -0.0000   -0.0001    0.0000    0.0003    0.0000    0.0000    0.0000   -0.0001    0.0000   -0.0006
   156 O8     3pz        0.0000   -0.0000    0.0001    0.0003    0.0000    0.0000    0.0000   -0.0002    0.0000   -0.0002
   157 O8     4pz        0.0000   -0.0002    0.0000    0.0000    0.0000    0.0000    0.0000   -0.0000    0.0000   -0.0001
   158 O8     3d2-       0.0000   -0.0000    0.0000   -0.0000    0.0000    0.0001    0.0001    0.0000    0.0000    0.0001
   159 O8     3d1-       0.0000   -0.0000   -0.0000   -0.0001    0.0000   -0.0000    0.0001    0.0000    0.0000    0.0001
   160 O8     3d0       -0.0000    0.0001   -0.0000   -0.0000   -0.0000   -0.0001   -0.0001   -0.0000    0.0000   -0.0002
   161 O8     3d1+      -0.0000    0.0000    0.0000    0.0000   -0.0000    0.0000   -0.0000    0.0000   -0.0000    0.0000
   162 O8     3d2+      -0.0000    0.0000    0.0000   -0.0000    0.0000   -0.0001   -0.0001   -0.0000   -0.0000   -0.0003
   163 H9     1s         0.0002   -0.0001   -0.0000   -0.0000    0.0002   -0.0001   -0.0000    0.0000    0.0004    0.0034
   164 H9     2s         0.0001   -0.0000    0.0001   -0.0000    0.0001   -0.0000   -0.0000    0.0000   -0.0002   -0.0063
   165 H9     2px       -0.0000   -0.0000    0.0000    0.0000    0.0001   -0.0000    0.0000   -0.0000   -0.0000    0.0002
   166 H9     2py       -0.0000   -0.0000    0.0000    0.0000    0.0000   -0.0000   -0.0000    0.0000    0.0000    0.0003
   167 H9     2pz       -0.0000    0.0000    0.0000   -0.0000   -0.0000   -0.0000    0.0000    0.0000    0.0000    0.0001
   168 H10    1s         0.0003    0.0001    0.0003   -0.0001    0.0002   -0.0002   -0.0001    0.0000    0.0004    0.0134
   169 H10    2s         0.0002    0.0001    0.0002   -0.0000    0.0002   -0.0001   -0.0000    0.0000   -0.0002    0.0026
   170 H10    2px       -0.0000    0.0000   -0.0001   -0.0000    0.0000    0.0000    0.0000    0.0000    0.0001    0.0007
   171 H10    2py        0.0001    0.0000   -0.0000   -0.0000    0.0001   -0.0000   -0.0000    0.0000   -0.0000    0.0011
   172 H10    2pz        0.0000   -0.0000   -0.0000    0.0000   -0.0001    0.0000    0.0000    0.0000    0.0000   -0.0012
   173 H11    1s         0.0005    0.0001    0.0000   -0.0001    0.0004   -0.0001   -0.0001   -0.0003    0.0006    0.0106
   174 H11    2s         0.0003    0.0000   -0.0000   -0.0001    0.0003   -0.0001   -0.0001   -0.0002   -0.0000    0.0014
   175 H11    2px       -0.0000   -0.0000   -0.0000    0.0000    0.0000   -0.0000    0.0000   -0.0000    0.0000    0.0018
   176 H11    2py        0.0000    0.0000   -0.0001   -0.0000    0.0000   -0.0000   -0.0000   -0.0000    0.0000    0.0008
   177 H11    2pz        0.0000    0.0000    0.0000   -0.0000    0.0001    0.0000   -0.0000   -0.0000   -0.0001    0.0005
   178 H12    1s        -0.0014   -0.0002   -0.0010    0.0005    0.0002   -0.0006    0.0004   -0.0002   -0.0005    0.0460
   179 H12    2s        -0.0008   -0.0002   -0.0007    0.0003    0.0000   -0.0003    0.0002   -0.0001   -0.0003    0.0021
   180 H12    2px        0.0001    0.0000    0.0003   -0.0000   -0.0001    0.0001   -0.0000    0.0000    0.0000   -0.0050
   181 H12    2py       -0.0001   -0.0000   -0.0004    0.0000    0.0000   -0.0000   -0.0000   -0.0000   -0.0000    0.0042
   182 H12    2pz       -0.0001    0.0000   -0.0002    0.0000    0.0001    0.0000    0.0000    0.0000    0.0000    0.0022
   183 H13    1s        -0.0006   -0.0000   -0.0006    0.0000   -0.0006    0.0011   -0.0007   -0.0001    0.0001    0.0145
   184 H13    2s        -0.0003   -0.0000   -0.0003    0.0000   -0.0004    0.0002   -0.0003   -0.0001    0.0001    0.0002
   185 H13    2px        0.0000   -0.0000    0.0000   -0.0000    0.0000    0.0000   -0.0000   -0.0000   -0.0000   -0.0008
   186 H13    2py        0.0001   -0.0001    0.0000   -0.0000    0.0000   -0.0001    0.0001   -0.0000    0.0000   -0.0015
   187 H13    2pz        0.0000    0.0001    0.0000    0.0000    0.0001   -0.0001   -0.0000    0.0000   -0.0000   -0.0010
   188 H14    1s         0.0001   -0.0007    0.0003    0.0006    0.0001    0.0010    0.0001    0.0000   -0.0002    0.0089
   189 H14    2s         0.0000   -0.0005    0.0003    0.0004    0.0000    0.0003    0.0002   -0.0000   -0.0001    0.0008
   190 H14    2px       -0.0000    0.0001   -0.0001   -0.0001   -0.0000   -0.0000   -0.0001    0.0000    0.0000   -0.0006
   191 H14    2py        0.0000   -0.0000    0.0000   -0.0000   -0.0000   -0.0000    0.0000    0.0000    0.0000   -0.0005
   192 H14    2pz       -0.0000    0.0000   -0.0000   -0.0001    0.0000   -0.0000   -0.0000   -0.0000   -0.0000   -0.0001
   193 H15    1s        -0.0006    0.0006   -0.0002    0.0002   -0.0002    0.0002    0.0002    0.0003   -0.0004    0.0214
   194 H15    2s        -0.0004    0.0004   -0.0001   -0.0000   -0.0001    0.0001    0.0000    0.0002   -0.0003    0.0119
   195 H15    2px       -0.0000    0.0000   -0.0000   -0.0000   -0.0000    0.0000    0.0000   -0.0000   -0.0000    0.0006
   196 H15    2py        0.0000   -0.0001   -0.0000    0.0004    0.0000   -0.0000    0.0000   -0.0001    0.0000   -0.0012
   197 H15    2pz       -0.0000    0.0000   -0.0000   -0.0003    0.0000    0.0001    0.0001   -0.0000   -0.0000    0.0007
   198 H16    1s         0.0002   -0.0002    0.0003   -0.0010    0.0000    0.0001   -0.0004    0.0008    0.0001   -0.0039
   199 H16    2s         0.0001   -0.0001    0.0002   -0.0005    0.0000    0.0001   -0.0003    0.0000    0.0000   -0.0028
   200 H16    2px       -0.0000    0.0000   -0.0000    0.0000    0.0000   -0.0000    0.0000   -0.0000   -0.0000   -0.0000
   201 H16    2py        0.0000    0.0000    0.0000   -0.0001    0.0000    0.0000   -0.0000    0.0000    0.0000   -0.0004
   202 H16    2pz        0.0000   -0.0000    0.0000   -0.0001    0.0000   -0.0000   -0.0001    0.0000    0.0000   -0.0002
   203 H17    1s        -0.0000   -0.0003   -0.0000   -0.0003   -0.0005   -0.0007   -0.0001    0.0010   -0.0008    0.0184
   204 H17    2s         0.0000   -0.0002    0.0000   -0.0002   -0.0003   -0.0004   -0.0001    0.0001   -0.0005    0.0108
   205 H17    2px       -0.0000   -0.0001    0.0000   -0.0000   -0.0000   -0.0000   -0.0000    0.0000   -0.0000    0.0005
   206 H17    2py       -0.0000   -0.0000    0.0001   -0.0000   -0.0000   -0.0001   -0.0000    0.0001   -0.0001    0.0013
   207 H17    2pz        0.0000   -0.0000    0.0000   -0.0000    0.0000   -0.0000   -0.0000   -0.0000    0.0000   -0.0000
   208 H18    1s         0.0001    0.0003    0.0001   -0.0004    0.0001   -0.0001    0.0000    0.0005    0.0002   -0.0013
   209 H18    2s         0.0001    0.0001    0.0001   -0.0002    0.0001   -0.0001   -0.0000   -0.0001    0.0001   -0.0010
   210 H18    2px        0.0000    0.0000    0.0000   -0.0000   -0.0000   -0.0000   -0.0000   -0.0000    0.0000   -0.0000
   211 H18    2py        0.0000   -0.0000    0.0000   -0.0000    0.0000    0.0000    0.0000    0.0000    0.0000   -0.0003
   212 H18    2pz        0.0000    0.0000    0.0000    0.0000    0.0000    0.0000    0.0000   -0.0000    0.0000   -0.0002
 
 
      Orbital                11        12        13        14        15        16        17        18        19        20
      Energy            -1.3615   -1.2617   -1.2061   -1.0310   -0.9631   -0.9353   -0.8252   -0.7735   -0.7120   -0.6957
      Occ. No.           2.0000    2.0000    2.0000    2.0000    2.0000    2.0000    2.0000    2.0000    2.0000    2.0000
 
     1 C1     1s         0.0033   -0.0071    0.0051   -0.0159   -0.0018    0.0056    0.0154   -0.0006    0.0074    0.0025
     2 C1     2s         0.0089    0.1254   -0.0057    0.2716    0.0102   -0.0362   -0.3895    0.0234   -0.2538   -0.0887
     3 C1     3s         0.0148    0.0016    0.0200   -0.0191    0.0006    0.0153    0.0074   -0.0017    0.0105    0.0130
     4 C1     4s         0.0038   -0.0005    0.0058   -0.0060   -0.0001    0.0046    0.0037    0.0001    0.0047    0.0020
     5 C1     2px        0.0158    0.1294   -0.0130    0.0024    0.1071   -0.0659   -0.1411    0.0007    0.1786    0.2471
     6 C1     3px        0.0019   -0.0664    0.0185   -0.0432   -0.0119    0.0119    0.0237    0.0083   -0.0615   -0.0622
     7 C1     4px        0.0023    0.0213   -0.0017   -0.0071    0.0131   -0.0083   -0.0098    0.0010    0.0081    0.0169
     8 C1     2py        0.0157   -0.0147    0.0146   -0.1639    0.0534   -0.0098   -0.0568    0.0589    0.1080   -0.0986
     9 C1     3py        0.0295    0.0314    0.0125    0.0057   -0.0571    0.0370    0.0256   -0.0052   -0.0311    0.0492
    10 C1     4py        0.0041   -0.0025    0.0040   -0.0285    0.0050    0.0027   -0.0050    0.0033   -0.0028   -0.0055
    11 C1     2pz       -0.0067   -0.0435    0.0020   -0.0285   -0.0250    0.0093    0.0223    0.0281   -0.0270   -0.0931
    12 C1     3pz       -0.0008    0.0278   -0.0095    0.0285   -0.0238   -0.0011   -0.0058    0.0047    0.0123    0.0316
    13 C1     4pz       -0.0006   -0.0045   -0.0006    0.0005   -0.0069    0.0015    0.0006    0.0045   -0.0023   -0.0049
    14 C1     3d2-       0.0028    0.0211   -0.0026    0.0079   -0.0047    0.0009   -0.0142    0.0090    0.0210    0.0084
    15 C1     3d1-      -0.0014   -0.0086    0.0007    0.0024   -0.0015    0.0010   -0.0001   -0.0010   -0.0106   -0.0068
    16 C1     3d0        0.0002   -0.0060    0.0015   -0.0097   -0.0015    0.0030    0.0129   -0.0030    0.0024    0.0004
    17 C1     3d1+       0.0001   -0.0042    0.0007   -0.0022   -0.0065    0.0039    0.0053    0.0046    0.0037    0.0000
    18 C1     3d2+       0.0010    0.0201   -0.0036   -0.0031    0.0178   -0.0099   -0.0079   -0.0022    0.0126    0.0138
    19 C3     1s        -0.0131   -0.0293    0.0025    0.0333    0.0294   -0.0188    0.0026   -0.0067    0.0051   -0.0013
    20 C3     2s         0.0267    0.1700   -0.0024   -0.2544   -0.3631    0.2203   -0.0504    0.1310   -0.0897    0.0700
    21 C3     3s        -0.0351   -0.0496    0.0110    0.0624    0.0368   -0.0251    0.0104    0.0004    0.0129   -0.0049
    22 C3     4s        -0.0052   -0.0113    0.0047    0.0161    0.0107   -0.0071    0.0037   -0.0003    0.0045   -0.0036
    23 C3     2px        0.0082   -0.0211   -0.0116   -0.0145   -0.0252    0.0284    0.0722    0.0206   -0.2195    0.0400
    24 C3     3px        0.0149    0.0327   -0.0075   -0.0428   -0.0324    0.0086   -0.0105    0.0158    0.0194   -0.0069
    25 C3     4px       -0.0011    0.0043    0.0003   -0.0124   -0.0130    0.0057    0.0056    0.0030   -0.0122    0.0063
    26 C3     2py        0.0230   -0.1037    0.0100    0.0196   -0.0367    0.0132   -0.1460   -0.1264   -0.1292    0.2476
    27 C3     3py        0.0060    0.0089    0.0069   -0.0127    0.0326   -0.0039    0.0046    0.0361    0.0400   -0.0450
    28 C3     4py        0.0063   -0.0046    0.0089   -0.0063   -0.0104    0.0035   -0.0119   -0.0009   -0.0019    0.0095
    29 C3     2pz       -0.0122   -0.0083   -0.0264    0.0103    0.0259    0.0094   -0.0140    0.1835    0.0110    0.0565
    30 C3     3pz        0.0055    0.0071   -0.0077   -0.0044   -0.0133    0.0036   -0.0092   -0.0283   -0.0009   -0.0038
    31 C3     4pz       -0.0058    0.0071   -0.0001   -0.0068   -0.0108    0.0099   -0.0037    0.0087   -0.0038    0.0054
    32 C3     3d2-      -0.0017    0.0141   -0.0024   -0.0021    0.0068   -0.0009   -0.0013    0.0142    0.0209   -0.0137
    33 C3     3d1-      -0.0049    0.0002   -0.0000    0.0026    0.0068   -0.0023    0.0087    0.0132    0.0015   -0.0042
    34 C3     3d0       -0.0022   -0.0097    0.0049    0.0042   -0.0042   -0.0024   -0.0109   -0.0137   -0.0044    0.0139
    35 C3     3d1+      -0.0018    0.0027    0.0030   -0.0008   -0.0028   -0.0010    0.0020   -0.0106   -0.0022   -0.0045
    36 C3     3d2+      -0.0022   -0.0153    0.0045    0.0063   -0.0026   -0.0021   -0.0121    0.0002   -0.0137    0.0160
    37 C4     1s        -0.0416    0.0062   -0.0057    0.0030    0.0127    0.0115    0.0066    0.0171   -0.0014   -0.0005
    38 C4     2s         0.3490    0.0527    0.1043   -0.0967   -0.2311   -0.0495   -0.1094   -0.3942    0.0173    0.0118
    39 C4     3s        -0.0164    0.0276   -0.0005    0.0009    0.0101    0.0304    0.0127    0.0111    0.0007   -0.0062
    40 C4     4s        -0.0001    0.0064   -0.0010    0.0019    0.0041    0.0073    0.0047    0.0060    0.0007   -0.0022
    41 C4     2px        0.0224   -0.0165   -0.0772    0.0057    0.0303    0.0873   -0.0052    0.0384   -0.0661    0.0753
    42 C4     3px       -0.0104   -0.0004    0.0315    0.0090   -0.0012   -0.0138   -0.0048   -0.0237    0.0226   -0.0222
    43 C4     4px        0.0063   -0.0004   -0.0128   -0.0003    0.0027    0.0129   -0.0012   -0.0006   -0.0044    0.0025
    44 C4     2py        0.1122   -0.0495   -0.0801    0.0569    0.0969   -0.0243    0.0459    0.1047   -0.0136    0.0129
    45 C4     3py       -0.0582    0.0125    0.0444   -0.0261   -0.0522   -0.0183   -0.0103   -0.0036   -0.0132    0.0042
    46 C4     4py        0.0256   -0.0059   -0.0114    0.0018    0.0035   -0.0066    0.0035    0.0074   -0.0037    0.0029
    47 C4     2pz       -0.0025    0.0051   -0.1250   -0.0430   -0.0457    0.1032   -0.0393   -0.0064   -0.0909    0.1274
    48 C4     3pz       -0.0140    0.0004   -0.0104    0.0068   -0.0043   -0.0654    0.0243   -0.0165    0.0258   -0.0428
    49 C4     4pz       -0.0023   -0.0003   -0.0248   -0.0060   -0.0043    0.0074    0.0006   -0.0009   -0.0049    0.0054
    50 C4     3d2-       0.0218   -0.0030   -0.0013    0.0036    0.0052   -0.0014   -0.0013   -0.0049    0.0074   -0.0046
    51 C4     3d1-       0.0106   -0.0048    0.0047    0.0081    0.0114   -0.0052    0.0034   -0.0046    0.0053   -0.0082
    52 C4     3d0       -0.0141    0.0042    0.0202   -0.0036   -0.0113   -0.0066   -0.0048   -0.0013   -0.0015    0.0054
    53 C4     3d1+       0.0111    0.0002    0.0178   -0.0022   -0.0122   -0.0136   -0.0019   -0.0137   -0.0010   -0.0021
    54 C4     3d2+      -0.0287    0.0024    0.0158    0.0008   -0.0028   -0.0106    0.0019    0.0040   -0.0012   -0.0001
    55 C6     1s        -0.0033   -0.0060   -0.0362   -0.0083   -0.0261   -0.0486    0.0009    0.0035   -0.0007    0.0003
    56 C6     2s         0.0474    0.0085    0.1849    0.0277    0.2100    0.4150   -0.0573   -0.0881    0.0301   -0.0219
    57 C6     3s         0.0058   -0.0074   -0.0601   -0.0174   -0.0507   -0.0757   -0.0054    0.0015    0.0000   -0.0008
    58 C6     4s         0.0030    0.0010   -0.0108   -0.0026   -0.0131   -0.0147   -0.0008    0.0015   -0.0007    0.0006
    59 C6     2px       -0.0008    0.0105   -0.0010   -0.0172   -0.0147   -0.0125   -0.0007   -0.0584    0.0252   -0.0521
    60 C6     3px       -0.0001    0.0124    0.0047   -0.0164   -0.0022   -0.0055    0.0045    0.0046   -0.0099    0.0075
    61 C6     4px        0.0006    0.0017   -0.0023   -0.0033    0.0002   -0.0010    0.0002   -0.0053   -0.0003   -0.0019
    62 C6     2py        0.0256    0.0156    0.0890    0.0160   -0.0079   -0.0379    0.0230    0.1488   -0.0699    0.0821
    63 C6     3py        0.0045    0.0041   -0.0154    0.0002   -0.0096   -0.0017   -0.0062   -0.0128    0.0073   -0.0090
    64 C6     4py        0.0010   -0.0031    0.0019   -0.0049   -0.0035   -0.0168    0.0001    0.0098   -0.0043    0.0027
    65 C6     2pz        0.0228    0.0151    0.0589   -0.0047   -0.0187   -0.0258    0.0071   -0.0282    0.0147   -0.0325
    66 C6     3pz        0.0054    0.0087   -0.0221   -0.0048   -0.0234   -0.0125    0.0053    0.0015   -0.0042    0.0053
    67 C6     4pz        0.0000    0.0026   -0.0050    0.0007   -0.0130   -0.0173    0.0020    0.0011   -0.0003   -0.0001
    68 C6     3d2-       0.0006   -0.0004   -0.0011   -0.0010   -0.0016   -0.0024   -0.0012   -0.0071    0.0040   -0.0045
    69 C6     3d1-       0.0051    0.0027    0.0191    0.0025   -0.0010   -0.0039    0.0023    0.0107   -0.0041    0.0047
    70 C6     3d0        0.0005    0.0003   -0.0008   -0.0006   -0.0015    0.0005   -0.0017   -0.0080    0.0032   -0.0036
    71 C6     3d1+      -0.0008   -0.0003   -0.0019    0.0005    0.0002    0.0006    0.0001    0.0017   -0.0008    0.0025
    72 C6     3d2+      -0.0029   -0.0014   -0.0149   -0.0010   -0.0031    0.0001   -0.0019   -0.0072    0.0024   -0.0021
    73 C19    1s         0.0009   -0.0078    0.0010   -0.0574    0.0342   -0.0164   -0.0138   -0.0023   -0.0088    0.0022
    74 C19    2s         0.0052    0.0148   -0.0097    0.3511   -0.2897    0.1058    0.1041    0.0467    0.0948   -0.0010
    75 C19    3s         0.0066   -0.0197    0.0050   -0.1067    0.0528   -0.0295   -0.0325   -0.0002   -0.0157    0.0115
    76 C19    4s         0.0025   -0.0027    0.0025   -0.0242    0.0136   -0.0061   -0.0094   -0.0005   -0.0048    0.0029
    77 C19    2px        0.0016    0.0216   -0.0032    0.0347    0.0214   -0.0202   -0.0352   -0.0336   -0.0289    0.1339
    78 C19    3px        0.0003   -0.0008    0.0012   -0.0049    0.0147   -0.0077    0.0110   -0.0051    0.0056   -0.0106
    79 C19    4px       -0.0005    0.0003   -0.0001   -0.0066    0.0101   -0.0043   -0.0020   -0.0040   -0.0049    0.0030
    80 C19    2py        0.0020    0.0110    0.0017    0.0568    0.0010   -0.0061   -0.0825   -0.0294   -0.2437   -0.0320
    81 C19    3py        0.0029   -0.0049    0.0076   -0.0306    0.0164    0.0015    0.0074    0.0046    0.0303    0.0078
    82 C19    4py       -0.0001    0.0002    0.0014   -0.0173    0.0182   -0.0069   -0.0138   -0.0016   -0.0093   -0.0011
    83 C19    2pz        0.0047   -0.0051    0.0061   -0.0038   -0.0009    0.0064   -0.0084    0.0066   -0.0536   -0.0414
    84 C19    3pz        0.0057   -0.0018    0.0054   -0.0097    0.0017    0.0049    0.0011   -0.0016    0.0058    0.0026
    85 C19    4pz        0.0005    0.0005   -0.0005   -0.0001   -0.0009   -0.0018   -0.0009    0.0011   -0.0007   -0.0005
    86 C19    3d2-       0.0004    0.0062   -0.0010    0.0092   -0.0003   -0.0010   -0.0071   -0.0019   -0.0094    0.0033
    87 C19    3d1-      -0.0002   -0.0014   -0.0000    0.0030   -0.0019    0.0003   -0.0003   -0.0005   -0.0065   -0.0034
    88 C19    3d0       -0.0001   -0.0008   -0.0003   -0.0067    0.0017   -0.0008    0.0035    0.0014    0.0129    0.0026
    89 C19    3d1+       0.0000    0.0009   -0.0002    0.0010    0.0011   -0.0011   -0.0025   -0.0004    0.0003    0.0052
    90 C19    3d2+       0.0004    0.0001    0.0002   -0.0100    0.0022    0.0002    0.0067    0.0026    0.0173   -0.0003
    91 N2     1s        -0.0021   -0.0391    0.0036   -0.0016   -0.0054    0.0010   -0.0045    0.0016    0.0042   -0.0013
    92 N2     2s         0.0342    0.5993   -0.1017   -0.0395    0.2000   -0.1050    0.1272    0.0100    0.1477   -0.0481
    93 N2     3s        -0.0061   -0.0695    0.0017   -0.0035   -0.0026   -0.0044   -0.0083    0.0037    0.0172   -0.0044
    94 N2     4s        -0.0026   -0.0240    0.0018    0.0009   -0.0029    0.0001   -0.0031    0.0001    0.0009   -0.0006
    95 N2     2px        0.0087   -0.0243    0.0149   -0.1091   -0.0533    0.0638    0.3969   -0.0262   -0.1559   -0.2247
    96 N2     3px        0.0087    0.0096    0.0112    0.0276    0.0376   -0.0223   -0.0991    0.0022    0.0241    0.0419
    97 N2     4px        0.0016    0.0082    0.0015   -0.0034    0.0048   -0.0007    0.0021   -0.0030   -0.0005    0.0058
    98 N2     2py        0.0026   -0.0103    0.0102   -0.1409   -0.1014    0.0799   -0.0924    0.2273    0.2751   -0.2629
    99 N2     3py       -0.0100   -0.0439    0.0068    0.0406    0.0800   -0.0449    0.0033   -0.0519   -0.0526    0.0337
   100 N2     4py       -0.0013   -0.0121    0.0037   -0.0020    0.0043   -0.0046   -0.0093   -0.0009   -0.0009    0.0063
   101 N2     2pz       -0.0017    0.0004   -0.0061    0.0142   -0.0031   -0.0093   -0.1299    0.1217    0.1041    0.0151
   102 N2     3pz        0.0012    0.0113   -0.0063    0.0115   -0.0012   -0.0029    0.0389   -0.0281   -0.0120   -0.0122
   103 N2     4pz        0.0008   -0.0001   -0.0015    0.0031   -0.0028   -0.0004   -0.0019   -0.0018    0.0014   -0.0012
   104 N2     3d2-       0.0006    0.0092   -0.0013    0.0014   -0.0051    0.0031   -0.0085    0.0097    0.0072   -0.0001
   105 N2     3d1-      -0.0008    0.0021   -0.0009   -0.0010    0.0026   -0.0010    0.0086   -0.0002   -0.0055    0.0016
   106 N2     3d0       -0.0008   -0.0136    0.0025    0.0018   -0.0014    0.0014    0.0026   -0.0032   -0.0037   -0.0005
   107 N2     3d1+      -0.0007   -0.0064    0.0014   -0.0002   -0.0047    0.0034    0.0002    0.0035    0.0023   -0.0019
   108 N2     3d2+      -0.0008    0.0011   -0.0005    0.0094    0.0103   -0.0074   -0.0190   -0.0022   -0.0018    0.0129
   109 N5     1s        -0.0180   -0.0061   -0.0418   -0.0027    0.0018    0.0052   -0.0015   -0.0046    0.0011   -0.0017
   110 N5     2s         0.1368    0.0344    0.5668    0.0279   -0.0229   -0.2261    0.0509    0.1333   -0.0287    0.0090
   111 N5     3s        -0.0462   -0.0147   -0.0805   -0.0071    0.0005   -0.0031   -0.0016   -0.0094    0.0006   -0.0047
   112 N5     4s        -0.0119   -0.0030   -0.0262   -0.0020   -0.0008    0.0021   -0.0009   -0.0040    0.0000   -0.0009
   113 N5     2px        0.0236    0.0006    0.0355   -0.0002   -0.0345   -0.0524   -0.0180   -0.1340    0.0825   -0.0912
   114 N5     3px       -0.0180   -0.0053   -0.0358    0.0057    0.0010   -0.0003    0.0082    0.0330   -0.0096    0.0144
   115 N5     4px        0.0028   -0.0001   -0.0049   -0.0015   -0.0042   -0.0008    0.0000   -0.0014   -0.0002    0.0007
   116 N5     2py        0.0460   -0.0216   -0.0220   -0.0025   -0.0466   -0.1766    0.0422    0.0943   -0.0219    0.0302
   117 N5     3py        0.0293   -0.0150    0.0073   -0.0048    0.0284    0.0526   -0.0066   -0.0447    0.0109   -0.0074
   118 N5     4py        0.0049   -0.0000    0.0118   -0.0001    0.0003   -0.0036    0.0024    0.0010   -0.0013    0.0009
   119 N5     2pz        0.0160    0.0124   -0.0071   -0.0216   -0.1165   -0.1098   -0.0529   -0.2880    0.1361   -0.1587
   120 N5     3pz       -0.0112    0.0102    0.0040    0.0182    0.0204    0.0381    0.0042    0.0705   -0.0243    0.0300
   121 N5     4pz        0.0037   -0.0001   -0.0080   -0.0021   -0.0031    0.0016   -0.0021   -0.0001   -0.0011    0.0016
   122 N5     3d2-       0.0037   -0.0004   -0.0006    0.0008   -0.0012   -0.0063    0.0008   -0.0015    0.0023   -0.0022
   123 N5     3d1-       0.0053    0.0002    0.0091    0.0018    0.0046    0.0073   -0.0018   -0.0079    0.0039   -0.0043
   124 N5     3d0        0.0007    0.0009    0.0060   -0.0011   -0.0032   -0.0026   -0.0015   -0.0026    0.0003    0.0006
   125 N5     3d1+       0.0034    0.0012    0.0102   -0.0011   -0.0075   -0.0118   -0.0015   -0.0121    0.0060   -0.0067
   126 N5     3d2+      -0.0000   -0.0000   -0.0055   -0.0016   -0.0059   -0.0044   -0.0023   -0.0138    0.0056   -0.0064
   127 O7     1s         0.0005    0.0034   -0.0007   -0.0042    0.0011   -0.0002    0.0126   -0.0038    0.0151    0.0215
   128 O7     2s        -0.0461   -0.3009    0.0328   -0.2043    0.0320    0.0126    0.3393   -0.0921    0.2467    0.3549
   129 O7     3s        -0.0012   -0.0048   -0.0013   -0.0191    0.0043   -0.0022    0.0393   -0.0121    0.0422    0.0602
   130 O7     4s         0.0001    0.0014   -0.0006   -0.0031    0.0009   -0.0011    0.0073   -0.0025    0.0084    0.0125
   131 O7     2px       -0.0024   -0.0020   -0.0008   -0.0017    0.0207   -0.0161   -0.1720    0.0564   -0.1234   -0.2600
   132 O7     3px        0.0047    0.0085    0.0009   -0.0077   -0.0057    0.0059    0.0255   -0.0102    0.0059    0.0232
   133 O7     4px        0.0014    0.0023    0.0005   -0.0005   -0.0020    0.0019    0.0024   -0.0010   -0.0002    0.0019
   134 O7     2py        0.0066    0.0436   -0.0038   -0.0315    0.0175   -0.0050    0.1089   -0.0408    0.2480    0.3428
   135 O7     3py       -0.0009    0.0037   -0.0003    0.0108   -0.0063    0.0004   -0.0211    0.0039   -0.0355   -0.0396
   136 O7     4py        0.0005   -0.0000    0.0005   -0.0011   -0.0024    0.0012   -0.0026    0.0009   -0.0050   -0.0058
   137 O7     2pz        0.0005    0.0083   -0.0012   -0.0082    0.0023    0.0041    0.0763   -0.0261    0.0946    0.1549
   138 O7     3pz       -0.0034   -0.0036   -0.0019    0.0007    0.0054   -0.0032   -0.0124    0.0033   -0.0096   -0.0157
   139 O7     4pz       -0.0011   -0.0011   -0.0008   -0.0015    0.0015   -0.0010   -0.0016    0.0005   -0.0010   -0.0019
   140 O7     3d2-       0.0008    0.0042   -0.0005    0.0000   -0.0010    0.0006    0.0094   -0.0031    0.0111    0.0182
   141 O7     3d1-      -0.0005   -0.0038    0.0004   -0.0001   -0.0009    0.0005   -0.0031    0.0014   -0.0076   -0.0108
   142 O7     3d0        0.0003    0.0030   -0.0003    0.0012    0.0006   -0.0003    0.0023   -0.0016    0.0044    0.0076
   143 O7     3d1+       0.0001    0.0018   -0.0005    0.0017   -0.0011    0.0006    0.0052   -0.0016    0.0030    0.0078
   144 O7     3d2+       0.0002    0.0036   -0.0006   -0.0028    0.0043   -0.0023   -0.0041    0.0009    0.0089    0.0062
   145 O8     1s        -0.0246    0.0026    0.0041    0.0002    0.0026    0.0007    0.0029    0.0099    0.0019   -0.0044
   146 O8     2s         0.6682   -0.1156   -0.2989    0.0911    0.2173    0.0807    0.0910    0.2533    0.0515   -0.0995
   147 O8     3s        -0.0341    0.0012   -0.0073    0.0049    0.0165    0.0062    0.0111    0.0326    0.0068   -0.0149
   148 O8     4s        -0.0140    0.0014   -0.0002    0.0007    0.0027    0.0013    0.0021    0.0056    0.0017   -0.0035
   149 O8     2px       -0.0524    0.0055   -0.0049   -0.0008    0.0111    0.0272    0.0037    0.0637   -0.0104    0.0111
   150 O8     3px        0.0125   -0.0014   -0.0018    0.0015   -0.0010   -0.0061    0.0009   -0.0043    0.0009    0.0006
   151 O8     4px        0.0001   -0.0006    0.0001    0.0010    0.0004   -0.0016    0.0007   -0.0008    0.0001   -0.0003
   152 O8     2py       -0.1327    0.0177    0.0408    0.0087    0.0342    0.0036    0.0396    0.1359    0.0487   -0.0899
   153 O8     3py        0.0411   -0.0026   -0.0037   -0.0005   -0.0061   -0.0001   -0.0080   -0.0245   -0.0044    0.0105
[...]
AIVX     1  Mu1.0001  In1.029 Se1.044               0.10221323     -0.00012142      0.00053660     -0.00000007
AIVX     1  Mu1.0001  In1.020 Se1.045               0.28483186      0.00035217     -0.00040163     -0.00000014
AIVX     1  Mu1.0001  In1.021 Se1.045               0.18915798     -0.00015308      0.00024855     -0.00000004
AIVX     1  Mu1.0001  In1.022 Se1.045               0.16815888      0.00028094     -0.00057667     -0.00000016
AIVX     1  Mu1.0001  In1.023 Se1.045               0.17448431      0.00009296     -0.00021988     -0.00000002
AIVX     1  Mu1.0001  In1.024 Se1.045               0.15656313      0.00008575     -0.00011671     -0.00000001
AIVX     1  Mu1.0001  In1.025 Se1.045               0.25861603      0.00009359     -0.00013293     -0.00000001
AIVX     1  Mu1.0001  In1.026 Se1.045               0.07525528      0.00027820     -0.00061575     -0.00000017
AIVX     1  Mu1.0001  In1.027 Se1.045               0.24479836      0.00016085     -0.00031678     -0.00000005
AIVX     1  Mu1.0001  In1.029 Se1.045               0.09901966     -0.00022389      0.00037897     -0.00000008
AIVX     1  Mu1.0001  In1.021 Se1.046               0.21569158     -0.00048980      0.00065785     -0.00000032
AIVX     1  Mu1.0001  In1.022 Se1.046               0.19469248     -0.00023363      0.00014663     -0.00000003
AIVX     1  Mu1.0001  In1.023 Se1.046               0.20101791      0.00043028     -0.00079894     -0.00000034
AIVX     1  Mu1.0001  In1.024 Se1.046               0.18309673      0.00024627     -0.00032728     -0.00000008
AIVX     1  Mu1.0001  In1.025 Se1.046               0.28514962     -0.00014482      0.00039638     -0.00000006
AIVX     1  Mu1.0001  In1.026 Se1.046               0.10178888      0.00058544     -0.00073959     -0.00000043
AIVX     1  Mu1.0001  In1.027 Se1.046               0.27133196     -0.00015154      0.00020060     -0.00000003
AIVX     1  Mu1.0001  In1.029 Se1.046               0.12555326     -0.00012883     -0.00047243      0.00000006
AIVX     1  Mu1.0001  In1.021 Se1.047               0.24367824     -0.00026485      0.00048775     -0.00000013
AIVX     1  Mu1.0001  In1.022 Se1.047               0.22267914     -0.00027783      0.00048206     -0.00000013
AIVX     1  Mu1.0001  In1.023 Se1.047               0.22900457     -0.00044899      0.00070471     -0.00000032
AIVX     1  Mu1.0001  In1.024 Se1.047               0.21108339     -0.00020867      0.00038713     -0.00000008
AIVX     1  Mu1.0001  In1.026 Se1.047               0.12977554      0.00003839     -0.00012012     -0.00000000
AIVX     1  Mu1.0001  In1.027 Se1.047               0.29931862      0.00042882     -0.00061428     -0.00000026
AIVX     1  Mu1.0001  In1.029 Se1.047               0.15353992      0.00008422     -0.00017515     -0.00000001
AIVX     1  Mu1.0001  In1.021 Se1.048               0.25683158     -0.00010880      0.00018277     -0.00000002
AIVX     1  Mu1.0001  In1.022 Se1.048               0.23583248     -0.00033987      0.00051219     -0.00000017
AIVX     1  Mu1.0001  In1.023 Se1.048               0.24215791      0.00029478     -0.00052657     -0.00000016
AIVX     1  Mu1.0001  In1.024 Se1.048               0.22423673     -0.00004209      0.00007926     -0.00000000
AIVX     1  Mu1.0001  In1.026 Se1.048               0.14292888      0.00028186     -0.00034866     -0.00000010
AIVX     1  Mu1.0001  In1.029 Se1.048               0.16669326      0.00010183     -0.00032806     -0.00000003
AIVX     1  Mu1.0001  In1.021 Se1.049               0.26429108     -0.00002648      0.00017442     -0.00000000
AIVX     1  Mu1.0001  In1.022 Se1.049               0.24329198      0.00074187     -0.00108641     -0.00000081
AIVX     1  Mu1.0001  In1.023 Se1.049               0.24961741     -0.00014006      0.00026861     -0.00000004
AIVX     1  Mu1.0001  In1.024 Se1.049               0.23169623      0.00013212     -0.00034623     -0.00000005
AIVX     1  Mu1.0001  In1.026 Se1.049               0.15038837      0.00011298     -0.00063285     -0.00000007
AIVX     1  Mu1.0001  In1.029 Se1.049               0.17415276      0.00042049     -0.00033296     -0.00000014
AIVX     1  Mu1.0001  In1.021 Se1.050               0.28135414     -0.00004080     -0.00004768      0.00000000
AIVX     1  Mu1.0001  In1.022 Se1.050               0.26035504     -0.00058330      0.00077765     -0.00000045
AIVX     1  Mu1.0001  In1.023 Se1.050               0.26668048      0.00001537     -0.00001633     -0.00000000
AIVX     1  Mu1.0001  In1.024 Se1.050               0.24875929      0.00061190     -0.00097286     -0.00000060
AIVX     1  Mu1.0001  In1.026 Se1.050               0.16745144      0.00057671     -0.00099131     -0.00000057
AIVX     1  Mu1.0001  In1.029 Se1.050               0.19121583      0.00017301     -0.00060815     -0.00000011
AIVX     1  Mu1.0001  In1.022 Se1.051               0.29548758     -0.00078432      0.00107561     -0.00000084
AIVX     1  Mu1.0001  In1.024 Se1.051               0.28389184      0.00033960     -0.00041037     -0.00000014
AIVX     1  Mu1.0001  In1.026 Se1.051               0.20258398     -0.00028215      0.00083865     -0.00000024
AIVX     1  Mu1.0001  In1.029 Se1.051               0.22634837     -0.00012449     -0.00005591      0.00000001
AIVX     1  Mu1.0001  In1.024 Se1.052               0.29097905      0.00023988     -0.00028873     -0.00000007
AIVX     1  Mu1.0001  In1.026 Se1.052               0.20967120      0.00050222     -0.00041389     -0.00000021
AIVX     1  Mu1.0001  In1.029 Se1.052               0.23343558     -0.00098621      0.00093468     -0.00000092
AIVX     1  Mu1.0001  In1.021 Se1.053               0.29028941      0.00055333     -0.00076016     -0.00000042
AIVX     1  Mu1.0001  In1.022 Se1.053               0.26929030      0.00006406      0.00004681      0.00000000
AIVX     1  Mu1.0001  In1.023 Se1.053               0.27561574     -0.00050613      0.00077286     -0.00000039
AIVX     1  Mu1.0001  In1.024 Se1.053               0.25769456     -0.00055049      0.00079553     -0.00000044
AIVX     1  Mu1.0001  In1.026 Se1.053               0.17638670     -0.00060219      0.00082124     -0.00000049
AIVX     1  Mu1.0001  In1.029 Se1.053               0.20015109     -0.00015798      0.00074387     -0.00000012
AIVX     1  Mu1.0001  In1.026 Se1.054               0.22827521     -0.00049666      0.00024818     -0.00000012
AIVX     1  Mu1.0001  In1.029 Se1.054               0.25203959      0.00066247     -0.00038219     -0.00000025
AIVX     1  Mu1.0001  In1.026 Se1.055               0.23618031      0.00064724     -0.00042444     -0.00000027
AIVX     1  Mu1.0001  In1.029 Se1.055               0.25994470     -0.00026806     -0.00023082      0.00000006
AIVX     1  Mu1.0001  In1.026 Se1.056               0.25751951     -0.00077861      0.00117638     -0.00000092
AIVX     1  Mu1.0001  In1.029 Se1.056               0.28128390      0.00043779     -0.00055764     -0.00000024
AIVX     1  Mu1.0001  In1.026 Se1.057               0.29711216      0.00059739     -0.00060420     -0.00000036
AIVX     1  Mu1.0001  In1.026 Se1.058               0.27241892     -0.00013228     -0.00016084      0.00000002
AIVX     1  Mu1.0001  In1.029 Se1.058               0.29618330      0.00045295     -0.00029820     -0.00000014
AIVX     1  Mu1.0001  In1.026 Se1.060               0.28203964     -0.00025913      0.00046263     -0.00000012
--
 
   (Skipping property calculation,
    use PROP keyword to activate)
--
 
  Total CASPT2 energies:
::    CASPT2 Root  1     Total energy:   -455.36564098
::    CASPT2 Root  2     Total energy:   -455.17511734
::    CASPT2 Root  3     Total energy:   -455.15922553
::    CASPT2 Root  4     Total energy:   -455.13223213
::    CASPT2 Root  5     Total energy:   -455.09677567
::    CASPT2 Root  6     Total energy:   -455.11547751
::    CASPT2 Root  7     Total energy:   -455.06557507
 
++ Multi-State CASPT2 section:
********************************************************************************
  MULTI-STATE CASPT2 SECTION
--------------------------------------------------------------------------------
 
  Output diagonal energies have been shifted. Add   -455.000000000000     
 
  Effective Hamiltonian matrix (Symmetric):
 
                1               2               3               4               5
   1        -0.36564098
   2        -0.00120339     -0.17511734
   3         0.00042994      0.00024444     -0.15922553
   4        -0.01021987     -0.00316655      0.00008152     -0.13223213
   5         0.01509890      0.00513184     -0.00315464      0.00463590     -0.09677567
   6         0.01672615     -0.00312793     -0.00252147      0.00027133     -0.01879214
   7         0.00263482     -0.00300293     -0.00022841     -0.00019549      0.00021903
 
                6               7
   6        -0.11547751
   7        -0.00699691     -0.06557507
 
       Total MS-CASPT2 energies:
::    MS-CASPT2 Root  1     Total energy:   -455.36825098
::    MS-CASPT2 Root  2     Total energy:   -455.17586376
::    MS-CASPT2 Root  3     Total energy:   -455.15965359
::    MS-CASPT2 Root  4     Total energy:   -455.13214492
::    MS-CASPT2 Root  5     Total energy:   -455.12481505
::    MS-CASPT2 Root  6     Total energy:   -455.08504037
::    MS-CASPT2 Root  7     Total energy:   -455.06427555
 
       Eigenvectors:
            0.99454926     -0.01123954      0.01443741     -0.06402104      0.07916917
            0.00725311      0.99396010      0.02082894     -0.07705361     -0.02580803
           -0.00385728     -0.01948107      0.99357918      0.03532176     -0.10392845
            0.04443734      0.07564299     -0.00783217      0.96760129      0.22462090
           -0.06113672     -0.05844024      0.07035856     -0.16766751      0.47305706
           -0.07063230      0.03873511      0.08408305     -0.15544223      0.83633922
           -0.01014844      0.02999918      0.00874624     -0.01376557      0.09254321
 
            0.01232149      0.00432867
            0.06828285     -0.01705898
           -0.01885330     -0.00134980
            0.07430299      0.00379320
            0.85148385      0.10476923
           -0.48372055     -0.16979272
           -0.17406591      0.97972847
 
--
 
  THE ORIGINAL CI ARRAYS ARE NOW MIXED AS LINEAR
  COMBINATIONS, GIVEN BY THE EIGENVECTORS.
  A NEW JOBIPH FILE NAMED 'JOBMIX' IS PREPARED.
********************************************************************************
 
++ Mixed CI coefficients:
  The CI coefficients for the MIXED state nr.   1
--------------------------------------------------------------------------------
 CI COEFFICIENTS LARGER THAN  0.50D-01
  Occupation of active orbitals, and spin coupling
  of open shells. (u,d: Spin up or down).
  SGUGA info is (Midvert:IsyUp:UpperWalk/LowerWalk)
        Conf  SGUGA info        Occupation    Coefficient         Weight
           1  ( 1:1:   1/   1)   22222200       -0.965966       0.933089
           4  ( 1:1:   4/   1)   22222020        0.083997       0.007056
           8  ( 1:1:   8/   1)   2222u20d       -0.059395       0.003528
          17  ( 1:1:  17/   1)   22220202        0.089787       0.008062
          61  ( 2:1:   1/   3)   2u2222d0       -0.103483       0.010709
          62  ( 2:1:   2/   3)   2u222d20        0.055213       0.003049
          84  ( 2:1:   4/   4)   u222220d        0.086816       0.007537
          94  ( 2:1:  14/   4)   u222d202       -0.053408       0.002852
         171  ( 3:1:   1/   8)   20222220        0.083492       0.006971
         195  ( 3:1:   5/  10)   02222202        0.089998       0.008100
 
  The CI coefficients for the MIXED state nr.   2
--------------------------------------------------------------------------------
 CI COEFFICIENTS LARGER THAN  0.50D-01
  Occupation of active orbitals, and spin coupling
  of open shells. (u,d: Spin up or down).
  SGUGA info is (Midvert:IsyUp:UpperWalk/LowerWalk)
        Conf  SGUGA info        Occupation    Coefficient         Weight
           2  ( 1:1:   2/   1)   22222ud0        0.247678       0.061345
           3  ( 1:1:   3/   1)   2222u2d0       -0.424268       0.180003
          41  ( 2:1:   1/   2)   22u222d0        0.806882       0.651058
          42  ( 2:1:   2/   2)   22u22d20       -0.152080       0.023128
          46  ( 2:1:   6/   2)   22u2d2ud        0.066007       0.004357
          48  ( 2:1:   8/   2)   22u2u2dd       -0.103974       0.010811
          58  ( 2:1:  18/   2)   22u202d2        0.070816       0.005015
          62  ( 2:1:   2/   3)   2u222d20       -0.059056       0.003488
          81  ( 2:1:   1/   4)   u22222d0        0.051025       0.002604
         151  ( 3:1:   1/   6)   2ud22220       -0.136670       0.018679
         225  ( 4:1:   1/   5)   u2u222dd       -0.052608       0.002768
         229  ( 4:1:   5/   5)   u2u2d2d2        0.054215       0.002939
         302  ( 5:1:   2/  17)   02u222d2       -0.084784       0.007188
 
  The CI coefficients for the MIXED state nr.   3
--------------------------------------------------------------------------------
 CI COEFFICIENTS LARGER THAN  0.50D-01
  Occupation of active orbitals, and spin coupling
  of open shells. (u,d: Spin up or down).
  SGUGA info is (Midvert:IsyUp:UpperWalk/LowerWalk)
        Conf  SGUGA info        Occupation    Coefficient         Weight
           8  ( 1:1:   8/   1)   2222u20d       -0.143017       0.020454
          24  ( 2:1:   4/   1)   222u220d        0.946182       0.895260
          29  ( 2:1:   9/   1)   222u202d       -0.076652       0.005875
          34  ( 2:1:  14/   1)   222ud202       -0.086360       0.007458
         115  ( 3:1:   5/   2)   22ud2202       -0.109819       0.012060
         135  ( 3:1:   5/   4)   u22d2202        0.184795       0.034149
         207  ( 4:1:   1/   2)   2u2u22dd       -0.076969       0.005924
         208  ( 4:1:   2/   2)   2u2u2d2d        0.052944       0.002803
         261  ( 5:1:   1/   7)   202u222d        0.085324       0.007280
 
  The CI coefficients for the MIXED state nr.   4
--------------------------------------------------------------------------------
 CI COEFFICIENTS LARGER THAN  0.50D-01
  Occupation of active orbitals, and spin coupling
  of open shells. (u,d: Spin up or down).
  SGUGA info is (Midvert:IsyUp:UpperWalk/LowerWalk)
        Conf  SGUGA info        Occupation    Coefficient         Weight
           2  ( 1:1:   2/   1)   22222ud0        0.842373       0.709593
           3  ( 1:1:   3/   1)   2222u2d0        0.306962       0.094225
           4  ( 1:1:   4/   1)   22222020        0.063175       0.003991
           8  ( 1:1:   8/   1)   2222u20d        0.252741       0.063878
          12  ( 1:1:  12/   1)   2222uudd        0.095941       0.009205
          17  ( 1:1:  17/   1)   22220202        0.059507       0.003541
          19  ( 1:1:  19/   1)   22220ud2       -0.067383       0.004540
          41  ( 2:1:   1/   2)   22u222d0       -0.100985       0.010198
          61  ( 2:1:   1/   3)   2u2222d0       -0.103043       0.010618
          62  ( 2:1:   2/   3)   2u222d20       -0.186914       0.034937
          87  ( 2:1:   7/   4)   u2222udd       -0.065932       0.004347
          94  ( 2:1:  14/   4)   u222d202        0.054069       0.002923
          96  ( 2:1:  16/   4)   u222dud2        0.060798       0.003696
         171  ( 3:1:   1/   8)   20222220       -0.079369       0.006299
         196  ( 3:1:   6/  10)   02222ud2       -0.086227       0.007435
 
  The CI coefficients for the MIXED state nr.   5
--------------------------------------------------------------------------------
 CI COEFFICIENTS LARGER THAN  0.50D-01
  Occupation of active orbitals, and spin coupling
  of open shells. (u,d: Spin up or down).
  SGUGA info is (Midvert:IsyUp:UpperWalk/LowerWalk)
        Conf  SGUGA info        Occupation    Coefficient         Weight
           2  ( 1:1:   2/   1)   22222ud0        0.237232       0.056279
           3  ( 1:1:   3/   1)   2222u2d0        0.118193       0.013970
           8  ( 1:1:   8/   1)   2222u20d       -0.866544       0.750898
          13  ( 1:1:  13/   1)   2222u02d        0.074049       0.005483
          17  ( 1:1:  17/   1)   22220202       -0.198590       0.039438
          24  ( 2:1:   4/   1)   222u220d       -0.138625       0.019217
          44  ( 2:1:   4/   2)   22u2220d       -0.108009       0.011666
          62  ( 2:1:   2/   3)   2u222d20       -0.068033       0.004629
          68  ( 2:1:   8/   3)   2u22u2dd        0.078095       0.006099
          84  ( 2:1:   4/   4)   u222220d       -0.064987       0.004223
          94  ( 2:1:  14/   4)   u222d202       -0.195038       0.038040
         165  ( 3:1:   5/   7)   u2d22202       -0.063030       0.003973
         174  ( 3:1:   4/   8)   2022u22d       -0.073919       0.005464
         195  ( 3:1:   5/  10)   02222202        0.113869       0.012966
 
  The CI coefficients for the MIXED state nr.   6
--------------------------------------------------------------------------------
 CI COEFFICIENTS LARGER THAN  0.50D-01
  Occupation of active orbitals, and spin coupling
  of open shells. (u,d: Spin up or down).
  SGUGA info is (Midvert:IsyUp:UpperWalk/LowerWalk)
        Conf  SGUGA info        Occupation    Coefficient         Weight
           2  ( 1:1:   2/   1)   22222ud0       -0.237349       0.056335
           3  ( 1:1:   3/   1)   2222u2d0        0.753430       0.567657
           5  ( 1:1:   5/   1)   2222ud20        0.084676       0.007170
          21  ( 2:1:   1/   1)   222u22d0       -0.243884       0.059479
          26  ( 2:1:   6/   1)   222ud2ud        0.058958       0.003476
          28  ( 2:1:   8/   1)   222uu2dd       -0.087238       0.007611
          41  ( 2:1:   1/   2)   22u222d0        0.440094       0.193683
          42  ( 2:1:   2/   2)   22u22d20       -0.054640       0.002986
          46  ( 2:1:   6/   2)   22u2d2ud        0.061339       0.003762
          62  ( 2:1:   2/   3)   2u222d20        0.051321       0.002634
          86  ( 2:1:   6/   4)   u222d2ud        0.151108       0.022834
          88  ( 2:1:   8/   4)   u222u2dd       -0.183135       0.033539
         197  ( 3:1:   7/  10)   0222u2d2       -0.110454       0.012200
         302  ( 5:1:   2/  17)   02u222d2       -0.053494       0.002862
 
  The CI coefficients for the MIXED state nr.   7
--------------------------------------------------------------------------------
 CI COEFFICIENTS LARGER THAN  0.50D-01
  Occupation of active orbitals, and spin coupling
  of open shells. (u,d: Spin up or down).
  SGUGA info is (Midvert:IsyUp:UpperWalk/LowerWalk)
        Conf  SGUGA info        Occupation    Coefficient         Weight
           3  ( 1:1:   3/   1)   2222u2d0       -0.211541       0.044750
          21  ( 2:1:   1/   1)   222u22d0       -0.822290       0.676162
          26  ( 2:1:   6/   1)   222ud2ud        0.257873       0.066498
          28  ( 2:1:   8/   1)   222uu2dd       -0.330357       0.109136
          41  ( 2:1:   1/   2)   22u222d0       -0.157925       0.024940
          88  ( 2:1:   8/   4)   u222u2dd        0.052286       0.002734
         112  ( 3:1:   2/   2)   22ud22ud       -0.142282       0.020244
         201  ( 4:1:   1/   1)   22uu22dd       -0.144442       0.020864
         202  ( 4:1:   2/   1)   22uu2d2d        0.050751       0.002576
         217  ( 4:1:   5/   3)   u22ud2d2        0.075006       0.005626
         258  ( 5:1:   2/   6)   u2du22d2       -0.054446       0.002964
         270  ( 5:1:   2/   9)   022u22d2        0.066045       0.004362
 
--
 
--- Stop Module: caspt2 at Tue Jun 10 19:56:56 2025 /rc=_RC_ALL_IS_WELL_ ---
*** files: xmldump
    saved to directory /home/pcaah4/diamide_project
--- Module caspt2 spent 7 minutes 4 seconds ---

.##################.
.# Happy landing! #.
.##################.

    Timing: Wall=685.47 User=596.78 System=79.33
******************************************************
*** WorkDir at /srv/COMMUNAL_SCRATCH/12435 cleaned ***
******************************************************
