   This run of MOLCAS is using the pymolcas driver

                             OPE
                             OPE          NMOL  CASOP  ENMOLC A   SO
                 OPE        NMOLC        AS  OP EN  MO LC     AS  OP
                OPENM       OL CA        SO  PE NM  OL CA     SOP EN
                OP EN      MO   LC       AS  OP ENMOL  CASO   PENMOL
                OP  EN     MO   LC       AS  OP EN     MO     LC ASO
               OP   E  NMOL  C  AS       OP  EN MO     LC     AS  OP
               OP  E   NMO   LC AS        OPEN  MO     LCASOP EN   M
               O  PEN   MO  LCA  SO
            OPE   NMO   L   CAS    OP
        OPENMOL  CASOP     ENMOL   CASOPE
     OPENMOLCA   SOPENMOLCASOPEN   MOLCASOPE
    OPENMOLCAS   OP           EN   MOL    CAS
    OPENMOLCAS       OP  ENM        O     LCA
    OPENMOLCAS    OPEN  MOLCASO     P  E  NMO
    OPENMOLCAS     OP               E  N  MOL
    OPENMOLCA   SO           PENM   O  L  CAS    OPEN    MO    LCAS
    OPENMOLCA   SOP           ENM   O  L  CAS   OP  EN  MOLC  AS   O
    OPENMOLCA   SOPE           NM      O  LCA   S      OP  EN MO
    OPENMOLC                AS         O  PEN   M      OL  CA  SOPE
    OPENMO        LCASOPE  NMOL        C  ASO   P      ENMOLC     AS
    OPE     NMO      LCA  SO     P     E   NM   OL  CA SO  PE N   MO
          OPENMOLCA            SOPE   NMO        LCAS  O    P  ENMO
     OPENMOLCASOPENMOLCASOPENMOLCASOPENMOLCA
        OPENMOLCASOPENMOLCASOPENMOLCASOPE
            OPENMOLCASOPENMOLCASOPENM
               OPENMOLCASOPENMOLCA        version: v23.06
                   OPENMOLCASO
                       OPE                tag:

 OpenMolcas is free software; you can redistribute it and/or modify it
 under the terms of the GNU Lesser General Public License version 2.1.
 OpenMolcas is distributed in the hope that it will be useful, but it
 is provided "as is" and without any express or implied warranties.
 For more details see the full text of the license in the file
 LICENSE or in <http://www.gnu.org/licenses/>.

                 Copyright (C) The OpenMolcas Authors
           For the author list and the recommended citation,
                   consult the file CONTRIBUTORS.md

           *************************************************
           * pymolcas version py2.24                       *
           *   build 4567b286dd94b1984b333a4ddf893180      *
           *   (after the EMIL interpreter by V. Veryazov) *
           *************************************************

configuration info
------------------
Host name: loginchem01.nottingham.ac.uk (Linux)
C Compiler ID: Intel
C flags: -std=gnu99 -gcc-sys -qopenmp
Fortran Compiler ID: Intel
Fortran flags: -fpp -i8 -heap-arrays -qopenmp
Definitions: _MOLCAS_;_I8_;_LINUX_
Parallel: OFF (GA=OFF)


   ----------------------------------------------------------------------------------------------------
  |
  |              Project: orca_geometry_optimisation_240_330_BP86_def2-SVP_def2J_scf_cas1_ras12i11_cas8
  |       Submitted from: /home/pcaah4/diamide_project
  |         Scratch area: /srv/COMMUNAL_SCRATCH/12407
  |      Save outputs to: /home/pcaah4/diamide_project
  |               Molcas: /software/chemistry/openmolcas/openmolcas-23.06-openmp
  |
  | Scratch area is empty
  |
  |       MOLCAS_DRIVER = /software/chemistry/openmolcas/openmolcas-23.06-openmp/sbin/pymolcas
  | MOLCAS_KEEP_WORKDIR = NO
  |       MOLCAS_NPROCS = 1
  |       MOLCAS_SOURCE = /software/chemistry/openmolcas/openmolcas-23.06-openmp
  |    MOLCAS_STRUCTURE = 0
  |
   ----------------------------------------------------------------------------------------------------

++ ---------   Input file   ---------

&SEWARD
TITLE
orca_geometry_optimisation_240_330_BP86_def2-SVP_def2J_scf_cas1_ras12i11
MULTIPOLES
2
SDIPOLE
ANGMOM
0 0 0
BASIS SET
C.ANO-S...4S3P1D.
C1           -0.212534   -0.153194   -0.059675 /Angstrom
C3            2.177331    0.119767   -0.806030 /Angstrom
C4            3.532453    1.016251   -1.483397 /Angstrom
C6            5.622336    0.596459   -2.690614 /Angstrom
C19          -1.119989   -1.089451    0.747459 /Angstrom
END OF BASIS
BASIS SET
N.ANO-S...4S3P1D.
N2            1.054844   -0.652608   -0.277996 /Angstrom
N5            4.334213    0.151531   -2.177929 /Angstrom
END OF BASIS
BASIS SET
O.ANO-S...4S3P1D.
O7           -0.548414    0.975669   -0.400496 /Angstrom
O8            3.590235    2.219505   -1.545296 /Angstrom
END OF BASIS
BASIS SET
H.ANO-S...2S1P.
H9           -0.787137   -1.118061    1.805897 /Angstrom
H10          -2.150749   -0.693985    0.714450 /Angstrom
H11          -1.117550   -2.130418    0.361381 /Angstrom
H12           1.263666   -1.603251    0.032987 /Angstrom
H13           2.968251   -0.248371   -0.091512 /Angstrom
H14           2.512399   -0.348001   -1.746897 /Angstrom
H15           4.206746   -0.848116   -2.007968 /Angstrom
H16           6.469397    0.282420   -2.043460 /Angstrom
H17           5.781500    0.189102   -3.710067 /Angstrom
H18           5.597480    1.700146   -2.749999 /Angstrom
END OF BASIS
END OF INPUT

&RASSCF
TITLE
orca_geometry_optimisation_240_330_BP86_def2-SVP_def2J_scf_cas1_ras12i11
LUMORB
SPIN
1
SYMMETRY
1
NACTEL
12  0  0
INACTIVE
29
DELETED  ! delete Rydberg orbitals from an initial CAS(12,11) if done
3
FROZEN
0
RAS2
8
ITERATIONS
64 25
CIROOT
7 7
1 2 3 4 5 6 7
1 1 1 1 1 1 1
LEVSHFT
0.3
CIMX
20
FILEorb = /home/pcaah4/diamide_project/cas/ras12i11/ras_orb/orca_geometry_optimisation_240_330_BP86_def2-SVP_def2J_scf_cas1_ras12i11.RasOrb
ALTEr
2
 1 36 38
 1 37 40
END OF INPUT

&RASSI
NROF JOBIPH
    1 7
    1 2 3 5 4 6 7
TOFILE
TRDI
TDMN
1.0D-6
END OF INPUT

&CASPT2
TITLE
orca_geometry_optimisation_240_330_BP86_def2-SVP_def2J_scf_cas1_ras12i11
MULTISTATE
7 1 2 3 4 5 6 7
SHIFT
0.35
MAXITER
50
END OF INPUT

-- ----------------------------------

--- Start Module: seward at Tue Jun 10 18:26:22 2025 ---
 
()()()()()()()()()()()()()()()()()()()()()()()()()()()()()()()()()()()()()()()()()()()()()()()()()()

                                              &SEWARD

                                   only a single process is used
                       available to each process: 2.0 GB of memory, 1 thread
                                            pid: 3122508
()()()()()()()()()()()()()()()()()()()()()()()()()()()()()()()()()()()()()()()()()()()()()()()()()()
 
               SEWARD will generate:
                  Multipole Moment integrals up to order  2
                  Kinetic Energy integrals
                  Nuclear Attraction integrals (point charge)
                  One-Electron Hamiltonian integrals
                  Velocity integrals
                  Orbital angular momentum around ( 0.0000  0.0000  0.0000 )
                  Velocity quadrupole around ( 3.9088  0.6554 -1.8382 )
                  Two-Electron Repulsion integrals
 
 Title:
            orca_geometry_optimisation_240_330_BP86_def2-SVP_def2J_scf_cas1_ras12i11    
 
 
                   Integrals are discarded if absolute value <: 0.10E-13
                   Integral cutoff threshold is set to       <: 0.10E-15
 
++    Symmetry information:
      ---------------------
 
                    Character Table for C1 
 
                             E  
                    a        1  x, y, xy, Rz, z, xz, Ry, yz, Rx, I
--
 
 
++    Basis set information:
      ----------------------
 
 
      Basis set label: C.ANO-S...4S3P1D......
 
      Electronic valence basis set:
      ------------------
      Associated Effective Charge   6.000000 au
      Associated Actual Charge      6.000000 au
      Nuclear Model: Point charge
 
      Shell  nPrim  nBasis  Cartesian Spherical Contaminant
         s      10       4        X                  
         p       6       3        X                  
         d       3       1                 X         
 
 
      Basis set label: N.ANO-S...4S3P1D......
 
      Electronic valence basis set:
      ------------------
      Associated Effective Charge   7.000000 au
      Associated Actual Charge      7.000000 au
      Nuclear Model: Point charge
 
      Shell  nPrim  nBasis  Cartesian Spherical Contaminant
         s      10       4        X                  
         p       6       3        X                  
         d       3       1                 X         
 
 
      Basis set label: O.ANO-S...4S3P1D......
 
      Electronic valence basis set:
      ------------------
      Associated Effective Charge   8.000000 au
      Associated Actual Charge      8.000000 au
      Nuclear Model: Point charge
 
      Shell  nPrim  nBasis  Cartesian Spherical Contaminant
         s      10       4        X                  
         p       6       3        X                  
         d       3       1                 X         
 
 
      Basis set label: H.ANO-S...2S1P......
 
      Electronic valence basis set:
      ------------------
      Associated Effective Charge   1.000000 au
      Associated Actual Charge      1.000000 au
      Nuclear Model: Point charge
 
      Shell  nPrim  nBasis  Cartesian Spherical Contaminant
         s       7       2        X                  
         p       3       1        X                  
--
 
 
++    Molecular structure info:
      -------------------------
 
                    ************************************************ 
                    **** Cartesian Coordinates / Bohr, Angstrom **** 
                    ************************************************ 
 
     Center  Label                x              y              z                     x              y              z
        1      C1              -0.401631      -0.289495      -0.112769             -0.212534      -0.153194      -0.059675
        2      C3               4.114559       0.226327      -1.523176              2.177331       0.119767      -0.806030
        3      C4               6.675369       1.920436      -2.803214              3.532453       1.016251      -1.483397
        4      C6              10.624675       1.127144      -5.084524              5.622336       0.596459      -2.690614
        5      C19             -2.116472      -2.058764       1.412493             -1.119989      -1.089451       0.747459
        6      N2               1.993366      -1.233250      -0.525336              1.054844      -0.652608      -0.277996
        7      N5               8.190476       0.286352      -4.115689              4.334213       0.151531      -2.177929
        8      O7              -1.036352       1.843747      -0.756828             -0.548414       0.975669      -0.400496
        9      O8               6.784561       4.194257      -2.920186              3.590235       2.219505      -1.545296
       10      H9              -1.487473      -2.112829       3.412651             -0.787137      -1.118061       1.805897
       11      H10             -4.064327      -1.311442       1.350115             -2.150749      -0.693985       0.714450
       12      H11             -2.111863      -4.025907       0.682911             -1.117550      -2.130418       0.361381
       13      H12              2.387983      -3.029705       0.062336              1.263666      -1.603251       0.032987
       14      H13              5.609181      -0.469353      -0.172933              2.968251      -0.248371      -0.091512
       15      H14              4.747746      -0.657627      -3.301157              2.512399      -0.348001      -1.746897
       16      H15              7.949598      -1.602707      -3.794510              4.206746      -0.848116      -2.007968
       17      H16             12.225389       0.533696      -3.861580              6.469397       0.282420      -2.043460
       18      H17             10.925452       0.357351      -7.011011              5.781500       0.189102      -3.710067
       19      H18             10.577704       3.212810      -5.196745              5.597480       1.700146      -2.749999
 
                    ************************************************* 
                    **** InterNuclear Distances / Bohr, Angstrom **** 
                    ************************************************* 
 
     Atom centers         Bohr        Angstrom
   13 H12       6 N2      1.930889        1.021782
   16 H15       7 N5      1.931249        1.021973
   15 H14       2 C3      2.084110        1.102864
   11 H10       5 C19     2.087227        1.104513
   19 H18       4 C6      2.089211        1.105563
   18 H17       4 C6      2.096282        1.109305
   10 H9        5 C19     2.097426        1.109910
   12 H11       5 C19     2.098085        1.110259
   17 H16       4 C6      2.100013        1.111279
   14 H13       2 C3      2.130968        1.127660
    9 O8        3 C4      2.279444        1.206230
    8 O7        1 C1      2.316981        1.226094
    7 N5        3 C4      2.586188        1.368552
    6 N2        1 C1      2.607086        1.379611
    7 N5        4 C6      2.751527        1.456045
    6 N2        2 C3      2.761432        1.461287
    5 C19       1 C1      2.897830        1.533466
   15 H14      14 H13     3.250124        1.719891
   15 H14       3 C4      3.257312        1.723695
    3 C4        2 C3      3.326597        1.760359
   16 H15      15 H14     3.374675        1.785801
   12 H11      10 H9      3.391343        1.794621
   11 H10      10 H9      3.396535        1.797369
   19 H18      18 H17     3.400902        1.799680
   12 H11      11 H10     3.409632        1.804300
   18 H17      17 H16     3.411722        1.805406
   19 H18      17 H16     3.416896        1.808144
   15 H14       7 N5      3.661550        1.937609
   14 H13       3 C4      3.710287        1.963399
   14 H13       6 N2      3.712391        1.964513
   16 H15       3 C4      3.875418        2.050783
   13 H12       1 C1      3.914251        2.071332
   19 H18       7 N5      3.928320        2.078778
   15 H14       6 N2      3.952611        2.091631
   18 H17       7 N5      3.983468        2.107961
   13 H12       2 C3      4.012064        2.123093
   16 H15       4 C6      4.033889        2.134642
   17 H16       7 N5      4.050466        2.143414
   11 H10       1 C1      4.074278        2.156015
   10 H9        1 C1      4.114874        2.177498
   14 H13      13 H12     4.121514        2.181011
   12 H11       1 C1      4.185544        2.214894
    9 O8        7 N5      4.321752        2.286973
    8 O7        6 N2      4.324430        2.288390
   16 H15      14 H13     4.458459        2.359315
   19 H18       9 O8      4.531434        2.397932
    8 O7        5 C19     4.593714        2.430889
    6 N2        5 C19     4.618163        2.443827
    4 C6        3 C4      4.629331        2.449737
   13 H12      12 H11     4.650392        2.460881
   15 H14      13 H12     4.744294        2.510572
   19 H18       3 C4      4.756831        2.517207
    2 C3        1 C1      4.759338        2.518533
   14 H13       7 N5      4.772787        2.525650
   17 H16      16 H15     4.780283        2.529617
   18 H17      16 H15     4.800355        2.540239
   13 H12       5 C19     4.801642        2.540919
   16 H15       2 C3      4.817867        2.549505
    7 N5        2 C3      4.830924        2.556415
   11 H10       8 O7      4.854179        2.568721
    9 O8        2 C3      4.982471        2.636610
   12 H11       6 N2      5.109961        2.704075
   13 H12      10 H9      5.204270        2.753981
   15 H14       9 O8      5.275843        2.791856
   10 H9        6 N2      5.328944        2.819956
    9 O8        4 C6      5.370104        2.841736
    8 O7        2 C3      5.453002        2.885604
   14 H13       9 O8      5.538788        2.931001
   19 H18      16 H15     5.662368        2.996396
--
 
 
            Nuclear Potential Energy            430.96262372 au
 
 
      Basis set specifications :
      Symmetry species         a  
      Basis functions          212
 
 
      Input file to MOLDEN was generated!
 
--- Stop Module: seward at Tue Jun 10 18:28:07 2025 /rc=_RC_ALL_IS_WELL_ ---
*** files: orca_geometry_optimisation_240_330_BP86_def2-SVP_def2J_scf_cas1_ras12i11_cas8.GssOrb
           orca_geometry_optimisation_240_330_BP86_def2-SVP_def2J_scf_cas1_ras12i11_cas8.guessorb.molden xmldump
    saved to directory /home/pcaah4/diamide_project
--- Module seward spent 1 minute 45 seconds ---

*** symbolic link created: INPORB -> orca_geometry_optimisation_240_330_BP86_def2-SVP_def2J_scf_cas1_ras12i11_cas8.GssOrb
--- Start Module: rasscf at Tue Jun 10 18:28:08 2025 ---
 
()()()()()()()()()()()()()()()()()()()()()()()()()()()()()()()()()()()()()()()()()()()()()()()()()()

                                              &RASSCF

                                   only a single process is used
                       available to each process: 2.0 GB of memory, 1 thread
                                            pid: 3122536
()()()()()()()()()()()()()()()()()()()()()()()()()()()()()()()()()()()()()()()()()()()()()()()()()()
 
 
      Header of the ONEINT file:
      --------------------------
      orca_geometry_optimisation_240_330_BP86_def2-SVP_def2J_scf_cas1_ras12i11
      Integrals generated by Gateway/Seward, Tue Jun 10 18:26:22 2025
 
 
      OrdInt status: non-squared
 
 
      Cartesian coordinates in Angstrom:
      -----------------------------------------------------
      No.  Label        X            Y            Z        
      -----------------------------------------------------
       1   C1        -0.21253400  -0.15319400  -0.05967500
       2   C3         2.17733100   0.11976700  -0.80603000
       3   C4         3.53245300   1.01625100  -1.48339700
       4   C6         5.62233600   0.59645900  -2.69061400
       5   C19       -1.11998900  -1.08945100   0.74745900
       6   N2         1.05484400  -0.65260800  -0.27799600
       7   N5         4.33421300   0.15153100  -2.17792900
       8   O7        -0.54841400   0.97566900  -0.40049600
       9   O8         3.59023500   2.21950500  -1.54529600
      10   H9        -0.78713700  -1.11806100   1.80589700
      11   H10       -2.15074900  -0.69398500   0.71445000
      12   H11       -1.11755000  -2.13041800   0.36138100
      13   H12        1.26366600  -1.60325100   0.03298700
      14   H13        2.96825100  -0.24837100  -0.09151200
      15   H14        2.51239900  -0.34800100  -1.74689700
      16   H15        4.20674600  -0.84811600  -2.00796800
      17   H16        6.46939700   0.28242000  -2.04346000
      18   H17        5.78150000   0.18910200  -3.71006700
      19   H18        5.59748000   1.70014600  -2.74999900
      -----------------------------------------------------
      Nuclear repulsion energy =  430.96262372
 
++    Wave function specifications:
      -----------------------------
 
      Number of closed shell electrons          58
      Number of electrons in active shells      12
      Max number of holes in RAS1 space          0
      Max nr of electrons in RAS3 space          0
      Number of inactive orbitals               29
      Number of active orbitals                  8
      Number of secondary orbitals             172
      Spin quantum number                      0.0
      State symmetry                             1
--
 
++    Orbital specifications:
      -----------------------
 
      Symmetry species                           1
                                                 a
      Frozen orbitals                            0
      Inactive orbitals                         29
      Active orbitals                            8
      RAS1 orbitals                              0
      RAS2 orbitals                              8
      RAS3 orbitals                              0
      Secondary orbitals                       172
      Deleted orbitals                           3
      Number of basis functions                212
--
 
++    CI expansion specifications:
      ----------------------------
 
      Number of CSFs                           336
      Number of determinants                   406
      Number of root(s) required                 7
      Root chosen for geometry opt.              7
      CI roots used                              1     2     3     4     5     6     7
      weights                                0.143 0.143 0.143 0.143 0.143 0.143 0.143
      highest root included in the CI            7
      max. size of the explicit Hamiltonian    200
--
 
++    Optimization specifications:
      ----------------------------
 
      RASSCF algorithm: Conventional
      Maximum number of macro iterations        64
      Maximum number of SX iterations           25
      Threshold for RASSCF energy            0.100E-07
      Threshold for max MO rotation          0.100E+00
      Threshold for max BLB element          0.100E-03
      Level shift parameter                  0.300E+00
      Make Quasi-Newton update
--
 
      The MO-coefficients are taken from the file:
      /home/pcaah4/diamide_project/cas/ras12i11/ras_orb/orca_geometry_optimisation_240_330_BP86_def2-SVP_def2J_scf_cas1_ras12i11.RasOrb                                                                                                                               
      Title: RASSCF average (pseudo-natural) orbitals                                      
 
      Total molecular charge    0.00
 
      Molecular orbitals exchanged:
        In symmetry  1 :  36  38
        In symmetry  1 :  37  40
 
 
      ************************************************************************************************************************
      *                                                                                                                      *
      *                                            Wave function control section                                             *
      *                                                                                                                      *
      ************************************************************************************************************************
 
 
                                         RASSCF iterations: Energy and convergence statistics
                                         ----------------------------------------------------
 
      Iter CI   SX   CI       RASSCF       Energy    max ROT     max BLB   max BLB  Level Ln srch  Step   QN   Walltime
          iter iter root      energy       change     param      element    value   shift minimum  type update hh:mm:ss
 Nr of preliminary CI iterations:   5
        1   1   25    0  -453.47613923    0.00E+00   0.68E-01   35  39 1  0.39E-01*  0.16   0.00    SX    NO    0:00:13
        2   5   15    0  -453.50252822   -0.26E-01* -0.78E-01   33  38 1 -0.16E-01*  0.19   0.00    SX    NO    0:00:06
        3   3   21    0  -453.50951032   -0.70E-02*  0.56E-01   36  38 1  0.11E-01*  0.19   0.00    SX    NO    0:00:06
        4   5   12    0  -453.51304119   -0.35E-02* -0.40E-01   37  38 1  0.81E-02*  0.19   0.00    SX    NO    0:00:06
        5   6   16    0  -453.51483953   -0.18E-02*  0.17E+00*  37  38 1  0.90E-02*  0.19   2.50    QN   YES    0:00:07
        6   6   15    0  -453.51997035   -0.51E-02*  0.17E+00*  37  38 1  0.11E-01*  0.21   1.64    QN   YES    0:00:06
        7   6   15    0  -453.52320749   -0.32E-02*  0.18E+00*  37  38 1  0.11E-01*  0.22   1.79    QN   YES    0:00:06
        8   6   10    0  -453.52630374   -0.31E-02*  0.19E+00*  30  38 1  0.12E-01*  0.23   1.79    QN   YES    0:00:06
        9   6   20    0  -453.52992349   -0.36E-02*  0.25E+00*  36  38 1 -0.13E-01*  0.24   2.50    QN   YES    0:00:06
       10   6   21    0  -453.53572969   -0.58E-02*  0.30E+00*  36  38 1 -0.18E-01*  0.25   2.50    QN   YES    0:00:06
       11   6   25    0  -453.54102463   -0.53E-02* -0.80E-01   32  38 1  0.19E-01*  0.25   1.15    QN   YES    0:00:06
       12   5   27    0  -453.54553264   -0.45E-02*  0.11E+00*  32  38 1  0.17E-01*  0.25   2.43    QN   YES    0:00:06
       13   5   29    0  -453.55070378   -0.52E-02*  0.11E+00*  30  38 1 -0.99E-02*  0.25   1.79    QN   YES    0:00:06
       14   4   21    0  -453.55331798   -0.26E-02*  0.95E-01   30  38 1 -0.10E-01*  0.24   1.97    QN   YES    0:00:06
       15   4   15    0  -453.55528407   -0.20E-02* -0.89E-01   30  38 1 -0.78E-02*  0.24   1.73    QN   YES    0:00:06
       16   5   16    0  -453.55638639   -0.11E-02*  0.44E-01   30  38 1 -0.49E-02*  0.24   1.48    QN   YES    0:00:06
       17   5   14    0  -453.55702278   -0.64E-03* -0.22E-01   36  38 1  0.22E-02*  0.25   1.27    QN   YES    0:00:06
       18   5   14    0  -453.55729983   -0.28E-03* -0.32E-01   35  38 1  0.15E-02*  0.25   1.59    QN   YES    0:00:06
       19   5   14    0  -453.55749944   -0.20E-03* -0.33E-01   35  38 1  0.18E-02*  0.26   1.45    QN   YES    0:00:06
       20   5   14    0  -453.55765195   -0.15E-03* -0.85E-01   35  38 1  0.16E-02*  0.25   2.38    QN   YES    0:00:06
       21   6   14    0  -453.55793651   -0.28E-03* -0.17E+00*  34  38 1  0.16E-02*  0.25   2.19    QN   YES    0:00:06
       22   6   16    0  -453.55843191   -0.50E-03* -0.22E+00*  29  30 1 -0.25E-02*  0.22   1.66    QN   YES    0:00:06
       23   6   16    0  -453.55878606   -0.35E-03*  0.40E-01   35  38 1 -0.43E-02*  0.19   0.87    QN   YES    0:00:06
       24   5   16    0  -453.55935985   -0.57E-03*  0.24E+00*  35  38 1 -0.45E-02*  0.18   2.50    QN   YES    0:00:06
       25   6   16    0  -453.56096528   -0.16E-02* -0.67E-01   35  38 1 -0.55E-02*  0.16   1.37    QN   YES    0:00:06
       26   5   15    0  -453.56170839   -0.74E-03*  0.11E+00*  30  38 1 -0.21E-02*  0.16   1.06    QN   YES    0:00:06
       27   5   14    0  -453.56192413   -0.22E-03* -0.23E-01   35  38 1 -0.21E-02*  0.15   1.12    QN   YES    0:00:06
       28   4   13    0  -453.56206238   -0.14E-03* -0.22E-01   29  38 1  0.10E-02*  0.15   1.51    QN   YES    0:00:06
       29   4   13    0  -453.56210389   -0.42E-04* -0.89E-02   29  38 1  0.33E-03*  0.16   1.25    QN   YES    0:00:06
       30   4   12    0  -453.56211265   -0.88E-05* -0.62E-02   28  38 1  0.27E-03*  0.16   1.37    QN   YES    0:00:06
       31   4   12    0  -453.56211600   -0.34E-05*  0.23E-02   35  38 1  0.10E-03*  0.16   1.30    QN   YES    0:00:06
       32   4   11    0  -453.56211694   -0.93E-06* -0.15E-02   29  38 1 -0.70E-04   0.16   1.38    QN   YES    0:00:06
       33   4   10    0  -453.56211723   -0.30E-06* -0.11E-02   20  38 1 -0.34E-04   0.16   1.37    QN   YES    0:00:06
       34   4    9    0  -453.56211733   -0.95E-07* -0.73E-03   35  38 1 -0.20E-04   0.16   1.36    QN   YES    0:00:06
       35   3    9    0  -453.56211736   -0.31E-07* -0.39E-03   35  38 1 -0.14E-04   0.16   1.33    QN   YES    0:00:06
       36   3    8    0  -453.56211737   -0.12E-07* -0.28E-03   33  40 1  0.58E-05   0.16   1.30    QN   YES    0:00:06
       37   3    7    0  -453.56211737   -0.42E-08   0.35E-04   20  38 1  0.52E-05   0.16   1.07    QN   YES    0:00:06
      Convergence after 37 iterations
       38   1    7    0  -453.56211738   -0.82E-09   0.35E-04   20  38 1  0.32E-05   0.16   1.07    QN   YES    0:00:06
 
      ************************************************************************************************************************
                                                      Wave function printout:
                       occupation of active orbitals, and spin coupling of open shells (u,d: Spin up or down)
      ************************************************************************************************************************
 
      Note: transformation to natural orbitals
      has been made, which may change the order of the CSFs.
 
      printout of CI-coefficients larger than  0.05 for root  1
      energy=    -453.770229
      conf/sym  11111111     Coeff  Weight
             1  22222200  -0.94507 0.89315
             3  2222u2d0  -0.12322 0.01518
             7  22222u0d  -0.07093 0.00503
            15  22222002   0.08970 0.00805
            21  222u22d0  -0.14520 0.02108
            22  222u2d20  -0.05537 0.00307
            23  222ud220   0.05447 0.00297
            24  222u220d  -0.06304 0.00397
            44  22u2220d  -0.07264 0.00528
            62  2u222d20   0.06017 0.00362
            73  2u222d02  -0.06016 0.00362
           101  22202220   0.05431 0.00295
           121  2u2d2220  -0.05098 0.00260
           145  22022202   0.05491 0.00301
           171  20222220   0.05588 0.00312
 
      printout of CI-coefficients larger than  0.05 for root  2
      energy=    -453.583292
      conf/sym  11111111     Coeff  Weight
             8  2222u20d   0.66698 0.44486
            10  2222udud   0.05953 0.00354
            12  2222uudd  -0.05933 0.00352
            24  222u220d   0.62315 0.38832
            25  222u2dud   0.06870 0.00472
            27  222u2udd  -0.06474 0.00419
            54  22u2d202  -0.08273 0.00684
            64  2u22220d   0.22427 0.05030
            66  2u22d2ud   0.09179 0.00843
            68  2u22u2dd   0.09172 0.00841
            71  2u22ud2d   0.05620 0.00316
           115  22ud2202  -0.07981 0.00637
           122  2u2d22ud   0.11316 0.01280
           155  2ud22202  -0.05371 0.00288
           174  2022u22d   0.06567 0.00431
           207  2u2u22dd   0.09891 0.00978
           208  2u2u2d2d   0.05563 0.00309
           261  202u222d   0.06283 0.00395
 
      printout of CI-coefficients larger than  0.05 for root  3
      energy=    -453.566732
      conf/sym  11111111     Coeff  Weight
             3  2222u2d0  -0.57996 0.33635
             5  2222ud20  -0.09394 0.00882
             8  2222u20d  -0.40526 0.16423
            11  222202ud   0.08152 0.00665
            18  2222u0d2  -0.05458 0.00298
            21  222u22d0   0.38887 0.15122
            22  222u2d20   0.05450 0.00297
            24  222u220d   0.46851 0.21950
            28  222uu2dd  -0.18886 0.03567
            63  2u22d220  -0.10803 0.01167
           102  222022ud  -0.09239 0.00854
           121  2u2d2220   0.06830 0.00467
 
      printout of CI-coefficients larger than  0.05 for root  4
      energy=    -453.545505
      conf/sym  11111111     Coeff  Weight
             3  2222u2d0  -0.41750 0.17431
             5  2222ud20  -0.05631 0.00317
             6  22220220   0.05569 0.00310
             7  22222u0d   0.08279 0.00685
             8  2222u20d   0.45642 0.20832
            11  222202ud  -0.13714 0.01881
            21  222u22d0   0.50363 0.25364
            22  222u2d20   0.06857 0.00470
            24  222u220d  -0.44379 0.19695
            28  222uu2dd   0.20662 0.04269
            63  2u22d220  -0.05138 0.00264
           101  22202220  -0.05446 0.00297
           102  222022ud   0.13126 0.01723
           115  22ud2202   0.05070 0.00257
           121  2u2d2220   0.08905 0.00793
           207  2u2u22dd  -0.05631 0.00317
 
      printout of CI-coefficients larger than  0.05 for root  5
      energy=    -453.514743
      conf/sym  11111111     Coeff  Weight
             1  22222200  -0.06880 0.00473
             7  22222u0d   0.86756 0.75265
            11  222202ud   0.06486 0.00421
            12  2222uudd  -0.08542 0.00730
            14  22220u2d   0.05242 0.00275
            15  22222002  -0.07275 0.00529
            21  222u22d0  -0.06957 0.00484
            24  222u220d   0.09079 0.00824
            26  222ud2ud   0.05926 0.00351
            27  222u2udd  -0.07761 0.00602
            28  222uu2dd  -0.05334 0.00284
            30  222udu2d   0.06274 0.00394
            44  22u2220d  -0.08449 0.00714
            64  2u22220d  -0.33691 0.11351
            68  2u22u2dd  -0.06884 0.00474
            69  2u22202d   0.05331 0.00284
            73  2u222d02   0.06502 0.00423
            84  u222220d  -0.12038 0.01449
           103  22202u2d   0.05556 0.00309
           122  2u2d22ud  -0.05567 0.00310
           123  2u2d2u2d  -0.05156 0.00266
           173  20222u2d   0.06749 0.00456
           207  2u2u22dd  -0.06127 0.00375
 
      printout of CI-coefficients larger than  0.05 for root  6
      energy=    -453.492772
      conf/sym  11111111     Coeff  Weight
            15  22222002   0.08300 0.00689
            64  2u22220d   0.26238 0.06884
            84  u222220d  -0.88593 0.78488
            88  u222u2dd  -0.08018 0.00643
            93  u2222d02  -0.22512 0.05068
            94  u222d202  -0.06347 0.00403
           135  u22d2202  -0.08379 0.00702
           165  u2d22202  -0.07581 0.00575
           185  ud222202   0.09808 0.00962
           213  u22u22dd  -0.08513 0.00725
           215  u22ud22d   0.05185 0.00269
           245  u220222d   0.05753 0.00331
           309  u022222d   0.05459 0.00298
 
      printout of CI-coefficients larger than  0.05 for root  7
      energy=    -453.461547
      conf/sym  11111111     Coeff  Weight
             7  22222u0d   0.27332 0.07470
             8  2222u20d  -0.12629 0.01595
             9  222220ud  -0.10696 0.01144
            11  222202ud   0.21476 0.04612
            12  2222uudd   0.08381 0.00702
            24  222u220d  -0.13628 0.01857
            26  222ud2ud   0.34630 0.11992
            27  222u2udd   0.09909 0.00982
            64  2u22220d   0.67935 0.46151
            65  2u222dud  -0.15152 0.02296
            72  2u22022d  -0.06026 0.00363
            73  2u222d02  -0.06207 0.00385
            84  u222220d   0.21689 0.04704
           102  222022ud   0.29193 0.08523
           155  2ud22202  -0.07569 0.00573
           172  202222ud  -0.13140 0.01726
           209  2u2ud22d  -0.07625 0.00581
           241  2u20222d  -0.08053 0.00648
 
      Natural orbitals and occupation numbers for root  1
      sym 1:   1.999954   1.997008   1.995136   1.935742   1.998131   1.953185   0.067717   0.053125
 
      Natural orbitals and occupation numbers for root  2
      sym 1:   1.999891   1.896158   1.998862   1.110637   1.995038   1.997283   0.106785   0.895346
 
      Natural orbitals and occupation numbers for root  3
      sym 1:   1.999924   1.988904   1.994293   1.931481   1.023804   1.969439   0.982273   0.109881
 
      Natural orbitals and occupation numbers for root  4
      sym 1:   1.999920   1.992724   1.992176   1.013617   1.925632   1.962263   0.139099   0.974568
 
      Natural orbitals and occupation numbers for root  5
      sym 1:   1.999309   1.918199   1.992052   1.991117   1.981506   1.245535   0.085734   0.786549
 
      Natural orbitals and occupation numbers for root  6
      sym 1:   0.967606   1.994016   1.997644   1.938841   1.998693   1.965130   0.064612   1.073458
 
      Natural orbitals and occupation numbers for root  7
      sym 1:   1.998507   1.164273   1.997376   1.503970   1.999536   1.976365   0.359740   1.000235
 
      ************************************************************************************************************************
      *                                                                                                                      *
      *                                                    Final results                                                     *
      *                                                                                                                      *
      ************************************************************************************************************************
 
 
++    Wave function specifications:
      -----------------------------
 
      Number of closed shell electrons          58
      Number of electrons in active shells      12
      Max number of holes in RAS1 space          0
      Max nr of electrons in RAS3 space          0
      Number of inactive orbitals               29
      Number of active orbitals                  8
      Number of secondary orbitals             172
      Spin quantum number                      0.0
      State symmetry                             1
--
 
++    Orbital specifications:
      -----------------------
 
      Symmetry species                           1
                                                 a
      Frozen orbitals                            0
      Inactive orbitals                         29
      Active orbitals                            8
      RAS1 orbitals                              0
      RAS2 orbitals                              8
      RAS3 orbitals                              0
      Secondary orbitals                       172
      Deleted orbitals                           3
      Number of basis functions                212
--
 
++    CI expansion specifications:
      ----------------------------
 
      Number of CSFs                           336
      Number of determinants                   406
      Number of root(s) required                 7
      CI roots used                              1     2     3     4     5     6     7
      weights                                0.143 0.143 0.143 0.143 0.143 0.143 0.143
      highest root included in the CI            7
      Root passed to geometry opt.               7
--
 
++    Final optimization conditions:
      ------------------------------
 
      Average CI energy                            -453.56211738
      RASSCF energy for state  7                   -453.46154728
      Super-CI energy                                -0.00000000
      RASSCF energy change                            0.00000000
      Max change in MO coefficients              -0.428E-04
      Max non-diagonal density matrix element     0.351E-04
      Maximum BLB matrix element                  0.321E-05
      (orbital pair  20,  38 in symmetry   1)
      Norm of electronic gradient            0.203E+00
--
 
 
      Final state energy(ies):
      ------------------------
 
::    RASSCF root number  1 Total energy:   -453.77022914
::    RASSCF root number  2 Total energy:   -453.58329217
::    RASSCF root number  3 Total energy:   -453.56673221
::    RASSCF root number  4 Total energy:   -453.54550550
::    RASSCF root number  5 Total energy:   -453.51474344
::    RASSCF root number  6 Total energy:   -453.49277188
::    RASSCF root number  7 Total energy:   -453.46154728
 
++    Molecular orbitals:
      -------------------
 
      Pseudonatural active orbitals and approximate occupation numbers
 
 
 
 
      Molecular orbitals for symmetry species 1: a  
 
 
      Orbital                 1         2         3         4         5         6         7         8         9        10
      Energy           -20.6025  -20.5375  -15.6193  -15.6115  -11.3480  -11.3424  -11.2768  -11.2584  -11.2489   -1.4239
      Occ. No.           2.0000    2.0000    2.0000    2.0000    2.0000    2.0000    2.0000    2.0000    2.0000    2.0000
 
     1 C1     1s         0.0003   -0.0002    0.0001   -0.0000   -0.0004    0.9999   -0.0001   -0.0035    0.0001   -0.0395
     2 C1     2s         0.0010   -0.0014   -0.0001   -0.0000   -0.0000    0.0019   -0.0005   -0.0001    0.0015    0.3472
     3 C1     3s        -0.0005   -0.0010   -0.0005   -0.0001    0.0000   -0.0003   -0.0004   -0.0004    0.0012   -0.0105
     4 C1     4s        -0.0004   -0.0002   -0.0002   -0.0000   -0.0000    0.0012   -0.0001   -0.0001    0.0004    0.0024
     5 C1     2px       -0.0002   -0.0003    0.0010   -0.0001   -0.0003    0.0008   -0.0003   -0.0005    0.0005   -0.0245
     6 C1     3px        0.0001   -0.0003    0.0003   -0.0002   -0.0001    0.0009   -0.0003    0.0002    0.0010    0.0000
     7 C1     4px        0.0001    0.0000   -0.0003   -0.0000   -0.0000    0.0004   -0.0001    0.0003    0.0004   -0.0081
     8 C1     2py        0.0029    0.0002   -0.0003   -0.0002   -0.0001    0.0008    0.0000   -0.0003   -0.0003    0.1025
     9 C1     3py        0.0019    0.0002   -0.0001   -0.0002   -0.0001    0.0004    0.0000    0.0002   -0.0002   -0.0747
    10 C1     4py       -0.0004    0.0000    0.0001    0.0000    0.0000    0.0004    0.0000    0.0002    0.0001    0.0258
    11 C1     2pz       -0.0010    0.0000   -0.0001    0.0001    0.0002   -0.0005    0.0001    0.0004   -0.0000   -0.0315
    12 C1     3pz       -0.0007    0.0000   -0.0000    0.0001    0.0001   -0.0004    0.0002   -0.0001   -0.0003    0.0263
    13 C1     4pz        0.0001   -0.0000    0.0001   -0.0000   -0.0000   -0.0003    0.0000   -0.0002   -0.0002   -0.0086
    14 C1     3d2-       0.0001    0.0000    0.0002   -0.0000    0.0000   -0.0004    0.0000    0.0001    0.0000   -0.0232
    15 C1     3d1-       0.0000    0.0000    0.0000    0.0000    0.0000   -0.0003    0.0000    0.0000   -0.0000   -0.0212
    16 C1     3d0       -0.0000    0.0000    0.0001    0.0000    0.0000   -0.0004    0.0000    0.0001    0.0000   -0.0207
    17 C1     3d1+      -0.0001    0.0000    0.0000    0.0000   -0.0000    0.0000    0.0000    0.0000    0.0000    0.0038
    18 C1     3d2+       0.0001   -0.0000   -0.0000    0.0000    0.0000   -0.0003    0.0000   -0.0000   -0.0000   -0.0274
    19 C3     1s         0.0001    0.0000    0.0002   -0.0001    0.0009   -0.0000    0.0002    0.0002   -1.0001   -0.0059
    20 C3     2s         0.0004    0.0001    0.0006   -0.0008   -0.0003    0.0006    0.0007    0.0007   -0.0021    0.0164
    21 C3     3s         0.0002    0.0001    0.0001   -0.0005   -0.0003    0.0004    0.0005    0.0005    0.0004   -0.0084
    22 C3     4s         0.0000   -0.0000   -0.0000   -0.0001   -0.0000    0.0000    0.0001    0.0001   -0.0008    0.0001
    23 C3     2px       -0.0001   -0.0005   -0.0017   -0.0004   -0.0008    0.0013    0.0001    0.0008    0.0001   -0.0277
    24 C3     3px        0.0001   -0.0005   -0.0011   -0.0006   -0.0005    0.0019   -0.0000    0.0012    0.0006   -0.0326
    25 C3     4px        0.0002   -0.0001    0.0003   -0.0001   -0.0002    0.0005   -0.0001    0.0003    0.0004   -0.0107
    26 C3     2py        0.0001   -0.0009   -0.0013    0.0004    0.0001   -0.0003   -0.0007    0.0001    0.0011   -0.0001
    27 C3     3py        0.0001   -0.0011   -0.0010    0.0003    0.0002   -0.0003   -0.0009    0.0001    0.0004    0.0000
    28 C3     4py        0.0000   -0.0002    0.0001   -0.0000   -0.0001   -0.0001   -0.0002    0.0000    0.0009   -0.0025
    29 C3     2pz        0.0000    0.0003    0.0006    0.0003    0.0002   -0.0004    0.0000   -0.0003   -0.0001    0.0079
    30 C3     3pz       -0.0001    0.0004    0.0004    0.0005    0.0004   -0.0005    0.0000   -0.0005   -0.0002    0.0106
    31 C3     4pz       -0.0001    0.0001   -0.0001    0.0001    0.0003   -0.0001   -0.0000   -0.0001   -0.0002    0.0045
    32 C3     3d2-       0.0000   -0.0000   -0.0001   -0.0000   -0.0000   -0.0000    0.0000    0.0000    0.0001    0.0018
    33 C3     3d1-      -0.0000    0.0000    0.0001    0.0000   -0.0000   -0.0000   -0.0000   -0.0000    0.0000   -0.0007
    34 C3     3d0       -0.0000    0.0000    0.0001   -0.0000    0.0001   -0.0000   -0.0000   -0.0000   -0.0000   -0.0007
    35 C3     3d1+      -0.0000   -0.0000    0.0000    0.0001    0.0001   -0.0000   -0.0000   -0.0000    0.0001   -0.0020
    36 C3     3d2+       0.0000    0.0001    0.0000   -0.0000   -0.0001    0.0001    0.0000    0.0000   -0.0000    0.0014
    37 C4     1s        -0.0000    0.0004    0.0002    0.0003    1.0001    0.0003    0.0002   -0.0001    0.0009    0.0009
    38 C4     2s        -0.0002    0.0016    0.0013    0.0014    0.0022   -0.0009    0.0001   -0.0009   -0.0002    0.0300
    39 C4     3s        -0.0002    0.0000    0.0009    0.0006    0.0004   -0.0007   -0.0000   -0.0007   -0.0002    0.0119
    40 C4     4s        -0.0001   -0.0003    0.0002    0.0001    0.0010   -0.0002   -0.0001   -0.0002   -0.0002    0.0038
    41 C4     2px       -0.0001    0.0001   -0.0005    0.0007    0.0013    0.0002   -0.0004    0.0001    0.0002   -0.0022
    42 C4     3px       -0.0001    0.0001   -0.0003    0.0004    0.0005    0.0002   -0.0010    0.0000    0.0003    0.0012
    43 C4     4px        0.0000   -0.0000    0.0002   -0.0001    0.0005    0.0000   -0.0005   -0.0001    0.0001   -0.0000
    44 C4     2py       -0.0001    0.0028   -0.0003   -0.0010    0.0003    0.0002    0.0001    0.0001   -0.0005   -0.0004
    45 C4     3py       -0.0001    0.0021   -0.0000   -0.0007    0.0000    0.0003    0.0001    0.0001   -0.0006   -0.0043
    46 C4     4py       -0.0000   -0.0002    0.0002    0.0001   -0.0001    0.0001   -0.0000    0.0000   -0.0001   -0.0015
    47 C4     2pz        0.0001   -0.0003    0.0003   -0.0005   -0.0012   -0.0002    0.0001   -0.0000   -0.0001    0.0041
    48 C4     3pz        0.0001   -0.0004    0.0002   -0.0004   -0.0005   -0.0003    0.0005   -0.0000   -0.0002    0.0031
    49 C4     4pz       -0.0000   -0.0000   -0.0001    0.0000   -0.0005   -0.0001    0.0003    0.0000   -0.0001    0.0008
    50 C4     3d2-       0.0000   -0.0000    0.0001    0.0001   -0.0002    0.0000   -0.0000    0.0000    0.0002   -0.0002
    51 C4     3d1-      -0.0000   -0.0000   -0.0000   -0.0002    0.0002    0.0000    0.0000   -0.0000   -0.0001    0.0002
    52 C4     3d0        0.0000    0.0001   -0.0000    0.0000   -0.0004    0.0000   -0.0000    0.0000   -0.0001   -0.0008
    53 C4     3d1+       0.0000   -0.0001   -0.0001    0.0001   -0.0003    0.0000   -0.0001    0.0000   -0.0001   -0.0001
    54 C4     3d2+       0.0000    0.0002    0.0001    0.0001   -0.0007    0.0000    0.0000    0.0000    0.0000   -0.0015
    55 C6     1s        -0.0000    0.0000    0.0000    0.0003   -0.0001   -0.0000    0.9997   -0.0000    0.0000    0.0005
    56 C6     2s        -0.0002    0.0002    0.0001    0.0013    0.0003   -0.0001   -0.0001   -0.0003   -0.0001    0.0067
    57 C6     3s        -0.0002    0.0001    0.0001    0.0003    0.0000   -0.0001   -0.0017   -0.0003   -0.0002    0.0052
    58 C6     4s        -0.0001    0.0000    0.0000   -0.0001   -0.0001   -0.0001    0.0009   -0.0001   -0.0001    0.0020
    59 C6     2px        0.0001   -0.0003   -0.0000   -0.0004    0.0004    0.0001    0.0001    0.0001    0.0002   -0.0050
    60 C6     3px        0.0001   -0.0003   -0.0000    0.0002    0.0005    0.0002    0.0003    0.0001    0.0002   -0.0048
    61 C6     4px        0.0000    0.0000   -0.0000    0.0002    0.0001    0.0000   -0.0006    0.0000    0.0000   -0.0009
    62 C6     2py        0.0000    0.0003   -0.0000   -0.0002   -0.0001    0.0000   -0.0002    0.0000    0.0000   -0.0023
    63 C6     3py        0.0000    0.0001   -0.0000   -0.0000   -0.0003   -0.0000    0.0002    0.0000    0.0001   -0.0014
    64 C6     4py        0.0000   -0.0001   -0.0000    0.0001   -0.0001   -0.0000   -0.0002    0.0000    0.0000    0.0004
    65 C6     2pz       -0.0000   -0.0003    0.0000    0.0002    0.0000    0.0000    0.0001    0.0000   -0.0000    0.0005
    66 C6     3pz       -0.0000   -0.0003    0.0000   -0.0001   -0.0001    0.0000    0.0000   -0.0000   -0.0000    0.0007
    67 C6     4pz       -0.0000    0.0000   -0.0000   -0.0001   -0.0001   -0.0000    0.0003   -0.0000   -0.0000    0.0004
    68 C6     3d2-      -0.0000   -0.0000    0.0000   -0.0001   -0.0001   -0.0000   -0.0001   -0.0000   -0.0000    0.0003
    69 C6     3d1-       0.0000    0.0000   -0.0000   -0.0000    0.0000   -0.0000    0.0000   -0.0000   -0.0000   -0.0000
    70 C6     3d0        0.0000   -0.0000   -0.0000    0.0001   -0.0000   -0.0000    0.0001   -0.0000    0.0000    0.0001
    71 C6     3d1+       0.0000   -0.0000    0.0000    0.0000   -0.0000    0.0000    0.0001    0.0000    0.0000   -0.0002
    72 C6     3d2+      -0.0000   -0.0000   -0.0000   -0.0000    0.0000   -0.0000   -0.0000   -0.0000   -0.0000    0.0002
    73 C19    1s         0.0001    0.0001    0.0000    0.0000   -0.0000    0.0035    0.0000    0.9999   -0.0000   -0.0133
    74 C19    2s         0.0003    0.0004    0.0002    0.0000   -0.0001    0.0005   -0.0000    0.0018   -0.0008   -0.0078
    75 C19    3s         0.0002    0.0002    0.0001   -0.0000   -0.0001    0.0001   -0.0000   -0.0005   -0.0005   -0.0354
    76 C19    4s        -0.0000    0.0000   -0.0001   -0.0000   -0.0000    0.0000   -0.0000    0.0012   -0.0000   -0.0034
    77 C19    2px        0.0003   -0.0000   -0.0002   -0.0000    0.0001   -0.0001    0.0000   -0.0001   -0.0004   -0.0080
    78 C19    3px        0.0001   -0.0001   -0.0002   -0.0000   -0.0001   -0.0003    0.0000   -0.0000   -0.0003   -0.0111
    79 C19    4px       -0.0001   -0.0000   -0.0000   -0.0000   -0.0000   -0.0001   -0.0000    0.0003    0.0000    0.0076
    80 C19    2py       -0.0002   -0.0000    0.0002   -0.0000   -0.0000    0.0003   -0.0001   -0.0003    0.0001    0.0226
    81 C19    3py       -0.0002   -0.0000    0.0001   -0.0000   -0.0001   -0.0001   -0.0001   -0.0000    0.0002   -0.0010
    82 C19    4py       -0.0000   -0.0000   -0.0001    0.0000    0.0000   -0.0001   -0.0000    0.0002    0.0001    0.0015
    83 C19    2pz       -0.0003    0.0000   -0.0000    0.0001    0.0000   -0.0002   -0.0000    0.0001    0.0001   -0.0045
    84 C19    3pz       -0.0002    0.0000    0.0001    0.0001    0.0001    0.0001    0.0000   -0.0000    0.0000    0.0072
    85 C19    4pz        0.0001    0.0000    0.0001   -0.0000   -0.0000    0.0000    0.0000   -0.0002   -0.0001   -0.0041
    86 C19    3d2-      -0.0000    0.0000   -0.0001   -0.0000   -0.0000    0.0001    0.0000   -0.0001   -0.0000    0.0030
    87 C19    3d1-       0.0000    0.0000   -0.0001    0.0000    0.0000   -0.0000    0.0000    0.0001    0.0000   -0.0037
    88 C19    3d0       -0.0001    0.0000   -0.0001    0.0000    0.0000    0.0001   -0.0000    0.0000    0.0000    0.0009
    89 C19    3d1+      -0.0001    0.0000   -0.0000    0.0000    0.0000    0.0001   -0.0000    0.0001    0.0000    0.0016
    90 C19    3d2+       0.0001    0.0000    0.0000    0.0000   -0.0000   -0.0001   -0.0000   -0.0000   -0.0000   -0.0043
    91 N2     1s         0.0001   -0.0000    0.9999   -0.0002    0.0000   -0.0002   -0.0000    0.0001   -0.0001   -0.0160
    92 N2     2s         0.0006   -0.0001    0.0001   -0.0000    0.0006    0.0003   -0.0001    0.0007   -0.0011    0.0815
    93 N2     3s         0.0004   -0.0000   -0.0013   -0.0000    0.0001    0.0000   -0.0001    0.0006   -0.0006   -0.0458
    94 N2     4s         0.0001   -0.0000    0.0005   -0.0000   -0.0000    0.0001   -0.0000    0.0001   -0.0002   -0.0106
    95 N2     2px       -0.0003   -0.0007   -0.0004    0.0001    0.0008   -0.0004   -0.0003   -0.0004   -0.0001   -0.0195
    96 N2     3px       -0.0004   -0.0009   -0.0006    0.0003    0.0000   -0.0005   -0.0004   -0.0003    0.0001    0.0250
    97 N2     4px        0.0000   -0.0001   -0.0003    0.0000   -0.0001   -0.0003   -0.0000    0.0001   -0.0000   -0.0055
    98 N2     2py       -0.0015    0.0002   -0.0009    0.0000    0.0004    0.0006    0.0001    0.0000   -0.0002    0.0354
    99 N2     3py       -0.0018    0.0004   -0.0004    0.0000   -0.0001    0.0004    0.0002    0.0001   -0.0005    0.0078
   100 N2     4py       -0.0000    0.0001    0.0004   -0.0000   -0.0001   -0.0000    0.0000    0.0000   -0.0003   -0.0024
   101 N2     2pz        0.0007    0.0001    0.0004   -0.0001   -0.0005    0.0000    0.0001    0.0002    0.0001   -0.0052
   102 N2     3pz        0.0008    0.0001    0.0003   -0.0003   -0.0001    0.0001    0.0001    0.0001    0.0001   -0.0116
   103 N2     4pz       -0.0000   -0.0000    0.0000   -0.0000   -0.0000    0.0001    0.0000   -0.0000    0.0001    0.0027
   104 N2     3d2-       0.0000   -0.0000   -0.0001    0.0000    0.0001   -0.0001    0.0000   -0.0000    0.0001   -0.0053
   105 N2     3d1-      -0.0001    0.0000   -0.0000   -0.0000   -0.0000    0.0001   -0.0000   -0.0000   -0.0000    0.0012
   106 N2     3d0       -0.0000   -0.0000   -0.0000   -0.0000   -0.0000    0.0001   -0.0000   -0.0000   -0.0001   -0.0025
   107 N2     3d1+      -0.0001   -0.0000    0.0001   -0.0000   -0.0000    0.0001   -0.0000   -0.0000   -0.0001    0.0006
   108 N2     3d2+      -0.0000    0.0000   -0.0001    0.0000   -0.0000    0.0000   -0.0000    0.0000    0.0001    0.0016
   109 N5     1s         0.0000    0.0002    0.0001    0.9999   -0.0003    0.0000    0.0001    0.0000   -0.0000   -0.0014
   110 N5     2s         0.0002    0.0011   -0.0001    0.0004   -0.0002    0.0002    0.0017    0.0002   -0.0003   -0.0013
   111 N5     3s         0.0001    0.0008   -0.0000   -0.0011   -0.0004    0.0001    0.0010    0.0001   -0.0003   -0.0040
   112 N5     4s         0.0000    0.0002   -0.0000    0.0006    0.0000    0.0000    0.0004    0.0000   -0.0001   -0.0007
   113 N5     2px        0.0001   -0.0004   -0.0001   -0.0002   -0.0002    0.0001    0.0010    0.0002    0.0001   -0.0053
   114 N5     3px        0.0003   -0.0005   -0.0002   -0.0002   -0.0002    0.0001    0.0009    0.0004    0.0002   -0.0089
   115 N5     4px        0.0000    0.0000   -0.0000    0.0003   -0.0003    0.0000    0.0001    0.0001   -0.0000   -0.0019
   116 N5     2py        0.0001   -0.0014    0.0001   -0.0008    0.0003   -0.0001    0.0001    0.0001    0.0002    0.0017
   117 N5     3py        0.0001   -0.0016    0.0000   -0.0003    0.0000   -0.0001    0.0004    0.0001    0.0001   -0.0000
   118 N5     4py        0.0000    0.0000   -0.0000    0.0003    0.0001    0.0000    0.0002    0.0000   -0.0001   -0.0005
   119 N5     2pz       -0.0001    0.0006    0.0000    0.0002    0.0001   -0.0001   -0.0004   -0.0001   -0.0001    0.0033
   120 N5     3pz       -0.0001    0.0007    0.0000   -0.0002    0.0002   -0.0001   -0.0003   -0.0002   -0.0002    0.0039
   121 N5     4pz       -0.0000   -0.0000    0.0000    0.0004    0.0003   -0.0000   -0.0000   -0.0000    0.0000    0.0010
   122 N5     3d2-      -0.0000    0.0000   -0.0000   -0.0000   -0.0001    0.0000    0.0000    0.0000   -0.0000   -0.0001
   123 N5     3d1-       0.0000   -0.0001    0.0000   -0.0000    0.0000   -0.0000   -0.0000   -0.0000    0.0000    0.0002
   124 N5     3d0        0.0000   -0.0000   -0.0000    0.0000    0.0001   -0.0000    0.0000    0.0000    0.0000    0.0000
   125 N5     3d1+      -0.0000   -0.0001    0.0000    0.0001    0.0002    0.0000    0.0001    0.0000    0.0000   -0.0003
   126 N5     3d2+      -0.0000    0.0000   -0.0000   -0.0002   -0.0000   -0.0000   -0.0000    0.0000    0.0000    0.0003
   127 O7     1s         0.9997    0.0000    0.0001    0.0000    0.0000   -0.0003    0.0000    0.0000    0.0000   -0.0245
   128 O7     2s        -0.0013    0.0001    0.0003    0.0001    0.0001    0.0002    0.0001    0.0002    0.0001    0.7019
   129 O7     3s        -0.0013    0.0000    0.0002    0.0001    0.0001   -0.0001    0.0000    0.0002    0.0000   -0.0382
   130 O7     4s         0.0001    0.0000    0.0000    0.0000    0.0000    0.0000    0.0000    0.0001    0.0000   -0.0151
   131 O7     2px        0.0001    0.0000   -0.0002    0.0000   -0.0000    0.0003    0.0000    0.0001   -0.0000    0.0445
   132 O7     3px       -0.0001    0.0001   -0.0002   -0.0000    0.0000    0.0000    0.0001    0.0001   -0.0001   -0.0143
   133 O7     4px        0.0004    0.0000   -0.0000   -0.0000   -0.0000    0.0001    0.0000    0.0000   -0.0001   -0.0007
   134 O7     2py       -0.0003   -0.0000   -0.0001   -0.0000   -0.0000   -0.0006   -0.0000   -0.0001   -0.0000   -0.1398
   135 O7     3py        0.0005   -0.0000   -0.0000   -0.0000   -0.0000   -0.0002   -0.0000   -0.0001    0.0000    0.0422
   136 O7     4py       -0.0013    0.0000    0.0001    0.0000    0.0000   -0.0003    0.0000    0.0000   -0.0000    0.0002
   137 O7     2pz        0.0001   -0.0000    0.0001   -0.0000    0.0000    0.0002   -0.0000    0.0000    0.0000    0.0435
   138 O7     3pz       -0.0002   -0.0000    0.0001   -0.0000   -0.0000    0.0001   -0.0000    0.0000    0.0000   -0.0121
   139 O7     4pz        0.0004   -0.0000   -0.0000   -0.0000   -0.0000    0.0001   -0.0000   -0.0000    0.0000    0.0001
   140 O7     3d2-       0.0000   -0.0000    0.0000   -0.0000    0.0000   -0.0001   -0.0000   -0.0000   -0.0000   -0.0108
   141 O7     3d1-      -0.0000   -0.0000   -0.0001    0.0000   -0.0000   -0.0001   -0.0000   -0.0000    0.0000   -0.0098
   142 O7     3d0       -0.0000   -0.0000   -0.0000    0.0000    0.0000   -0.0000   -0.0000   -0.0000    0.0000   -0.0084
   143 O7     3d1+      -0.0001   -0.0000   -0.0000    0.0000    0.0000    0.0001    0.0000   -0.0000    0.0000    0.0036
   144 O7     3d2+       0.0001    0.0000   -0.0000   -0.0000   -0.0000   -0.0001    0.0000    0.0000   -0.0000   -0.0153
   145 O8     1s         0.0000    0.9997    0.0000    0.0000   -0.0004    0.0000   -0.0000    0.0000    0.0000   -0.0012
   146 O8     2s         0.0001   -0.0011    0.0002    0.0003   -0.0000    0.0001   -0.0002    0.0001    0.0002    0.0109
   147 O8     3s         0.0001   -0.0012    0.0001    0.0002   -0.0003    0.0001   -0.0001    0.0001    0.0002   -0.0032
   148 O8     4s         0.0000    0.0001    0.0000    0.0000   -0.0001    0.0000   -0.0000    0.0000    0.0001   -0.0008
   149 O8     2px        0.0000    0.0000   -0.0000   -0.0002    0.0000   -0.0000   -0.0000   -0.0000   -0.0000   -0.0006
   150 O8     3px        0.0000    0.0000   -0.0001   -0.0002   -0.0001   -0.0001    0.0000    0.0000   -0.0000    0.0002
   151 O8     4px        0.0000    0.0000   -0.0001   -0.0000   -0.0001   -0.0000    0.0000    0.0000    0.0000   -0.0001
   152 O8     2py       -0.0000   -0.0005   -0.0001   -0.0000   -0.0007   -0.0001    0.0000   -0.0000    0.0000   -0.0010
   153 O8     3py       -0.0000    0.0004   -0.0001    0.0001   -0.0000   -0.0001   -0.0000   -0.0000    0.0000    0.0036
   154 O8     4py       -0.0000   -0.0013    0.0000    0.0001   -0.0002   -0.0000   -0.0000   -0.0000    0.0000    0.0000
   155 O8     2pz       -0.0000    0.0000   -0.0000    0.0002    0.0000    0.0000    0.0000    0.0000    0.0000    0.0003
   156 O8     3pz       -0.0000    0.0000    0.0000    0.0002    0.0002    0.0001    0.0000   -0.0000    0.0000   -0.0009
   157 O8     4pz       -0.0000    0.0000    0.0000    0.0000    0.0001    0.0000    0.0000   -0.0000   -0.0000   -0.0002
   158 O8     3d2-      -0.0000   -0.0000    0.0000    0.0000   -0.0000    0.0000    0.0000    0.0000    0.0000    0.0001
   159 O8     3d1-      -0.0000    0.0000    0.0000   -0.0000   -0.0000   -0.0000   -0.0000   -0.0000   -0.0000   -0.0001
   160 O8     3d0       -0.0000   -0.0000   -0.0000   -0.0000   -0.0002   -0.0000   -0.0000    0.0000    0.0000   -0.0001
   161 O8     3d1+      -0.0000   -0.0001   -0.0000   -0.0001    0.0001   -0.0000   -0.0000    0.0000    0.0000    0.0001
   162 O8     3d2+       0.0000    0.0000   -0.0000   -0.0000   -0.0003   -0.0000    0.0000    0.0000    0.0000   -0.0004
   163 H9     1s         0.0005   -0.0001   -0.0001   -0.0001   -0.0001    0.0000   -0.0001    0.0004    0.0003    0.0126
   164 H9     2s         0.0003   -0.0001   -0.0001   -0.0001   -0.0000    0.0001   -0.0000   -0.0002    0.0002    0.0035
   165 H9     2px       -0.0000    0.0000   -0.0001    0.0000    0.0000    0.0000   -0.0000    0.0001    0.0000    0.0012
   166 H9     2py        0.0000   -0.0000   -0.0000    0.0000    0.0000    0.0000    0.0000    0.0000   -0.0000   -0.0003
   167 H9     2pz       -0.0000    0.0000    0.0000    0.0000    0.0000   -0.0000    0.0000    0.0001   -0.0000   -0.0013
   168 H10    1s         0.0001   -0.0001   -0.0002   -0.0000   -0.0001   -0.0000   -0.0001    0.0004    0.0001    0.0063
   169 H10    2s         0.0001   -0.0001   -0.0001   -0.0000   -0.0000   -0.0000   -0.0000   -0.0002    0.0001   -0.0043
   170 H10    2px       -0.0000   -0.0000   -0.0000   -0.0000   -0.0000    0.0001   -0.0000   -0.0000    0.0000    0.0006
   171 H10    2py       -0.0000    0.0000    0.0000   -0.0000    0.0000    0.0000    0.0000    0.0000    0.0000    0.0000
   172 H10    2pz        0.0000   -0.0000   -0.0000   -0.0000   -0.0000   -0.0000    0.0000   -0.0000   -0.0000   -0.0002
   173 H11    1s         0.0001   -0.0001   -0.0000   -0.0001   -0.0000    0.0000   -0.0001    0.0003    0.0002    0.0175
   174 H11    2s         0.0001   -0.0001   -0.0000   -0.0000   -0.0000    0.0000   -0.0001   -0.0003    0.0002    0.0055
   175 H11    2px       -0.0000    0.0000   -0.0001   -0.0000   -0.0000    0.0001    0.0000    0.0000   -0.0000    0.0016
   176 H11    2py        0.0000   -0.0000    0.0000   -0.0000   -0.0000    0.0000   -0.0000   -0.0001    0.0000    0.0010
   177 H11    2pz       -0.0000   -0.0000    0.0000   -0.0000   -0.0000    0.0000   -0.0000   -0.0001    0.0000    0.0006
   178 H12    1s        -0.0014    0.0002   -0.0009    0.0002   -0.0002    0.0005   -0.0000   -0.0001    0.0004    0.0354
   179 H12    2s        -0.0008    0.0001   -0.0006    0.0001   -0.0000    0.0002   -0.0000   -0.0000    0.0002    0.0001
   180 H12    2px        0.0000    0.0000    0.0001   -0.0000    0.0000   -0.0001   -0.0000   -0.0000   -0.0001   -0.0026
   181 H12    2py       -0.0001   -0.0000   -0.0005    0.0000   -0.0000    0.0001   -0.0000   -0.0000    0.0001    0.0045
   182 H12    2pz        0.0000   -0.0000    0.0002    0.0000   -0.0000   -0.0000    0.0000    0.0000    0.0000   -0.0008
   183 H13    1s         0.0003    0.0007    0.0001    0.0000    0.0000   -0.0006   -0.0004   -0.0002   -0.0002    0.0121
   184 H13    2s         0.0002    0.0005    0.0001    0.0000    0.0001   -0.0004   -0.0003   -0.0002    0.0003    0.0022
   185 H13    2px       -0.0000    0.0000   -0.0000   -0.0000    0.0000    0.0000    0.0000   -0.0000   -0.0001   -0.0002
   186 H13    2py        0.0000    0.0000    0.0000   -0.0000    0.0001    0.0000   -0.0000   -0.0000    0.0001    0.0001
   187 H13    2pz       -0.0000   -0.0001   -0.0000   -0.0000   -0.0000    0.0000    0.0000    0.0000   -0.0001   -0.0007
   188 H14    1s         0.0005    0.0005   -0.0004    0.0004   -0.0004   -0.0005   -0.0001   -0.0001   -0.0000    0.0066
   189 H14    2s         0.0003    0.0003   -0.0002    0.0002   -0.0001   -0.0003   -0.0001   -0.0001    0.0004   -0.0015
   190 H14    2px       -0.0000    0.0000    0.0000    0.0001    0.0000    0.0000    0.0000   -0.0000    0.0000   -0.0000
   191 H14    2py        0.0000    0.0001    0.0000    0.0000   -0.0001   -0.0000   -0.0000    0.0000    0.0001   -0.0001
   192 H14    2pz        0.0000    0.0000   -0.0000    0.0000   -0.0001   -0.0000   -0.0000    0.0000    0.0001    0.0003
   193 H15    1s         0.0000   -0.0015    0.0002   -0.0006    0.0003   -0.0004   -0.0003   -0.0000    0.0003    0.0065
   194 H15    2s         0.0000   -0.0009    0.0001   -0.0004    0.0000   -0.0003   -0.0001   -0.0000    0.0001    0.0035
   195 H15    2px       -0.0000   -0.0000   -0.0000   -0.0000   -0.0001   -0.0000    0.0000    0.0000    0.0000    0.0001
   196 H15    2py       -0.0000   -0.0001    0.0000   -0.0005    0.0001   -0.0001   -0.0000   -0.0000    0.0000    0.0009
   197 H15    2pz        0.0000    0.0000   -0.0000    0.0001    0.0001   -0.0000   -0.0000   -0.0000   -0.0000    0.0001
   198 H16    1s        -0.0001    0.0007   -0.0000   -0.0005   -0.0006   -0.0001    0.0005   -0.0001   -0.0003    0.0032
   199 H16    2s        -0.0001    0.0004   -0.0000   -0.0002   -0.0004   -0.0001   -0.0002   -0.0001   -0.0002    0.0024
   200 H16    2px        0.0000   -0.0001    0.0000    0.0001    0.0001    0.0000   -0.0000    0.0000    0.0000   -0.0003
   201 H16    2py       -0.0000    0.0000   -0.0000    0.0000   -0.0000   -0.0000   -0.0000   -0.0000   -0.0000    0.0002
   202 H16    2pz        0.0000   -0.0000   -0.0000   -0.0000    0.0000    0.0000    0.0000    0.0000    0.0000   -0.0002
   203 H17    1s        -0.0000    0.0000    0.0000   -0.0004   -0.0002    0.0000    0.0007    0.0000   -0.0001    0.0014
   204 H17    2s        -0.0000    0.0000    0.0000   -0.0002   -0.0002   -0.0000   -0.0000   -0.0000   -0.0001    0.0010
   205 H17    2px        0.0000   -0.0000   -0.0000    0.0000   -0.0000   -0.0000   -0.0000    0.0000   -0.0000   -0.0000
   206 H17    2py       -0.0000   -0.0000    0.0000   -0.0000   -0.0000    0.0000   -0.0000    0.0000   -0.0000    0.0000
   207 H17    2pz       -0.0000    0.0000    0.0000   -0.0000   -0.0001   -0.0000    0.0000   -0.0000   -0.0000    0.0001
   208 H18    1s        -0.0000   -0.0002    0.0000   -0.0002   -0.0002   -0.0001    0.0010   -0.0000   -0.0001    0.0031
   209 H18    2s        -0.0000   -0.0001    0.0000   -0.0000   -0.0000   -0.0000    0.0001   -0.0000   -0.0001    0.0018
   210 H18    2px       -0.0000    0.0000   -0.0000   -0.0000   -0.0000   -0.0000   -0.0000   -0.0000   -0.0000    0.0001
   211 H18    2py        0.0000    0.0000    0.0000   -0.0000    0.0000    0.0000   -0.0001    0.0000    0.0000   -0.0005
   212 H18    2pz       -0.0000    0.0000    0.0000    0.0000   -0.0000   -0.0000    0.0000   -0.0000   -0.0000    0.0001
 
 
      Orbital                11        12        13        14        15        16        17        18        19        20
      Energy            -1.3885   -1.2459   -1.2276   -1.0186   -0.9689   -0.9075   -0.7971   -0.7867   -0.6945   -0.6586
      Occ. No.           2.0000    2.0000    2.0000    2.0000    2.0000    2.0000    2.0000    2.0000    2.0000    2.0000
 
     1 C1     1s         0.0033   -0.0014   -0.0105   -0.0146    0.0020    0.0101    0.0060    0.0117   -0.0064    0.0005
     2 C1     2s         0.0062    0.0559    0.1696    0.2586    0.0108   -0.1431   -0.2024   -0.3164    0.2079    0.0323
     3 C1     3s         0.0129    0.0090   -0.0013   -0.0187    0.0138    0.0145   -0.0006    0.0097   -0.0157    0.0068
     4 C1     4s         0.0033    0.0030    0.0001   -0.0053    0.0030    0.0052    0.0004    0.0028   -0.0049   -0.0000
     5 C1     2px        0.0089    0.0574    0.1311   -0.0734    0.1155   -0.1172   -0.0416   -0.0632   -0.3014   -0.0172
     6 C1     3px        0.0118    0.0173   -0.0339   -0.0416   -0.0165    0.0703    0.0052    0.0003    0.0788    0.0116
     7 C1     4px        0.0027    0.0124    0.0206   -0.0185    0.0126   -0.0060   -0.0031   -0.0063   -0.0128    0.0021
     8 C1     2py       -0.0030   -0.0229   -0.0963   -0.1263    0.0049    0.0510   -0.0060   -0.0421    0.1172   -0.1065
     9 C1     3py        0.0042    0.0238    0.0460    0.0279   -0.0193    0.0167    0.0166    0.0147   -0.0457    0.0261
    10 C1     4py       -0.0007   -0.0021   -0.0152   -0.0162    0.0001    0.0067    0.0005   -0.0065    0.0119   -0.0052
    11 C1     2pz       -0.0015   -0.0083   -0.0041    0.0851   -0.0469    0.0208    0.0160    0.0325    0.0638    0.0401
    12 C1     3pz       -0.0049   -0.0139   -0.0096   -0.0046    0.0128   -0.0326   -0.0037   -0.0042   -0.0105   -0.0122
    13 C1     4pz       -0.0004   -0.0032   -0.0016    0.0124   -0.0053   -0.0015    0.0019    0.0047   -0.0007    0.0005
    14 C1     3d2-       0.0011   -0.0027   -0.0106    0.0052   -0.0136    0.0171   -0.0014   -0.0043    0.0015    0.0034
    15 C1     3d1-       0.0007    0.0022    0.0069   -0.0070    0.0052   -0.0041    0.0020    0.0041   -0.0153    0.0015
    16 C1     3d0        0.0006   -0.0021   -0.0077   -0.0038   -0.0044    0.0092    0.0039    0.0057   -0.0008    0.0015
    17 C1     3d1+      -0.0007   -0.0027   -0.0084   -0.0101    0.0037    0.0005    0.0062    0.0102    0.0065   -0.0047
    18 C1     3d2+       0.0016    0.0078    0.0243    0.0046    0.0041   -0.0084   -0.0060   -0.0093   -0.0304    0.0031
    19 C3     1s        -0.0077   -0.0158   -0.0245    0.0270    0.0146   -0.0316    0.0004    0.0090   -0.0014    0.0002
    20 C3     2s         0.0066    0.0664    0.1625   -0.2389   -0.1333    0.3831   -0.0535   -0.1687   -0.0360   -0.0962
    21 C3     3s        -0.0161   -0.0276   -0.0313    0.0343    0.0173   -0.0278   -0.0049    0.0089   -0.0031   -0.0070
    22 C3     4s        -0.0012   -0.0039   -0.0066    0.0097    0.0038   -0.0071   -0.0006    0.0034    0.0004    0.0005
    23 C3     2px       -0.0118   -0.0077   -0.0460   -0.0495    0.0280    0.0099    0.0228    0.0117    0.0681   -0.0453
    24 C3     3px        0.0034    0.0023   -0.0233   -0.0721    0.0373   -0.0111   -0.0043   -0.0281   -0.0140   -0.0005
    25 C3     4px        0.0090    0.0056   -0.0100   -0.0170   -0.0025    0.0046    0.0016   -0.0001    0.0025    0.0045
    26 C3     2py        0.0164    0.0001   -0.0356    0.0356    0.0696   -0.0627   -0.0498   -0.0225   -0.0682   -0.0008
    27 C3     3py        0.0128    0.0208   -0.0039   -0.0199    0.0503    0.0275   -0.0236   -0.0088    0.0016    0.0133
    28 C3     4py        0.0009   -0.0020   -0.0130    0.0047    0.0093   -0.0043   -0.0109   -0.0010   -0.0025    0.0009
    29 C3     2pz       -0.0030   -0.0053    0.0289    0.0205    0.0019    0.0114    0.0269    0.0238    0.0187   -0.1373
    30 C3     3pz       -0.0073   -0.0046    0.0101    0.0330   -0.0173    0.0072    0.0077    0.0043    0.0020    0.0197
    31 C3     4pz       -0.0049   -0.0015    0.0067    0.0071    0.0029    0.0030    0.0011    0.0026    0.0015   -0.0079
    32 C3     3d2-       0.0071    0.0062    0.0144   -0.0081   -0.0028    0.0044   -0.0026    0.0014   -0.0043    0.0022
    33 C3     3d1-      -0.0033   -0.0025   -0.0068    0.0047    0.0011   -0.0039   -0.0017   -0.0047   -0.0030    0.0103
    34 C3     3d0       -0.0021   -0.0017   -0.0039    0.0026    0.0003   -0.0005   -0.0005   -0.0006    0.0021    0.0025
    35 C3     3d1+      -0.0020   -0.0070   -0.0094    0.0075    0.0050   -0.0042    0.0056    0.0033    0.0067   -0.0098
    36 C3     3d2+      -0.0017    0.0044    0.0057   -0.0046   -0.0025    0.0005   -0.0086   -0.0098   -0.0122   -0.0038
    37 C4     1s        -0.0425   -0.0053    0.0034    0.0109    0.0102    0.0036    0.0139   -0.0047    0.0004   -0.0011
    38 C4     2s         0.3481    0.1067    0.0030   -0.0400   -0.1931   -0.0196   -0.2992    0.1560   -0.0167    0.0453
    39 C4     3s        -0.0187    0.0020    0.0101    0.0355    0.0042    0.0118    0.0166   -0.0010    0.0016    0.0055
    40 C4     4s         0.0028    0.0019    0.0029    0.0090    0.0012    0.0036    0.0035   -0.0000    0.0005    0.0002
    41 C4     2px        0.0476    0.0817   -0.0724    0.0288    0.0265   -0.0518   -0.1217    0.0937    0.0258    0.0129
    42 C4     3px       -0.0050    0.0192   -0.0262    0.0142    0.0846    0.0554    0.0035   -0.0299    0.0022    0.0348
    43 C4     4px        0.0045    0.0167   -0.0160    0.0113    0.0134   -0.0007   -0.0099    0.0055    0.0014    0.0086
    44 C4     2py        0.1246   -0.1400    0.0262    0.0417    0.1049    0.0354    0.0712   -0.0387   -0.0144   -0.1298
    45 C4     3py       -0.0648    0.0664   -0.0171   -0.0120   -0.0200    0.0074   -0.0158    0.0048    0.0046    0.0501
    46 C4     4py        0.0258   -0.0262    0.0007    0.0067    0.0113    0.0013    0.0039    0.0019   -0.0001   -0.0100
    47 C4     2pz       -0.0359   -0.0573    0.0497   -0.0099    0.0114    0.0445    0.1033   -0.0614   -0.0035   -0.0964
    48 C4     3pz        0.0123   -0.0017    0.0127   -0.0102   -0.0553   -0.0285   -0.0151    0.0196   -0.0015    0.0053
    49 C4     4pz       -0.0028   -0.0117    0.0099   -0.0062   -0.0056    0.0028    0.0059   -0.0048   -0.0006   -0.0058
    50 C4     3d2-      -0.0012   -0.0190    0.0078   -0.0017    0.0085    0.0151    0.0050   -0.0070    0.0008   -0.0048
    51 C4     3d1-       0.0019    0.0156   -0.0061   -0.0015   -0.0109   -0.0104   -0.0072    0.0048   -0.0009    0.0095
    52 C4     3d0       -0.0244    0.0035   -0.0018    0.0026    0.0045   -0.0011   -0.0009    0.0023    0.0002   -0.0026
    53 C4     3d1+      -0.0040   -0.0127    0.0043    0.0027    0.0074    0.0011    0.0174   -0.0094   -0.0000    0.0048
    54 C4     3d2+      -0.0409    0.0126   -0.0038    0.0015    0.0058    0.0034   -0.0086    0.0029   -0.0023   -0.0127
    55 C6     1s        -0.0097   -0.0308    0.0122   -0.0141   -0.0505   -0.0290    0.0054    0.0013   -0.0006   -0.0072
    56 C6     2s         0.0271    0.1354   -0.0601    0.1196    0.3657    0.2566   -0.0934    0.0152    0.0045    0.0684
    57 C6     3s        -0.0137   -0.0515    0.0241   -0.0191   -0.0954   -0.0445    0.0089    0.0041   -0.0021   -0.0224
    58 C6     4s        -0.0002   -0.0074    0.0056   -0.0033   -0.0211   -0.0082    0.0028    0.0004   -0.0007   -0.0069
    59 C6     2px       -0.0214   -0.0876    0.0298   -0.0204   -0.0048    0.0406   -0.0392   -0.0119    0.0193    0.3586
    60 C6     3px        0.0040    0.0116   -0.0123    0.0054    0.0241   -0.0062    0.0034    0.0040   -0.0028   -0.0573
    61 C6     4px       -0.0036   -0.0016   -0.0014    0.0047    0.0186    0.0117   -0.0048   -0.0001    0.0005    0.0137
    62 C6     2py       -0.0018   -0.0313    0.0097   -0.0118   -0.0174    0.0050   -0.1350    0.0720    0.0096    0.0810
    63 C6     3py        0.0014    0.0015   -0.0001   -0.0033   -0.0038   -0.0073    0.0085   -0.0040   -0.0036   -0.0179
    64 C6     4py        0.0001   -0.0017    0.0024    0.0005    0.0036    0.0045   -0.0096    0.0056    0.0005    0.0007
    65 C6     2pz        0.0180    0.0345   -0.0095    0.0003   -0.0160   -0.0229    0.0092    0.0111   -0.0003   -0.1386
    66 C6     3pz        0.0051   -0.0078    0.0101   -0.0087   -0.0211   -0.0013    0.0057   -0.0033    0.0004    0.0154
    67 C6     4pz        0.0009    0.0004    0.0011   -0.0022   -0.0093   -0.0058    0.0015    0.0007    0.0002   -0.0065
    68 C6     3d2-       0.0020    0.0111   -0.0041    0.0028    0.0041   -0.0021    0.0157   -0.0068   -0.0014   -0.0218
    69 C6     3d1-      -0.0015   -0.0052    0.0019   -0.0006   -0.0003    0.0014   -0.0043    0.0015    0.0001    0.0081
    70 C6     3d0       -0.0018   -0.0059    0.0028   -0.0019   -0.0030    0.0011   -0.0002   -0.0013    0.0007    0.0153
    71 C6     3d1+      -0.0037   -0.0120    0.0048   -0.0024   -0.0022    0.0036   -0.0009   -0.0025    0.0011    0.0262
    72 C6     3d2+       0.0037    0.0126   -0.0049    0.0020    0.0007   -0.0040    0.0023    0.0012   -0.0015   -0.0239
    73 C19    1s         0.0003   -0.0029   -0.0130   -0.0609    0.0327   -0.0263   -0.0054   -0.0070    0.0063    0.0028
    74 C19    2s         0.0023    0.0060    0.0043    0.3382   -0.2204    0.1988    0.0323    0.0343   -0.0698   -0.0057
    75 C19    3s         0.0034   -0.0030   -0.0350   -0.1214    0.0615   -0.0457   -0.0137   -0.0203    0.0091    0.0090
    76 C19    4s         0.0015    0.0015   -0.0048   -0.0269    0.0147   -0.0105   -0.0039   -0.0059    0.0026    0.0021
    77 C19    2px        0.0033    0.0043    0.0182    0.0402    0.0023   -0.0478   -0.0300   -0.0260    0.0549    0.0896
    78 C19    3px        0.0013   -0.0040   -0.0053   -0.0200    0.0145   -0.0115    0.0052    0.0141   -0.0068   -0.0080
    79 C19    4px       -0.0002   -0.0000    0.0017   -0.0118    0.0112   -0.0125   -0.0022   -0.0016    0.0051    0.0012
    80 C19    2py        0.0020    0.0058    0.0013    0.0256   -0.0137    0.0035   -0.0348   -0.0568    0.2031    0.0289
    81 C19    3py        0.0024    0.0063    0.0004   -0.0205    0.0071    0.0084    0.0011    0.0014   -0.0260   -0.0025
    82 C19    4py        0.0004    0.0010    0.0007   -0.0093    0.0064   -0.0058   -0.0050   -0.0081    0.0042    0.0007
    83 C19    2pz       -0.0033   -0.0079   -0.0095   -0.0296    0.0108    0.0131    0.0245    0.0349   -0.1210   -0.0674
    84 C19    3pz       -0.0027   -0.0051    0.0012    0.0162   -0.0030   -0.0041   -0.0042   -0.0034    0.0164    0.0066
    85 C19    4pz       -0.0001   -0.0007   -0.0005    0.0100   -0.0080    0.0086    0.0027    0.0041   -0.0038   -0.0014
    86 C19    3d2-       0.0001    0.0007    0.0031    0.0093   -0.0023   -0.0029   -0.0044   -0.0058    0.0099    0.0067
    87 C19    3d1-       0.0000    0.0001    0.0003   -0.0072    0.0033   -0.0006    0.0026    0.0037   -0.0169   -0.0035
    88 C19    3d0        0.0000    0.0001    0.0001   -0.0017    0.0011   -0.0010   -0.0003   -0.0001   -0.0037    0.0000
    89 C19    3d1+      -0.0002   -0.0011   -0.0041   -0.0087    0.0020    0.0024    0.0028    0.0035   -0.0087   -0.0063
    90 C19    3d2+       0.0000    0.0013    0.0046    0.0014    0.0013   -0.0019   -0.0001   -0.0004   -0.0012   -0.0010
    91 N2     1s        -0.0023   -0.0150   -0.0406   -0.0006   -0.0009    0.0007   -0.0034   -0.0050   -0.0033    0.0001
    92 N2     2s         0.0137    0.1665    0.5399   -0.0811    0.1504   -0.1309    0.0483    0.1143   -0.0914   -0.0052
    93 N2     3s        -0.0063   -0.0331   -0.0804   -0.0046    0.0119   -0.0103   -0.0092   -0.0089   -0.0145   -0.0016
    94 N2     4s        -0.0015   -0.0097   -0.0252    0.0010    0.0011   -0.0013   -0.0028   -0.0025   -0.0010   -0.0004
    95 N2     2px        0.0193   -0.0073   -0.0723   -0.1538   -0.0765    0.2332    0.0721    0.1093    0.2114   -0.0379
    96 N2     3px        0.0097    0.0009   -0.0036    0.0192    0.0568   -0.0808   -0.0451   -0.0363   -0.0258    0.0293
    97 N2     4px        0.0032    0.0012    0.0003   -0.0085    0.0050   -0.0034   -0.0007    0.0039    0.0005    0.0032
    98 N2     2py        0.0002   -0.0036   -0.0253   -0.0354   -0.0384    0.0355   -0.1793   -0.3458   -0.2876   -0.0479
    99 N2     3py       -0.0079   -0.0108   -0.0265    0.0064    0.0053   -0.0287    0.0400    0.0629    0.0570    0.0078
   100 N2     4py        0.0003   -0.0035   -0.0098    0.0016   -0.0024   -0.0041   -0.0044   -0.0064   -0.0021    0.0015
   101 N2     2pz       -0.0068    0.0033    0.0382    0.0622    0.0407   -0.0854    0.0457    0.0949    0.0481   -0.0361
   102 N2     3pz        0.0003    0.0010    0.0070   -0.0116   -0.0224    0.0311   -0.0039   -0.0142   -0.0158   -0.0031
   103 N2     4pz       -0.0007    0.0010    0.0040    0.0007   -0.0017    0.0030    0.0014    0.0009    0.0003    0.0009
   104 N2     3d2-       0.0001   -0.0011   -0.0036   -0.0042   -0.0077    0.0158    0.0019    0.0001    0.0018   -0.0018
   105 N2     3d1-      -0.0001   -0.0010   -0.0045    0.0037    0.0002   -0.0035   -0.0046   -0.0078   -0.0054   -0.0008
   106 N2     3d0       -0.0001   -0.0033   -0.0119    0.0012   -0.0036    0.0034    0.0005    0.0005    0.0022    0.0024
   107 N2     3d1+      -0.0001   -0.0032   -0.0090   -0.0001    0.0013   -0.0027    0.0024    0.0054    0.0052   -0.0024
   108 N2     3d2+      -0.0003    0.0038    0.0097    0.0038    0.0002   -0.0022   -0.0085   -0.0166   -0.0142    0.0010
   109 N5     1s        -0.0206   -0.0403    0.0132   -0.0005    0.0015    0.0021   -0.0031    0.0006   -0.0010   -0.0022
   110 N5     2s         0.1420    0.5358   -0.2171    0.0294   -0.0999   -0.1963    0.1416   -0.0305   -0.0190   -0.1398
   111 N5     3s        -0.0527   -0.0759    0.0231    0.0002   -0.0113   -0.0123   -0.0015    0.0017   -0.0040   -0.0098
   112 N5     4s        -0.0128   -0.0248    0.0086   -0.0004   -0.0031   -0.0012   -0.0018    0.0009   -0.0007    0.0000
   113 N5     2px       -0.0014   -0.0106   -0.0019    0.0596    0.2109    0.0727    0.1213   -0.0495   -0.0175   -0.4112
   114 N5     3px        0.0162   -0.0183    0.0088   -0.0344   -0.0609   -0.0527   -0.0188    0.0123   -0.0010    0.0574
   115 N5     4px       -0.0054   -0.0021   -0.0006   -0.0005    0.0012   -0.0057    0.0003    0.0002   -0.0007    0.0089
   116 N5     2py        0.0512    0.0136    0.0047   -0.0039   -0.0011    0.0177   -0.3756    0.2374    0.0034   -0.1737
   117 N5     3py       -0.0000   -0.0216    0.0245   -0.0146   -0.0262   -0.0125    0.0939   -0.0444    0.0036    0.0177
   118 N5     4py       -0.0017   -0.0112    0.0041   -0.0016   -0.0031   -0.0026   -0.0073    0.0046   -0.0002   -0.0008
   119 N5     2pz        0.0018    0.0349   -0.0077   -0.0285   -0.1140   -0.0530   -0.0885    0.0539    0.0197    0.1614
   120 N5     3pz       -0.0239   -0.0057   -0.0007    0.0221    0.0339    0.0217    0.0139   -0.0083   -0.0029   -0.0276
   121 N5     4pz        0.0038    0.0003    0.0001    0.0007   -0.0016    0.0006    0.0004   -0.0000   -0.0004   -0.0027
   122 N5     3d2-      -0.0038   -0.0027    0.0009    0.0029    0.0109    0.0056    0.0110   -0.0062   -0.0003   -0.0135
   123 N5     3d1-       0.0048    0.0046   -0.0017   -0.0012   -0.0061   -0.0033   -0.0159    0.0100    0.0006    0.0028
[...]
AIVX     1  Mu1.0001  In1.027 Se1.046               0.20014649     -0.00003035      0.00004770     -0.00000000
AIVX     1  Mu1.0001  In1.028 Se1.046               0.15797396     -0.00017432      0.00062749     -0.00000011
AIVX     1  Mu1.0001  In1.029 Se1.046               0.13294705      0.00000869      0.00009845      0.00000000
AIVX     1  Mu1.0001  In1.020 Se1.047               0.28694410      0.00002278     -0.00005842     -0.00000000
AIVX     1  Mu1.0001  In1.021 Se1.047               0.27050688      0.00002005     -0.00011271     -0.00000000
AIVX     1  Mu1.0001  In1.022 Se1.047               0.27544879      0.00028120     -0.00048136     -0.00000014
AIVX     1  Mu1.0001  In1.025 Se1.047               0.29567830      0.00045133     -0.00063651     -0.00000029
AIVX     1  Mu1.0001  In1.026 Se1.047               0.22844868      0.00031675     -0.00081403     -0.00000026
AIVX     1  Mu1.0001  In1.027 Se1.047               0.19519389     -0.00016877      0.00030741     -0.00000005
AIVX     1  Mu1.0001  In1.028 Se1.047               0.15302136      0.00036360     -0.00050716     -0.00000018
AIVX     1  Mu1.0001  In1.029 Se1.047               0.12799445     -0.00013675      0.00044237     -0.00000006
AIVX     1  Mu1.0001  In1.026 Se1.048               0.29563978      0.00022830     -0.00061196     -0.00000014
AIVX     1  Mu1.0001  In1.027 Se1.048               0.26238499      0.00013793     -0.00023795     -0.00000003
AIVX     1  Mu1.0001  In1.028 Se1.048               0.22021246     -0.00074895      0.00175219     -0.00000131
AIVX     1  Mu1.0001  In1.029 Se1.048               0.19518555      0.00033640     -0.00087899     -0.00000030
AIVX     1  Mu1.0001  In1.021 Se1.049               0.28674826      0.00013660     -0.00026432     -0.00000004
AIVX     1  Mu1.0001  In1.022 Se1.049               0.29169016      0.00020872     -0.00039853     -0.00000008
AIVX     1  Mu1.0001  In1.026 Se1.049               0.24469005      0.00050989     -0.00098906     -0.00000050
AIVX     1  Mu1.0001  In1.027 Se1.049               0.21143527     -0.00014122      0.00024163     -0.00000003
AIVX     1  Mu1.0001  In1.028 Se1.049               0.16926273      0.00000993      0.00011177      0.00000000
AIVX     1  Mu1.0001  In1.029 Se1.049               0.14423582     -0.00043181      0.00088990     -0.00000038
AIVX     1  Mu1.0001  In1.026 Se1.050               0.27355390     -0.00063749      0.00044818     -0.00000029
AIVX     1  Mu1.0001  In1.027 Se1.050               0.24029912     -0.00004364      0.00006043     -0.00000000
AIVX     1  Mu1.0001  In1.028 Se1.050               0.19812658      0.00096264     -0.00079116     -0.00000076
AIVX     1  Mu1.0001  In1.029 Se1.050               0.17309967      0.00001241     -0.00022185     -0.00000000
AIVX     1  Mu1.0001  In1.028 Se1.051               0.26160197      0.00161159     -0.00290958     -0.00000469
AIVX     1  Mu1.0001  In1.029 Se1.051               0.23657507     -0.00025433      0.00058768     -0.00000015
AIVX     1  Mu1.0001  In1.026 Se1.052               0.28553559     -0.00174007      0.00244421     -0.00000425
AIVX     1  Mu1.0001  In1.027 Se1.052               0.25228080      0.00032101     -0.00053049     -0.00000017
AIVX     1  Mu1.0001  In1.028 Se1.052               0.21010826      0.00142776     -0.00201683     -0.00000288
AIVX     1  Mu1.0001  In1.029 Se1.052               0.18508136     -0.00051182      0.00064064     -0.00000033
AIVX     1  Mu1.0001  In1.027 Se1.053               0.27700018     -0.00021435      0.00033362     -0.00000007
AIVX     1  Mu1.0001  In1.028 Se1.053               0.23482764     -0.00003498      0.00057800     -0.00000002
AIVX     1  Mu1.0001  In1.029 Se1.053               0.20980073     -0.00021955      0.00029509     -0.00000006
AIVX     1  Mu1.0001  In1.027 Se1.054               0.28370020      0.00037953     -0.00058874     -0.00000022
AIVX     1  Mu1.0001  In1.028 Se1.054               0.24152767     -0.00021857      0.00033463     -0.00000007
AIVX     1  Mu1.0001  In1.029 Se1.054               0.21650076      0.00029823     -0.00059191     -0.00000018
AIVX     1  Mu1.0001  In1.026 Se1.055               0.26238575     -0.00173370      0.00280376     -0.00000486
AIVX     1  Mu1.0001  In1.027 Se1.055               0.22913096      0.00016293     -0.00027719     -0.00000005
AIVX     1  Mu1.0001  In1.028 Se1.055               0.18695843      0.00102886     -0.00190802     -0.00000196
AIVX     1  Mu1.0001  In1.029 Se1.055               0.16193152     -0.00004897      0.00016635     -0.00000001
AIVX     1  Mu1.0001  In1.028 Se1.056               0.28155805     -0.00113515      0.00123260     -0.00000140
AIVX     1  Mu1.0001  In1.029 Se1.056               0.25653114      0.00082759     -0.00121279     -0.00000100
AIVX     1  Mu1.0001  In1.028 Se1.057               0.28880939      0.00075334     -0.00066020     -0.00000050
AIVX     1  Mu1.0001  In1.029 Se1.057               0.26378248      0.00023537     -0.00058339     -0.00000014
AIVX     1  Mu1.0001  In1.029 Se1.058               0.27807608      0.00049030     -0.00086744     -0.00000043
--
 
   (Skipping property calculation,
    use PROP keyword to activate)
--
 
  Total CASPT2 energies:
::    CASPT2 Root  1     Total energy:   -455.20919381
::    CASPT2 Root  2     Total energy:   -455.03002395
::    CASPT2 Root  3     Total energy:   -455.01328049
::    CASPT2 Root  4     Total energy:   -454.99792696
::    CASPT2 Root  5     Total energy:   -455.02058955
::    CASPT2 Root  6     Total energy:   -455.00082211
::    CASPT2 Root  7     Total energy:   -454.90668536
 
++ Multi-State CASPT2 section:
********************************************************************************
  MULTI-STATE CASPT2 SECTION
--------------------------------------------------------------------------------
 
  Output diagonal energies have been shifted. Add   -455.000000000000     
 
  Effective Hamiltonian matrix (Symmetric):
 
                1               2               3               4               5
   1        -0.20919381
   2        -0.00514289     -0.03002395
   3         0.00074384      0.00011673     -0.01328049
   4        -0.00199978     -0.00104591      0.00319413      0.00207304
   5        -0.00361246     -0.01170481      0.00144202     -0.00481249     -0.02058955
   6        -0.00084427     -0.00220911     -0.00113528      0.00138682     -0.00101935
   7        -0.00149400     -0.00483324     -0.00117141      0.00068147      0.00985050
 
                6               7
   6        -0.00082211
   7         0.00374117      0.09331464
 
       Total MS-CASPT2 energies:
::    MS-CASPT2 Root  1     Total energy:   -455.20945943
::    MS-CASPT2 Root  2     Total energy:   -455.03821624
::    MS-CASPT2 Root  3     Total energy:   -455.01601117
::    MS-CASPT2 Root  4     Total energy:   -455.01232954
::    MS-CASPT2 Root  5     Total energy:   -455.00105339
::    MS-CASPT2 Root  6     Total energy:   -454.99605375
::    MS-CASPT2 Root  7     Total energy:   -454.90539871
 
       Eigenvectors:
            0.99924120     -0.03787193      0.00245168      0.00216053     -0.00038340
            0.03025259      0.81132007      0.45697290     -0.35383594     -0.06439718
           -0.00407337     -0.04518220      0.63093386      0.74735052     -0.14901678
            0.01009366      0.08923855     -0.24450803     -0.01059205     -0.25374017
            0.02105666      0.57141676     -0.56669144      0.55357254      0.01876586
            0.00429430      0.05956791      0.07911607      0.07647329      0.95239613
            0.00463695     -0.01597048      0.07687335     -0.06212685     -0.04303774
 
           -0.00661574     -0.00530488
            0.02051431     -0.04746147
            0.13793384     -0.00999496
            0.93147272      0.00356840
           -0.19266194      0.08936988
            0.27517308      0.03933323
            0.00542047      0.99401839
 
--
 
  THE ORIGINAL CI ARRAYS ARE NOW MIXED AS LINEAR
  COMBINATIONS, GIVEN BY THE EIGENVECTORS.
  A NEW JOBIPH FILE NAMED 'JOBMIX' IS PREPARED.
********************************************************************************
 
++ Mixed CI coefficients:
  The CI coefficients for the MIXED state nr.   1
--------------------------------------------------------------------------------
 CI COEFFICIENTS LARGER THAN  0.50D-01
  Occupation of active orbitals, and spin coupling
  of open shells. (u,d: Spin up or down).
  SGUGA info is (Midvert:IsyUp:UpperWalk/LowerWalk)
        Conf  SGUGA info        Occupation    Coefficient         Weight
           1  ( 1:1:   1/   1)   22222200       -0.947171       0.897133
           3  ( 1:1:   3/   1)   2222u2d0       -0.124450       0.015488
          15  ( 1:1:  15/   1)   22222002        0.088208       0.007781
          21  ( 2:1:   1/   1)   222u22d0       -0.143870       0.020699
          22  ( 2:1:   2/   1)   222u2d20       -0.055243       0.003052
          23  ( 2:1:   3/   1)   222ud220        0.054666       0.002988
          44  ( 2:1:   4/   2)   22u2220d       -0.075732       0.005735
          53  ( 2:1:  13/   2)   22u22d02        0.050168       0.002517
          62  ( 2:1:   2/   3)   2u222d20        0.060399       0.003648
          73  ( 2:1:  13/   3)   2u222d02       -0.059381       0.003526
         101  ( 3:1:   1/   1)   22202220        0.054221       0.002940
         121  ( 3:1:   1/   3)   2u2d2220       -0.050698       0.002570
         145  ( 3:1:   5/   5)   22022202        0.056398       0.003181
         171  ( 3:1:   1/   8)   20222220        0.056017       0.003138
 
  The CI coefficients for the MIXED state nr.   2
--------------------------------------------------------------------------------
 CI COEFFICIENTS LARGER THAN  0.50D-01
  Occupation of active orbitals, and spin coupling
  of open shells. (u,d: Spin up or down).
  SGUGA info is (Midvert:IsyUp:UpperWalk/LowerWalk)
        Conf  SGUGA info        Occupation    Coefficient         Weight
           7  ( 1:1:   7/   1)   22222u0d        0.539419       0.290973
           8  ( 1:1:   8/   1)   2222u20d        0.586877       0.344424
          10  ( 1:1:  10/   1)   2222udud        0.062583       0.003917
          12  ( 1:1:  12/   1)   2222uudd       -0.097015       0.009412
          24  ( 2:1:   4/   1)   222u220d        0.498364       0.248367
          25  ( 2:1:   5/   1)   222u2dud        0.082550       0.006814
          27  ( 2:1:   7/   1)   222u2udd       -0.101263       0.010254
          30  ( 2:1:  10/   1)   222udu2d        0.056053       0.003142
          44  ( 2:1:   4/   2)   22u2220d       -0.082962       0.006883
          54  ( 2:1:  14/   2)   22u2d202       -0.060187       0.003622
          66  ( 2:1:   6/   3)   2u22d2ud        0.051571       0.002660
          84  ( 2:1:   4/   4)   u222220d       -0.117108       0.013714
          93  ( 2:1:  13/   4)   u2222d02       -0.051817       0.002685
         103  ( 3:1:   3/   1)   22202u2d        0.051835       0.002687
         122  ( 3:1:   2/   3)   2u2d22ud        0.061806       0.003820
 
  The CI coefficients for the MIXED state nr.   3
--------------------------------------------------------------------------------
 CI COEFFICIENTS LARGER THAN  0.50D-01
  Occupation of active orbitals, and spin coupling
  of open shells. (u,d: Spin up or down).
  SGUGA info is (Midvert:IsyUp:UpperWalk/LowerWalk)
        Conf  SGUGA info        Occupation    Coefficient         Weight
           3  ( 1:1:   3/   1)   2222u2d0       -0.238246       0.056761
           7  ( 1:1:   7/   1)   22222u0d       -0.492603       0.242657
           8  ( 1:1:   8/   1)   2222u20d       -0.060127       0.003615
          11  ( 1:1:  11/   1)   222202ud        0.055618       0.003093
          15  ( 1:1:  15/   1)   22222002        0.061428       0.003773
          21  ( 2:1:   1/   1)   222u22d0        0.149629       0.022389
          24  ( 2:1:   4/   1)   222u220d        0.622968       0.388089
          28  ( 2:1:   8/   1)   222uu2dd       -0.122716       0.015059
          64  ( 2:1:   4/   3)   2u22220d        0.405493       0.164424
          66  ( 2:1:   6/   3)   2u22d2ud        0.080876       0.006541
          68  ( 2:1:   8/   3)   2u22u2dd        0.076878       0.005910
          73  ( 2:1:  13/   3)   2u222d02       -0.060528       0.003664
         102  ( 3:1:   2/   1)   222022ud       -0.065743       0.004322
         105  ( 3:1:   5/   1)   22202202       -0.065307       0.004265
         115  ( 3:1:   5/   2)   22ud2202       -0.093424       0.008728
         122  ( 3:1:   2/   3)   2u2d22ud        0.091482       0.008369
         173  ( 3:1:   3/   8)   20222u2d       -0.050123       0.002512
         207  ( 4:1:   1/   2)   2u2u22dd        0.115902       0.013433
         208  ( 4:1:   2/   2)   2u2u2d2d        0.062826       0.003947
         261  ( 5:1:   1/   7)   202u222d        0.071126       0.005059
 
  The CI coefficients for the MIXED state nr.   4
--------------------------------------------------------------------------------
 CI COEFFICIENTS LARGER THAN  0.50D-01
  Occupation of active orbitals, and spin coupling
  of open shells. (u,d: Spin up or down).
  SGUGA info is (Midvert:IsyUp:UpperWalk/LowerWalk)
        Conf  SGUGA info        Occupation    Coefficient         Weight
           3  ( 1:1:   3/   1)   2222u2d0       -0.449334       0.201901
           5  ( 1:1:   5/   1)   2222ud20       -0.073637       0.005422
           7  ( 1:1:   7/   1)   22222u0d        0.419237       0.175759
           8  ( 1:1:   8/   1)   2222u20d       -0.551772       0.304453
          11  ( 1:1:  11/   1)   222202ud        0.092132       0.008488
          21  ( 2:1:   1/   1)   222u22d0        0.258773       0.066963
          24  ( 2:1:   4/   1)   222u220d        0.189242       0.035812
          28  ( 2:1:   8/   1)   222uu2dd       -0.183520       0.033680
          54  ( 2:1:  14/   2)   22u2d202        0.065002       0.004225
          63  ( 2:1:   3/   3)   2u22d220       -0.087813       0.007711
          64  ( 2:1:   4/   3)   2u22220d       -0.255303       0.065180
          68  ( 2:1:   8/   3)   2u22u2dd       -0.066634       0.004440
          84  ( 2:1:   4/   4)   u222220d       -0.153208       0.023473
         102  ( 3:1:   2/   1)   222022ud       -0.085261       0.007269
         122  ( 3:1:   2/   3)   2u2d22ud       -0.055749       0.003108
         174  ( 3:1:   4/   8)   2022u22d       -0.056591       0.003203
 
  The CI coefficients for the MIXED state nr.   5
--------------------------------------------------------------------------------
 CI COEFFICIENTS LARGER THAN  0.50D-01
  Occupation of active orbitals, and spin coupling
  of open shells. (u,d: Spin up or down).
  SGUGA info is (Midvert:IsyUp:UpperWalk/LowerWalk)
        Conf  SGUGA info        Occupation    Coefficient         Weight
           3  ( 1:1:   3/   1)   2222u2d0        0.205277       0.042139
           8  ( 1:1:   8/   1)   2222u20d       -0.118441       0.014028
          15  ( 1:1:  15/   1)   22222002        0.081245       0.006601
          21  ( 2:1:   1/   1)   222u22d0       -0.162805       0.026505
          64  ( 2:1:   4/   3)   2u22220d        0.205837       0.042369
          84  ( 2:1:   4/   4)   u222220d       -0.856422       0.733459
          88  ( 2:1:   8/   4)   u222u2dd       -0.077315       0.005978
          93  ( 2:1:  13/   4)   u2222d02       -0.214672       0.046084
          94  ( 2:1:  14/   4)   u222d202       -0.060204       0.003625
         135  ( 3:1:   5/   4)   u22d2202       -0.080255       0.006441
         165  ( 3:1:   5/   7)   u2d22202       -0.070874       0.005023
         185  ( 3:1:   5/   9)   ud222202        0.094257       0.008884
         213  ( 4:1:   1/   3)   u22u22dd       -0.083290       0.006937
         215  ( 4:1:   3/   3)   u22ud22d        0.051335       0.002635
         245  ( 5:1:   1/   3)   u220222d        0.057450       0.003301
         309  ( 5:1:   1/  19)   u022222d        0.052117       0.002716
 
  The CI coefficients for the MIXED state nr.   6
--------------------------------------------------------------------------------
 CI COEFFICIENTS LARGER THAN  0.50D-01
  Occupation of active orbitals, and spin coupling
  of open shells. (u,d: Spin up or down).
  SGUGA info is (Midvert:IsyUp:UpperWalk/LowerWalk)
        Conf  SGUGA info        Occupation    Coefficient         Weight
           3  ( 1:1:   3/   1)   2222u2d0       -0.458906       0.210595
           5  ( 1:1:   5/   1)   2222ud20       -0.063106       0.003982
           6  ( 1:1:   6/   1)   22220220        0.058253       0.003393
           7  ( 1:1:   7/   1)   22222u0d       -0.097086       0.009426
           8  ( 1:1:   8/   1)   2222u20d        0.379938       0.144353
          11  ( 1:1:  11/   1)   222202ud       -0.127795       0.016332
          21  ( 2:1:   1/   1)   222u22d0        0.543345       0.295224
          22  ( 2:1:   2/   1)   222u2d20        0.074815       0.005597
          24  ( 2:1:   4/   1)   222u220d       -0.367080       0.134748
          28  ( 2:1:   8/   1)   222uu2dd        0.181628       0.032989
          63  ( 2:1:   3/   3)   2u22d220       -0.058897       0.003469
          64  ( 2:1:   4/   3)   2u22220d        0.105738       0.011180
          84  ( 2:1:   4/   4)   u222220d       -0.216124       0.046709
          93  ( 2:1:  13/   4)   u2222d02       -0.054069       0.002923
         101  ( 3:1:   1/   1)   22202220       -0.057737       0.003334
         102  ( 3:1:   2/   1)   222022ud        0.113597       0.012904
         121  ( 3:1:   1/   3)   2u2d2220        0.097612       0.009528
 
  The CI coefficients for the MIXED state nr.   7
--------------------------------------------------------------------------------
 CI COEFFICIENTS LARGER THAN  0.50D-01
  Occupation of active orbitals, and spin coupling
  of open shells. (u,d: Spin up or down).
  SGUGA info is (Midvert:IsyUp:UpperWalk/LowerWalk)
        Conf  SGUGA info        Occupation    Coefficient         Weight
           7  ( 1:1:   7/   1)   22222u0d        0.347265       0.120593
           8  ( 1:1:   8/   1)   2222u20d       -0.154700       0.023932
           9  ( 1:1:   9/   1)   222220ud       -0.106939       0.011436
          11  ( 1:1:  11/   1)   222202ud        0.219039       0.047978
          12  ( 1:1:  12/   1)   2222uudd        0.078846       0.006217
          24  ( 2:1:   4/   1)   222u220d       -0.164763       0.027147
          26  ( 2:1:   6/   1)   222ud2ud        0.348916       0.121742
          27  ( 2:1:   7/   1)   222u2udd        0.095178       0.009059
          30  ( 2:1:  10/   1)   222udu2d        0.051358       0.002638
          64  ( 2:1:   4/   3)   2u22220d        0.644093       0.414856
          65  ( 2:1:   5/   3)   2u222dud       -0.152185       0.023160
          72  ( 2:1:  12/   3)   2u22022d       -0.058880       0.003467
          73  ( 2:1:  13/   3)   2u222d02       -0.054664       0.002988
          84  ( 2:1:   4/   4)   u222220d        0.169661       0.028785
         102  ( 3:1:   2/   1)   222022ud        0.292813       0.085740
         155  ( 3:1:   5/   6)   2ud22202       -0.071730       0.005145
         172  ( 3:1:   2/   8)   202222ud       -0.132773       0.017629
         209  ( 4:1:   3/   2)   2u2ud22d       -0.074314       0.005523
         241  ( 5:1:   1/   2)   2u20222d       -0.078224       0.006119
 
--
 
--- Stop Module: caspt2 at Tue Jun 10 18:40:24 2025 /rc=_RC_ALL_IS_WELL_ ---
*** files: xmldump
    saved to directory /home/pcaah4/diamide_project
--- Module caspt2 spent 6 minutes 55 seconds ---

.##################.
.# Happy landing! #.
.##################.

    Timing: Wall=838.44 User=734.34 System=91.97
******************************************************
*** WorkDir at /srv/COMMUNAL_SCRATCH/12407 cleaned ***
******************************************************
