   This run of MOLCAS is using the pymolcas driver

                             OPE
                             OPE          NMOL  CASOP  ENMOLC A   SO
                 OPE        NMOLC        AS  OP EN  MO LC     AS  OP
                OPENM       OL CA        SO  PE NM  OL CA     SOP EN
                OP EN      MO   LC       AS  OP ENMOL  CASO   PENMOL
                OP  EN     MO   LC       AS  OP EN     MO     LC ASO
               OP   E  NMOL  C  AS       OP  EN MO     LC     AS  OP
               OP  E   NMO   LC AS        OPEN  MO     LCASOP EN   M
               O  PEN   MO  LCA  SO
            OPE   NMO   L   CAS    OP
        OPENMOL  CASOP     ENMOL   CASOPE
     OPENMOLCA   SOPENMOLCASOPEN   MOLCASOPE
    OPENMOLCAS   OP           EN   MOL    CAS
    OPENMOLCAS       OP  ENM        O     LCA
    OPENMOLCAS    OPEN  MOLCASO     P  E  NMO
    OPENMOLCAS     OP               E  N  MOL
    OPENMOLCA   SO           PENM   O  L  CAS    OPEN    MO    LCAS
    OPENMOLCA   SOP           ENM   O  L  CAS   OP  EN  MOLC  AS   O
    OPENMOLCA   SOPE           NM      O  LCA   S      OP  EN MO
    OPENMOLC                AS         O  PEN   M      OL  CA  SOPE
    OPENMO        LCASOPE  NMOL        C  ASO   P      ENMOLC     AS
    OPE     NMO      LCA  SO     P     E   NM   OL  CA SO  PE N   MO
          OPENMOLCA            SOPE   NMO        LCAS  O    P  ENMO
     OPENMOLCASOPENMOLCASOPENMOLCASOPENMOLCA
        OPENMOLCASOPENMOLCASOPENMOLCASOPE
            OPENMOLCASOPENMOLCASOPENM
               OPENMOLCASOPENMOLCA        version: v23.06
                   OPENMOLCASO
                       OPE                tag:

 OpenMolcas is free software; you can redistribute it and/or modify it
 under the terms of the GNU Lesser General Public License version 2.1.
 OpenMolcas is distributed in the hope that it will be useful, but it
 is provided "as is" and without any express or implied warranties.
 For more details see the full text of the license in the file
 LICENSE or in <http://www.gnu.org/licenses/>.

                 Copyright (C) The OpenMolcas Authors
           For the author list and the recommended citation,
                   consult the file CONTRIBUTORS.md

           *************************************************
           * pymolcas version py2.24                       *
           *   build 4567b286dd94b1984b333a4ddf893180      *
           *   (after the EMIL interpreter by V. Veryazov) *
           *************************************************

configuration info
------------------
Host name: loginchem01.nottingham.ac.uk (Linux)
C Compiler ID: Intel
C flags: -std=gnu99 -gcc-sys -qopenmp
Fortran Compiler ID: Intel
Fortran flags: -fpp -i8 -heap-arrays -qopenmp
Definitions: _MOLCAS_;_I8_;_LINUX_
Parallel: OFF (GA=OFF)


   ----------------------------------------------------------------------------------------------------
  |
  |              Project: orca_geometry_optimisation_240_315_BP86_def2-SVP_def2J_scf_cas1_ras12i11_cas8
  |       Submitted from: /home/pcaah4/diamide_project
  |         Scratch area: /srv/COMMUNAL_SCRATCH/12406
  |      Save outputs to: /home/pcaah4/diamide_project
  |               Molcas: /software/chemistry/openmolcas/openmolcas-23.06-openmp
  |
  | Scratch area is empty
  |
  |       MOLCAS_DRIVER = /software/chemistry/openmolcas/openmolcas-23.06-openmp/sbin/pymolcas
  | MOLCAS_KEEP_WORKDIR = NO
  |       MOLCAS_NPROCS = 1
  |       MOLCAS_SOURCE = /software/chemistry/openmolcas/openmolcas-23.06-openmp
  |    MOLCAS_STRUCTURE = 0
  |
   ----------------------------------------------------------------------------------------------------

++ ---------   Input file   ---------

&SEWARD
TITLE
orca_geometry_optimisation_240_315_BP86_def2-SVP_def2J_scf_cas1_ras12i11
MULTIPOLES
2
SDIPOLE
ANGMOM
0 0 0
BASIS SET
C.ANO-S...4S3P1D.
C1           -0.196321   -0.155502   -0.110917 /Angstrom
C3            2.214789    0.087244   -0.824305 /Angstrom
C4            3.609805    0.995354   -1.448993 /Angstrom
C6            5.871827    0.598696   -2.308799 /Angstrom
C19          -1.103414   -1.063526    0.727632 /Angstrom
END OF BASIS
BASIS SET
N.ANO-S...4S3P1D.
N2            1.067875   -0.681041   -0.337078 /Angstrom
N5            4.571665    0.115462   -1.877285 /Angstrom
END OF BASIS
BASIS SET
O.ANO-S...4S3P1D.
O7           -0.545994    0.937008   -0.534619 /Angstrom
O8            3.463158    2.170967   -1.647504 /Angstrom
END OF BASIS
BASIS SET
H.ANO-S...2S1P.
H9           -0.786558   -1.048449    1.791998 /Angstrom
H10          -2.134014   -0.670816    0.665307 /Angstrom
H11          -1.089444   -2.118052    0.383226 /Angstrom
H12           1.326080   -1.528895    0.170001 /Angstrom
H13           2.939680   -0.419248   -0.133488 /Angstrom
H14           2.629980   -0.267580   -1.761119 /Angstrom
H15           4.327727   -0.871096   -1.968036 /Angstrom
H16           6.691191    0.116721   -1.735155 /Angstrom
H17           6.041261    0.411804   -3.391135 /Angstrom
H18           5.905437    1.691063   -2.138247 /Angstrom
END OF BASIS
END OF INPUT

&RASSCF
TITLE
orca_geometry_optimisation_240_315_BP86_def2-SVP_def2J_scf_cas1_ras12i11
LUMORB
SPIN
1
SYMMETRY
1
NACTEL
12  0  0
INACTIVE
29
DELETED  ! delete Rydberg orbitals from an initial CAS(12,11) if done
3
FROZEN
0
RAS2
8
ITERATIONS
64 25
CIROOT
7 7
1 2 3 4 5 6 7
1 1 1 1 1 1 1
LEVSHFT
0.3
CIMX
20
FILEorb = /home/pcaah4/diamide_project/cas/ras12i11/ras_orb/orca_geometry_optimisation_240_315_BP86_def2-SVP_def2J_scf_cas1_ras12i11.RasOrb
ALTEr
1
 1 37 38
END OF INPUT

&RASSI
NROF JOBIPH
    1 7
    1 2 3 5 4 6 7
TOFILE
TRDI
TDMN
1.0D-6
END OF INPUT

&CASPT2
TITLE
orca_geometry_optimisation_240_315_BP86_def2-SVP_def2J_scf_cas1_ras12i11
MULTISTATE
7 1 2 3 4 5 6 7
SHIFT
0.35
MAXITER
50
END OF INPUT

-- ----------------------------------

--- Start Module: seward at Tue Jun 10 18:26:22 2025 ---
 
()()()()()()()()()()()()()()()()()()()()()()()()()()()()()()()()()()()()()()()()()()()()()()()()()()

                                              &SEWARD

                                   only a single process is used
                       available to each process: 2.0 GB of memory, 1 thread
                                            pid: 3122507
()()()()()()()()()()()()()()()()()()()()()()()()()()()()()()()()()()()()()()()()()()()()()()()()()()
 
               SEWARD will generate:
                  Multipole Moment integrals up to order  2
                  Kinetic Energy integrals
                  Nuclear Attraction integrals (point charge)
                  One-Electron Hamiltonian integrals
                  Velocity integrals
                  Orbital angular momentum around ( 0.0000  0.0000  0.0000 )
                  Velocity quadrupole around ( 4.0162  0.6189 -1.7677 )
                  Two-Electron Repulsion integrals
 
 Title:
            orca_geometry_optimisation_240_315_BP86_def2-SVP_def2J_scf_cas1_ras12i11    
 
 
                   Integrals are discarded if absolute value <: 0.10E-13
                   Integral cutoff threshold is set to       <: 0.10E-15
 
++    Symmetry information:
      ---------------------
 
                    Character Table for C1 
 
                             E  
                    a        1  x, y, xy, Rz, z, xz, Ry, yz, Rx, I
--
 
 
++    Basis set information:
      ----------------------
 
 
      Basis set label: C.ANO-S...4S3P1D......
 
      Electronic valence basis set:
      ------------------
      Associated Effective Charge   6.000000 au
      Associated Actual Charge      6.000000 au
      Nuclear Model: Point charge
 
      Shell  nPrim  nBasis  Cartesian Spherical Contaminant
         s      10       4        X                  
         p       6       3        X                  
         d       3       1                 X         
 
 
      Basis set label: N.ANO-S...4S3P1D......
 
      Electronic valence basis set:
      ------------------
      Associated Effective Charge   7.000000 au
      Associated Actual Charge      7.000000 au
      Nuclear Model: Point charge
 
      Shell  nPrim  nBasis  Cartesian Spherical Contaminant
         s      10       4        X                  
         p       6       3        X                  
         d       3       1                 X         
 
 
      Basis set label: O.ANO-S...4S3P1D......
 
      Electronic valence basis set:
      ------------------
      Associated Effective Charge   8.000000 au
      Associated Actual Charge      8.000000 au
      Nuclear Model: Point charge
 
      Shell  nPrim  nBasis  Cartesian Spherical Contaminant
         s      10       4        X                  
         p       6       3        X                  
         d       3       1                 X         
 
 
      Basis set label: H.ANO-S...2S1P......
 
      Electronic valence basis set:
      ------------------
      Associated Effective Charge   1.000000 au
      Associated Actual Charge      1.000000 au
      Nuclear Model: Point charge
 
      Shell  nPrim  nBasis  Cartesian Spherical Contaminant
         s       7       2        X                  
         p       3       1        X                  
--
 
 
++    Molecular structure info:
      -------------------------
 
                    ************************************************ 
                    **** Cartesian Coordinates / Bohr, Angstrom **** 
                    ************************************************ 
 
     Center  Label                x              y              z                     x              y              z
        1      C1              -0.370993      -0.293856      -0.209603             -0.196321      -0.155502      -0.110917
        2      C3               4.185345       0.164867      -1.557711              2.214789       0.087244      -0.824305
        3      C4               6.821543       1.880946      -2.738200              3.609805       0.995354      -1.448993
        4      C6              11.096145       1.131371      -4.362998              5.871827       0.598696      -2.308799
        5      C19             -2.085150      -2.009773       1.375025             -1.103414      -1.063526       0.727632
        6      N2               2.017991      -1.286981      -0.636985              1.067875      -0.681041      -0.337078
        7      N5               8.639195       0.218192      -3.547555              4.571665       0.115462      -1.877285
        8      O7              -1.031779       1.770688      -1.010283             -0.545994       0.937008      -0.534619
        9      O8               6.544420       4.102533      -3.113331              3.463158       2.170967      -1.647504
       10      H9              -1.486379      -1.981281       3.386385             -0.786558      -1.048449       1.791998
       11      H10             -4.032702      -1.267659       1.257248             -2.134014      -0.670816       0.665307
       12      H11             -2.058751      -4.002538       0.724192             -1.089444      -2.118052       0.383226
       13      H12              2.505928      -2.889193       0.321255              1.326080      -1.528895       0.170001
       14      H13              5.555190      -0.792264      -0.252256              2.939680      -0.419248      -0.133488
       15      H14              4.969942      -0.505653      -3.328033              2.629980      -0.267580      -1.761119
       16      H15              8.178219      -1.646133      -3.719049              4.327727      -0.871096      -1.968036
       17      H16             12.644518       0.220571      -3.278968              6.691191       0.116721      -1.735155
       18      H17             11.416329       0.778197      -6.408316              6.041261       0.411804      -3.391135
       19      H18             11.159659       3.195646      -4.040701              5.905437       1.691063      -2.138247
 
                    ************************************************* 
                    **** InterNuclear Distances / Bohr, Angstrom **** 
                    ************************************************* 
 
     Atom centers         Bohr        Angstrom
   16 H15       7 N5      1.928112        1.020313
   13 H12       6 N2      1.929609        1.021105
   15 H14       2 C3      2.049202        1.084391
   11 H10       5 C19     2.087478        1.104646
   19 H18       4 C6      2.090248        1.106112
   12 H11       5 C19     2.096520        1.109430
   17 H16       4 C6      2.098128        1.110281
   10 H9        5 C19     2.098787        1.110630
   18 H17       4 C6      2.100138        1.111345
   14 H13       2 C3      2.120563        1.122154
    9 O8        3 C4      2.270015        1.201240
    8 O7        1 C1      2.310860        1.222854
    7 N5        3 C4      2.593004        1.372158
    6 N2        1 C1      2.622251        1.387635
    7 N5        4 C6      2.745077        1.452632
    6 N2        2 C3      2.766409        1.463921
    5 C19       1 C1      2.897197        1.533131
   15 H14       3 C4      3.077692        1.628644
   15 H14      14 H13     3.144052        1.663761
    3 C4        2 C3      3.359765        1.777911
   12 H11      10 H9      3.391218        1.794555
   19 H18      18 H17     3.393456        1.795739
   11 H10      10 H9      3.395032        1.796574
   18 H17      17 H16     3.407671        1.803262
   19 H18      17 H16     3.411176        1.805116
   12 H11      11 H10     3.414703        1.806983
   16 H15      15 H14     3.427336        1.813668
   14 H13       6 N2      3.592289        1.900957
   14 H13      13 H12     3.744866        1.981698
   15 H14       7 N5      3.746406        1.982513
   14 H13       3 C4      3.863887        2.044681
   16 H15       3 C4      3.904219        2.066024
   13 H12       1 C1      3.910787        2.069499
   19 H18       7 N5      3.932069        2.080761
   13 H12       2 C3      3.959575        2.095317
   17 H16       7 N5      4.014320        2.124286
   18 H17       7 N5      4.026169        2.130557
   11 H10       1 C1      4.063011        2.150053
   15 H14       6 N2      4.070162        2.153837
   16 H15       4 C6      4.079644        2.158855
   10 H9        1 C1      4.125848        2.183305
   12 H11       1 C1      4.180290        2.212114
    8 O7        6 N2      4.334720        2.293835
   16 H15      14 H13     4.430353        2.344442
    9 O8        7 N5      4.434494        2.346633
    8 O7        5 C19     4.592513        2.430253
   14 H13       7 N5      4.625051        2.447472
    6 N2        5 C19     4.626703        2.448346
    4 C6        3 C4      4.634011        2.452213
   13 H12      12 H11     4.715738        2.495461
   19 H18       3 C4      4.716375        2.495798
    2 C3        1 C1      4.773681        2.526123
   13 H12       5 C19     4.791848        2.535737
   19 H18       9 O8      4.794047        2.536900
   11 H10       8 O7      4.835162        2.558657
    9 O8        2 C3      4.846690        2.564758
   18 H17      16 H15     4.857457        2.570456
   17 H16      16 H15     4.860667        2.572154
   15 H14       9 O8      4.874470        2.579458
    7 N5        2 C3      4.878432        2.581555
   16 H15       2 C3      4.888164        2.586705
   15 H14      13 H12     5.006988        2.649584
   12 H11       6 N2      5.083983        2.690328
   13 H12      10 H9      5.114474        2.706463
   10 H9        6 N2      5.380537        2.847257
    8 O7        2 C3      5.486048        2.903091
    9 O8        4 C6      5.577425        2.951446
--
 
 
            Nuclear Potential Energy            430.31842598 au
 
 
      Basis set specifications :
      Symmetry species         a  
      Basis functions          212
 
 
      Input file to MOLDEN was generated!
 
--- Stop Module: seward at Tue Jun 10 18:28:07 2025 /rc=_RC_ALL_IS_WELL_ ---
*** files: orca_geometry_optimisation_240_315_BP86_def2-SVP_def2J_scf_cas1_ras12i11_cas8.GssOrb
           orca_geometry_optimisation_240_315_BP86_def2-SVP_def2J_scf_cas1_ras12i11_cas8.guessorb.molden xmldump
    saved to directory /home/pcaah4/diamide_project
--- Module seward spent 1 minute 45 seconds ---

*** symbolic link created: INPORB -> orca_geometry_optimisation_240_315_BP86_def2-SVP_def2J_scf_cas1_ras12i11_cas8.GssOrb
--- Start Module: rasscf at Tue Jun 10 18:28:08 2025 ---
 
()()()()()()()()()()()()()()()()()()()()()()()()()()()()()()()()()()()()()()()()()()()()()()()()()()

                                              &RASSCF

                                   only a single process is used
                       available to each process: 2.0 GB of memory, 1 thread
                                            pid: 3122533
()()()()()()()()()()()()()()()()()()()()()()()()()()()()()()()()()()()()()()()()()()()()()()()()()()
 
 
      Header of the ONEINT file:
      --------------------------
      orca_geometry_optimisation_240_315_BP86_def2-SVP_def2J_scf_cas1_ras12i11
      Integrals generated by Gateway/Seward, Tue Jun 10 18:26:22 2025
 
 
      OrdInt status: non-squared
 
 
      Cartesian coordinates in Angstrom:
      -----------------------------------------------------
      No.  Label        X            Y            Z        
      -----------------------------------------------------
       1   C1        -0.19632100  -0.15550200  -0.11091700
       2   C3         2.21478900   0.08724400  -0.82430500
       3   C4         3.60980500   0.99535400  -1.44899300
       4   C6         5.87182700   0.59869600  -2.30879900
       5   C19       -1.10341400  -1.06352600   0.72763200
       6   N2         1.06787500  -0.68104100  -0.33707800
       7   N5         4.57166500   0.11546200  -1.87728500
       8   O7        -0.54599400   0.93700800  -0.53461900
       9   O8         3.46315800   2.17096700  -1.64750400
      10   H9        -0.78655800  -1.04844900   1.79199800
      11   H10       -2.13401400  -0.67081600   0.66530700
      12   H11       -1.08944400  -2.11805200   0.38322600
      13   H12        1.32608000  -1.52889500   0.17000100
      14   H13        2.93968000  -0.41924800  -0.13348800
      15   H14        2.62998000  -0.26758000  -1.76111900
      16   H15        4.32772700  -0.87109600  -1.96803600
      17   H16        6.69119100   0.11672100  -1.73515500
      18   H17        6.04126100   0.41180400  -3.39113500
      19   H18        5.90543700   1.69106300  -2.13824700
      -----------------------------------------------------
      Nuclear repulsion energy =  430.31842598
 
++    Wave function specifications:
      -----------------------------
 
      Number of closed shell electrons          58
      Number of electrons in active shells      12
      Max number of holes in RAS1 space          0
      Max nr of electrons in RAS3 space          0
      Number of inactive orbitals               29
      Number of active orbitals                  8
      Number of secondary orbitals             172
      Spin quantum number                      0.0
      State symmetry                             1
--
 
++    Orbital specifications:
      -----------------------
 
      Symmetry species                           1
                                                 a
      Frozen orbitals                            0
      Inactive orbitals                         29
      Active orbitals                            8
      RAS1 orbitals                              0
      RAS2 orbitals                              8
      RAS3 orbitals                              0
      Secondary orbitals                       172
      Deleted orbitals                           3
      Number of basis functions                212
--
 
++    CI expansion specifications:
      ----------------------------
 
      Number of CSFs                           336
      Number of determinants                   406
      Number of root(s) required                 7
      Root chosen for geometry opt.              7
      CI roots used                              1     2     3     4     5     6     7
      weights                                0.143 0.143 0.143 0.143 0.143 0.143 0.143
      highest root included in the CI            7
      max. size of the explicit Hamiltonian    200
--
 
++    Optimization specifications:
      ----------------------------
 
      RASSCF algorithm: Conventional
      Maximum number of macro iterations        64
      Maximum number of SX iterations           25
      Threshold for RASSCF energy            0.100E-07
      Threshold for max MO rotation          0.100E+00
      Threshold for max BLB element          0.100E-03
      Level shift parameter                  0.300E+00
      Make Quasi-Newton update
--
 
      The MO-coefficients are taken from the file:
      /home/pcaah4/diamide_project/cas/ras12i11/ras_orb/orca_geometry_optimisation_240_315_BP86_def2-SVP_def2J_scf_cas1_ras12i11.RasOrb                                                                                                                               
      Title: RASSCF average (pseudo-natural) orbitals                                      
 
      Total molecular charge    0.00
 
      Molecular orbitals exchanged:
        In symmetry  1 :  37  38
 
 
      ************************************************************************************************************************
      *                                                                                                                      *
      *                                            Wave function control section                                             *
      *                                                                                                                      *
      ************************************************************************************************************************
 
 
                                         RASSCF iterations: Energy and convergence statistics
                                         ----------------------------------------------------
 
      Iter CI   SX   CI       RASSCF       Energy    max ROT     max BLB   max BLB  Level Ln srch  Step   QN   Walltime
          iter iter root      energy       change     param      element    value   shift minimum  type update hh:mm:ss
 Nr of preliminary CI iterations:   4
        1   1   25    0  -453.47299360    0.00E+00  -0.11E+00*  34  38 1  0.26E-01*  0.19   0.00    SX    NO    0:00:13
        2   4   22    0  -453.48965324   -0.17E-01*  0.98E-01   37  40 1  0.17E-01*  0.19   0.00    SX    NO    0:00:06
        3   3   25    0  -453.49500116   -0.53E-02*  0.79E-01   37  40 1  0.13E-01*  0.18   0.00    SX    NO    0:00:06
        4   4   25    0  -453.49892657   -0.39E-02*  0.63E-01   37  40 1  0.11E-01*  0.18   0.00    SX    NO    0:00:06
        5   4   27    0  -453.50222500   -0.33E-02*  0.21E+00*  36  40 1 -0.12E-01*  0.17   2.50    QN   YES    0:00:07
        6   5   29    0  -453.51210342   -0.99E-02*  0.17E+00*  36  40 1 -0.16E-01*  0.15   1.73    QN   YES    0:00:06
        7   5   27    0  -453.51671919   -0.46E-02* -0.11E+00*  31  39 1 -0.16E-01*  0.15   1.41    QN   YES    0:00:06
        8   4   31    0  -453.51927310   -0.26E-02* -0.16E+00*  31  39 1 -0.16E-01*  0.14   2.50    QN   YES    0:00:06
        9   4   24    0  -453.52294013   -0.37E-02* -0.18E+00*  31  39 1 -0.12E-01*  0.14   2.50    QN   YES    0:00:06
       10   5   26    0  -453.52684053   -0.39E-02* -0.15E+00*  30  38 1 -0.77E-02*  0.13   2.50    LS   YES    0:00:06
       11   5   33    0  -453.52873666   -0.19E-02* -0.15E+00*  36  39 1  0.11E-01*  0.11   1.39    QN   YES    0:00:06
       12   6   35    0  -453.53138601   -0.26E-02*  0.56E-01   36  39 1  0.11E-01*  0.11   1.16    QN   YES    0:00:06
       13   4   31    0  -453.53421083   -0.28E-02*  0.10E+00*  36  39 1  0.78E-02*  0.11   2.05    QN   YES    0:00:06
       14   4   31    0  -453.53689106   -0.27E-02*  0.14E+00*  31  39 1  0.69E-02*  0.11   2.03    QN   YES    0:00:06
       15   4   26    0  -453.53907169   -0.22E-02*  0.15E+00*  31  39 1  0.75E-02*  0.11   2.03    QN   YES    0:00:06
       16   4   26    0  -453.54068765   -0.16E-02* -0.10E+00*  31  39 1  0.69E-02*  0.11   1.58    QN   YES    0:00:06
       17   6   19    0  -453.54165660   -0.97E-03* -0.80E-01   31  39 1  0.52E-02*  0.11   1.69    QN   YES    0:00:06
       18   4   20    0  -453.54235131   -0.69E-03*  0.36E-01   30  40 1 -0.33E-02*  0.10   1.73    QN   YES    0:00:06
       19   5   20    0  -453.54275367   -0.40E-03* -0.31E-01   36  40 1 -0.14E-02*  0.10   1.11    QN   YES    0:00:06
       20   5   20    0  -453.54287939   -0.13E-03* -0.21E-01   34  39 1  0.94E-03*  0.10   1.00    QN   YES    0:00:06
       21   4   19    0  -453.54292882   -0.49E-04* -0.17E-01   34  39 1  0.67E-03*  0.10   1.86    LS   YES    0:00:06
       22   4   18    0  -453.54294238   -0.14E-04* -0.15E-01   30  40 1  0.60E-03*  0.10   1.08    QN   YES    0:00:06
       23   5   18    0  -453.54296003   -0.18E-04* -0.15E-01   30  40 1  0.45E-03*  0.10   2.04    LS   YES    0:00:06
       24   5   17    0  -453.54296791   -0.79E-05*  0.15E-01   21  85 1 -0.34E-03*  0.10   1.26    QN   YES    0:00:06
       25   5   16    0  -453.54297503   -0.71E-05* -0.15E-01   20  39 1  0.18E-03*  0.10   1.68    QN   YES    0:00:06
       26   5   16    0  -453.54297924   -0.42E-05*  0.60E-02   25  38 1  0.14E-03*  0.10   1.32    QN   YES    0:00:06
       27   5   15    0  -453.54298066   -0.14E-05*  0.59E-02   30  40 1 -0.91E-04   0.10   1.67    QN   YES    0:00:06
       28   5   14    0  -453.54298153   -0.87E-06* -0.22E-02   30  40 1 -0.61E-04   0.10   1.37    QN   YES    0:00:06
       29   6   14    0  -453.54298180   -0.27E-06*  0.13E-02   21  98 1  0.26E-04   0.10   1.54    QN   YES    0:00:06
       30   4   12    0  -453.54298190   -0.10E-06* -0.77E-03   28  39 1 -0.20E-04   0.10   1.36    QN   YES    0:00:06
       31   4   11    0  -453.54298195   -0.44E-07*  0.10E-02   25  38 1 -0.15E-04   0.10   1.62    QN   YES    0:00:06
       32   4   12    0  -453.54298198   -0.35E-07*  0.10E-02   25  38 1 -0.94E-05   0.10   1.41    QN   YES    0:00:06
       33   4   12    0  -453.54298201   -0.28E-07*  0.18E-02   16  40 1  0.10E-04   0.10   2.02    QN   YES    0:00:06
       34   4   12    0  -453.54298205   -0.36E-07*  0.15E-02   28  39 1  0.17E-04   0.10   1.64    QN   YES    0:00:06
       35   5   12    0  -453.54298208   -0.30E-07* -0.18E-02   25  38 1  0.18E-04   0.10   1.98    QN   YES    0:00:06
       36   4   11    0  -453.54298211   -0.30E-07*  0.78E-03   25  38 1  0.15E-04   0.10   1.45    QN   YES    0:00:06
       37   4   11    0  -453.54298212   -0.14E-07* -0.46E-03   31  39 1 -0.74E-05   0.10   1.45    QN   YES    0:00:06
       38   4   11    0  -453.54298213   -0.71E-08  -0.17E-03   28  39 1 -0.36E-05   0.10   1.17    QN   YES    0:00:06
      Convergence after 38 iterations
       39   1   11    0  -453.54298213   -0.16E-08  -0.17E-03   25  38 1 -0.38E-05   0.10   1.17    QN   YES    0:00:06
 
      ************************************************************************************************************************
                                                      Wave function printout:
                       occupation of active orbitals, and spin coupling of open shells (u,d: Spin up or down)
      ************************************************************************************************************************
 
      Note: transformation to natural orbitals
      has been made, which may change the order of the CSFs.
 
      printout of CI-coefficients larger than  0.05 for root  1
      energy=    -453.758837
      conf/sym  11111111     Coeff  Weight
             1  22222200   0.92104 0.84832
             2  22222ud0   0.10964 0.01202
             3  2222u2d0   0.18291 0.03346
             6  22220220  -0.08609 0.00741
             7  22222u0d   0.19668 0.03868
            15  22222002  -0.10288 0.01058
            16  2222ud02   0.06053 0.00366
            24  222u220d  -0.05174 0.00268
            44  22u2220d   0.06871 0.00472
            63  2u22d220   0.08219 0.00675
           171  20222220  -0.06268 0.00393
 
      printout of CI-coefficients larger than  0.05 for root  2
      energy=    -453.567136
      conf/sym  11111111     Coeff  Weight
             1  22222200  -0.06956 0.00484
             2  22222ud0  -0.07475 0.00559
             7  22222u0d   0.20128 0.04051
             8  2222u20d   0.18617 0.03466
            12  2222uudd  -0.05417 0.00293
            21  222u22d0  -0.68861 0.47418
            23  222ud220   0.08050 0.00648
            24  222u220d  -0.55766 0.31099
            26  222ud2ud   0.08940 0.00799
            27  222u2udd   0.18624 0.03468
            35  222u20d2  -0.09294 0.00864
            64  2u22220d   0.07957 0.00633
           121  2u2d2220  -0.13078 0.01710
           122  2u2d22ud  -0.05358 0.00287
           201  22uu22dd  -0.05598 0.00313
 
      printout of CI-coefficients larger than  0.05 for root  3
      energy=    -453.558450
      conf/sym  11111111     Coeff  Weight
             1  22222200  -0.10972 0.01204
             2  22222ud0  -0.08510 0.00724
             3  2222u2d0  -0.09368 0.00878
             7  22222u0d   0.66591 0.44344
             8  2222u20d   0.48300 0.23329
             9  222220ud   0.05477 0.00300
            12  2222uudd  -0.09763 0.00953
            21  222u22d0   0.35586 0.12664
            44  22u2220d  -0.08568 0.00734
            54  22u2d202  -0.07306 0.00534
            64  2u22220d   0.21766 0.04737
            65  2u222dud   0.07448 0.00555
            66  2u22d2ud   0.09534 0.00909
            67  2u222udd   0.10692 0.01143
            68  2u22u2dd   0.12458 0.01552
            70  2u22du2d  -0.06029 0.00364
           121  2u2d2220   0.05753 0.00331
           173  20222u2d   0.06247 0.00390
           174  2022u22d   0.06641 0.00441
 
      printout of CI-coefficients larger than  0.05 for root  4
      energy=    -453.523767
      conf/sym  11111111     Coeff  Weight
             1  22222200  -0.05542 0.00307
             2  22222ud0   0.19303 0.03726
             3  2222u2d0   0.11378 0.01295
             7  22222u0d  -0.08796 0.00774
             8  2222u20d  -0.15741 0.02478
             9  222220ud   0.07829 0.00613
            21  222u22d0   0.49502 0.24504
            22  222u2d20  -0.07254 0.00526
            23  222ud220  -0.06886 0.00474
            24  222u220d  -0.67090 0.45010
            25  222u2dud   0.23044 0.05310
            27  222u2udd   0.15283 0.02336
            28  222uu2dd   0.15410 0.02375
            33  222u2d02   0.15130 0.02289
            64  2u22220d  -0.06359 0.00404
           102  222022ud  -0.08526 0.00727
           105  22202202   0.05384 0.00290
           115  22ud2202   0.07191 0.00517
           122  2u2d22ud   0.08693 0.00756
           207  2u2u22dd  -0.05748 0.00330
           208  2u2u2d2d  -0.06933 0.00481
           261  202u222d  -0.07083 0.00502
 
      printout of CI-coefficients larger than  0.05 for root  5
      energy=    -453.499195
      conf/sym  11111111     Coeff  Weight
             1  22222200   0.11438 0.01308
             2  22222ud0   0.15402 0.02372
             7  22222u0d  -0.55187 0.30456
             8  2222u20d   0.71140 0.50608
             9  222220ud  -0.10505 0.01104
            10  2222udud  -0.08372 0.00701
            12  2222uudd   0.10951 0.01199
            14  22220u2d  -0.08403 0.00706
            16  2222ud02  -0.12119 0.01469
            25  222u2dud   0.05701 0.00325
            28  222uu2dd   0.06231 0.00388
            44  22u2220d   0.11534 0.01330
            64  2u22220d   0.11879 0.01411
            65  2u222dud   0.08944 0.00800
            68  2u22u2dd   0.09282 0.00862
            70  2u22du2d   0.05376 0.00289
           174  2022u22d   0.06992 0.00489
 
      printout of CI-coefficients larger than  0.05 for root  6
      energy=    -453.451292
      conf/sym  11111111     Coeff  Weight
             2  22222ud0  -0.14474 0.02095
             3  2222u2d0  -0.05905 0.00349
             4  22222020   0.06234 0.00389
             5  2222ud20   0.10063 0.01013
             7  22222u0d   0.09395 0.00883
             8  2222u20d   0.10973 0.01204
             9  222220ud  -0.28106 0.07900
            10  2222udud  -0.40840 0.16679
            12  2222uudd  -0.25261 0.06381
            15  22222002  -0.17603 0.03099
            16  2222ud02  -0.16825 0.02831
            26  222ud2ud   0.08733 0.00763
            27  222u2udd  -0.05756 0.00331
            61  2u2222d0   0.09531 0.00908
            62  2u222d20  -0.05678 0.00322
            64  2u22220d  -0.65325 0.42674
            65  2u222dud   0.11622 0.01351
            66  2u22d2ud  -0.12263 0.01504
            67  2u222udd   0.06699 0.00449
            69  2u22202d   0.05575 0.00311
            71  2u22ud2d   0.07278 0.00530
            72  2u22022d   0.07541 0.00569
            73  2u222d02   0.07481 0.00560
            84  u222220d   0.11559 0.01336
           172  202222ud   0.11971 0.01433
           175  20222202   0.06057 0.00367
 
      printout of CI-coefficients larger than  0.05 for root  7
      energy=    -453.442198
      conf/sym  11111111     Coeff  Weight
             2  22222ud0   0.18985 0.03604
             3  2222u2d0  -0.14594 0.02130
             7  22222u0d   0.08219 0.00676
             9  222220ud   0.08099 0.00656
            10  2222udud  -0.11777 0.01387
            16  2222ud02  -0.05623 0.00316
            21  222u22d0  -0.12683 0.01609
            22  222u2d20  -0.18099 0.03276
            23  222ud220   0.09275 0.00860
            24  222u220d   0.20434 0.04175
            25  222u2dud   0.59560 0.35474
            26  222ud2ud  -0.27463 0.07542
            27  222u2udd   0.31244 0.09762
            28  222uu2dd  -0.26631 0.07092
            31  222uud2d  -0.09398 0.00883
            33  222u2d02   0.28926 0.08367
            34  222ud202  -0.15320 0.02347
            64  2u22220d  -0.09360 0.00876
           102  222022ud  -0.14008 0.01962
           105  22202202  -0.09972 0.00994
           106  22202ud2  -0.05567 0.00310
           201  22uu22dd  -0.05444 0.00296
           207  2u2u22dd   0.11252 0.01266
           208  2u2u2d2d  -0.10749 0.01155
 
      Natural orbitals and occupation numbers for root  1
      sym 1:   1.999440   1.995327   1.997683   1.998307   1.940673   1.931778   0.072179   0.064614
 
      Natural orbitals and occupation numbers for root  2
      sym 1:   1.998937   1.979984   1.993533   1.078433   1.963827   1.882743   0.945236   0.157308
 
      Natural orbitals and occupation numbers for root  3
      sym 1:   1.998801   1.904362   1.994061   1.856250   1.982939   1.225099   0.240381   0.798107
 
      Natural orbitals and occupation numbers for root  4
      sym 1:   1.997319   1.987035   1.993020   1.030195   1.960986   1.884292   0.183527   0.963628
 
      Natural orbitals and occupation numbers for root  5
      sym 1:   1.998682   1.963032   1.992935   1.987714   1.324296   1.877156   0.115777   0.740408
 
      Natural orbitals and occupation numbers for root  6
      sym 1:   1.990027   1.191301   1.996445   1.995799   1.855548   1.521993   0.461352   0.987537
 
      Natural orbitals and occupation numbers for root  7
      sym 1:   1.999529   1.968727   1.997222   1.171422   1.982561   1.384428   0.636031   0.860081
 
      ************************************************************************************************************************
      *                                                                                                                      *
      *                                                    Final results                                                     *
      *                                                                                                                      *
      ************************************************************************************************************************
 
 
++    Wave function specifications:
      -----------------------------
 
      Number of closed shell electrons          58
      Number of electrons in active shells      12
      Max number of holes in RAS1 space          0
      Max nr of electrons in RAS3 space          0
      Number of inactive orbitals               29
      Number of active orbitals                  8
      Number of secondary orbitals             172
      Spin quantum number                      0.0
      State symmetry                             1
--
 
++    Orbital specifications:
      -----------------------
 
      Symmetry species                           1
                                                 a
      Frozen orbitals                            0
      Inactive orbitals                         29
      Active orbitals                            8
      RAS1 orbitals                              0
      RAS2 orbitals                              8
      RAS3 orbitals                              0
      Secondary orbitals                       172
      Deleted orbitals                           3
      Number of basis functions                212
--
 
++    CI expansion specifications:
      ----------------------------
 
      Number of CSFs                           336
      Number of determinants                   406
      Number of root(s) required                 7
      CI roots used                              1     2     3     4     5     6     7
      weights                                0.143 0.143 0.143 0.143 0.143 0.143 0.143
      highest root included in the CI            7
      Root passed to geometry opt.               7
--
 
++    Final optimization conditions:
      ------------------------------
 
      Average CI energy                            -453.54298213
      RASSCF energy for state  7                   -453.44219759
      Super-CI energy                                -0.00000000
      RASSCF energy change                            0.00000000
      Max change in MO coefficients               0.128E-03
      Max non-diagonal density matrix element    -0.168E-03
      Maximum BLB matrix element                 -0.383E-05
      (orbital pair  25,  38 in symmetry   1)
      Norm of electronic gradient            0.219E+00
--
 
 
      Final state energy(ies):
      ------------------------
 
::    RASSCF root number  1 Total energy:   -453.75883678
::    RASSCF root number  2 Total energy:   -453.56713606
::    RASSCF root number  3 Total energy:   -453.55844987
::    RASSCF root number  4 Total energy:   -453.52376705
::    RASSCF root number  5 Total energy:   -453.49919519
::    RASSCF root number  6 Total energy:   -453.45129236
::    RASSCF root number  7 Total energy:   -453.44219759
 
++    Molecular orbitals:
      -------------------
 
      Pseudonatural active orbitals and approximate occupation numbers
 
 
 
 
      Molecular orbitals for symmetry species 1: a  
 
 
      Orbital                 1         2         3         4         5         6         7         8         9        10
      Energy           -20.6141  -20.5373  -15.6137  -15.6001  -11.3570  -11.3270  -11.2753  -11.2587  -11.2573   -1.4304
      Occ. No.           2.0000    2.0000    2.0000    2.0000    2.0000    2.0000    2.0000    2.0000    2.0000    2.0000
 
     1 C1     1s         0.0003   -0.0001    0.0001   -0.0000   -0.0002    0.9999   -0.0001    0.0001   -0.0042   -0.0395
     2 C1     2s         0.0011   -0.0010    0.0001   -0.0000   -0.0001    0.0020   -0.0005    0.0015    0.0000    0.3389
     3 C1     3s        -0.0004   -0.0008   -0.0004   -0.0001   -0.0000   -0.0004   -0.0004    0.0012   -0.0004   -0.0090
     4 C1     4s        -0.0004   -0.0002   -0.0002   -0.0001   -0.0000    0.0013   -0.0001    0.0004   -0.0001    0.0023
     5 C1     2px       -0.0003   -0.0003    0.0011   -0.0001   -0.0004    0.0008   -0.0003    0.0007   -0.0005   -0.0305
     6 C1     3px        0.0001   -0.0003    0.0005   -0.0002   -0.0001    0.0010   -0.0003    0.0010    0.0002    0.0006
     7 C1     4px        0.0002   -0.0000   -0.0003   -0.0000   -0.0000    0.0004   -0.0001    0.0004    0.0003   -0.0094
     8 C1     2py        0.0028    0.0002   -0.0003   -0.0003   -0.0001    0.0010    0.0001   -0.0002   -0.0003    0.0984
     9 C1     3py        0.0018    0.0002   -0.0001   -0.0002   -0.0001    0.0005    0.0001   -0.0002    0.0002   -0.0734
    10 C1     4py       -0.0004   -0.0000    0.0001    0.0000    0.0001    0.0005    0.0000    0.0001    0.0001    0.0256
    11 C1     2pz       -0.0013    0.0000   -0.0002    0.0002    0.0002   -0.0007    0.0001   -0.0000    0.0003   -0.0387
    12 C1     3pz       -0.0009    0.0001   -0.0001    0.0001    0.0001   -0.0005    0.0001   -0.0004   -0.0001    0.0358
    13 C1     4pz        0.0001    0.0000    0.0000   -0.0000   -0.0000   -0.0004    0.0000   -0.0002   -0.0002   -0.0104
    14 C1     3d2-       0.0001    0.0000    0.0002    0.0000    0.0000   -0.0004    0.0000    0.0000    0.0001   -0.0232
    15 C1     3d1-       0.0000    0.0000   -0.0000    0.0000    0.0000   -0.0004    0.0000   -0.0000    0.0000   -0.0261
    16 C1     3d0       -0.0000    0.0000    0.0001    0.0000    0.0000   -0.0003    0.0000    0.0000    0.0001   -0.0176
    17 C1     3d1+      -0.0001    0.0000    0.0000    0.0000   -0.0000    0.0001    0.0000    0.0000    0.0000    0.0056
    18 C1     3d2+       0.0001   -0.0000   -0.0000    0.0000    0.0000   -0.0003    0.0000   -0.0000   -0.0000   -0.0258
    19 C3     1s         0.0001   -0.0001    0.0002   -0.0001    0.0009   -0.0000    0.0002   -1.0001   -0.0006   -0.0057
    20 C3     2s         0.0003   -0.0005    0.0010   -0.0007   -0.0002    0.0008    0.0009   -0.0022    0.0007    0.0126
    21 C3     3s         0.0002   -0.0004    0.0003   -0.0005   -0.0003    0.0005    0.0006    0.0003    0.0005   -0.0087
    22 C3     4s         0.0000   -0.0001    0.0000   -0.0001   -0.0001    0.0001    0.0001   -0.0008    0.0001   -0.0000
    23 C3     2px        0.0000   -0.0006   -0.0018   -0.0005   -0.0008    0.0014    0.0001    0.0001    0.0009   -0.0289
    24 C3     3px        0.0003   -0.0006   -0.0011   -0.0008   -0.0003    0.0021    0.0001    0.0005    0.0013   -0.0326
    25 C3     4px        0.0002   -0.0000    0.0003   -0.0002   -0.0003    0.0005   -0.0000    0.0004    0.0003   -0.0105
    26 C3     2py        0.0000   -0.0007   -0.0013    0.0004   -0.0000   -0.0003   -0.0007    0.0012    0.0001   -0.0002
    27 C3     3py        0.0000   -0.0009   -0.0011    0.0003    0.0002   -0.0004   -0.0009    0.0004    0.0001    0.0030
    28 C3     4py       -0.0000   -0.0001    0.0001   -0.0000   -0.0001   -0.0001   -0.0002    0.0009    0.0000   -0.0018
    29 C3     2pz       -0.0002    0.0003    0.0006    0.0002    0.0004   -0.0003    0.0000    0.0003   -0.0004    0.0113
    30 C3     3pz       -0.0003    0.0004    0.0004    0.0004    0.0002   -0.0005    0.0001   -0.0002   -0.0006    0.0145
    31 C3     4pz       -0.0001    0.0000   -0.0001    0.0001    0.0002   -0.0001    0.0000   -0.0001   -0.0001    0.0041
    32 C3     3d2-       0.0001   -0.0000   -0.0001   -0.0000   -0.0000   -0.0000    0.0000    0.0001    0.0000    0.0016
    33 C3     3d1-       0.0000    0.0000    0.0001    0.0000   -0.0000   -0.0000   -0.0000    0.0000    0.0000   -0.0009
    34 C3     3d0       -0.0000    0.0000    0.0001    0.0000    0.0000   -0.0000   -0.0000   -0.0001   -0.0000   -0.0007
    35 C3     3d1+      -0.0000   -0.0000    0.0000    0.0000    0.0001   -0.0000   -0.0000    0.0002   -0.0000   -0.0019
    36 C3     3d2+       0.0000    0.0000    0.0000   -0.0001   -0.0001    0.0001    0.0000   -0.0000    0.0000    0.0015
    37 C4     1s        -0.0000    0.0004    0.0002    0.0003    1.0001    0.0001    0.0001    0.0008   -0.0001    0.0009
    38 C4     2s        -0.0002    0.0015    0.0014    0.0014    0.0020   -0.0009    0.0001   -0.0001   -0.0009    0.0272
    39 C4     3s        -0.0002    0.0000    0.0010    0.0006    0.0005   -0.0006   -0.0001   -0.0001   -0.0007    0.0113
    40 C4     4s        -0.0001   -0.0002    0.0002    0.0001    0.0010   -0.0002   -0.0001   -0.0001   -0.0002    0.0037
    41 C4     2px       -0.0001   -0.0005   -0.0005    0.0009    0.0015    0.0004   -0.0004    0.0002    0.0001   -0.0019
    42 C4     3px       -0.0001   -0.0004   -0.0002    0.0006    0.0005    0.0003   -0.0011    0.0004    0.0000    0.0008
    43 C4     4px       -0.0000    0.0000    0.0002   -0.0001    0.0004    0.0000   -0.0005    0.0001   -0.0001    0.0001
    44 C4     2py       -0.0001    0.0024   -0.0003   -0.0008    0.0002    0.0001    0.0001   -0.0006    0.0001    0.0005
    45 C4     3py       -0.0000    0.0017   -0.0000   -0.0005   -0.0001    0.0003    0.0001   -0.0007    0.0001   -0.0039
    46 C4     4py       -0.0000   -0.0002    0.0002    0.0001   -0.0002    0.0001   -0.0000   -0.0001    0.0000   -0.0014
    47 C4     2pz        0.0001   -0.0002    0.0003   -0.0004   -0.0012   -0.0003    0.0001   -0.0002   -0.0000    0.0006
    48 C4     3pz        0.0001   -0.0001    0.0001   -0.0003   -0.0003   -0.0003    0.0004   -0.0003   -0.0000    0.0001
    49 C4     4pz        0.0000    0.0000   -0.0001    0.0000   -0.0003   -0.0000    0.0002   -0.0001    0.0000    0.0001
    50 C4     3d2-       0.0000    0.0001    0.0001    0.0002   -0.0005    0.0000   -0.0000    0.0001    0.0000   -0.0008
    51 C4     3d1-      -0.0000   -0.0000   -0.0000   -0.0001   -0.0000    0.0000    0.0000   -0.0001    0.0000   -0.0002
    52 C4     3d0        0.0000    0.0001   -0.0000    0.0001   -0.0005    0.0000   -0.0001   -0.0001    0.0000   -0.0009
    53 C4     3d1+      -0.0000   -0.0001   -0.0001    0.0000   -0.0002    0.0000   -0.0001   -0.0001    0.0000    0.0002
    54 C4     3d2+       0.0000    0.0003    0.0001    0.0001   -0.0006    0.0000    0.0001    0.0000    0.0000   -0.0013
    55 C6     1s        -0.0000    0.0001    0.0000    0.0003   -0.0001   -0.0000    0.9997    0.0001   -0.0001    0.0008
    56 C6     2s        -0.0004    0.0006    0.0001    0.0016    0.0000   -0.0003   -0.0001   -0.0002   -0.0004    0.0079
    57 C6     3s        -0.0003    0.0004    0.0001    0.0005   -0.0001   -0.0003   -0.0017   -0.0003   -0.0003    0.0062
    58 C6     4s        -0.0001    0.0001    0.0000   -0.0000   -0.0001   -0.0001    0.0009   -0.0001   -0.0001    0.0021
    59 C6     2px        0.0001   -0.0003   -0.0000   -0.0005    0.0004    0.0002   -0.0000    0.0003    0.0001   -0.0045
    60 C6     3px        0.0001   -0.0002   -0.0000    0.0001    0.0005    0.0002    0.0002    0.0003    0.0001   -0.0046
    61 C6     4px        0.0000    0.0000   -0.0000    0.0002    0.0001    0.0000   -0.0006    0.0000    0.0000   -0.0008
    62 C6     2py        0.0001    0.0002   -0.0000   -0.0003   -0.0001    0.0000   -0.0001    0.0000    0.0001   -0.0019
    63 C6     3py        0.0001    0.0001   -0.0000   -0.0001   -0.0003   -0.0000    0.0002    0.0001    0.0001   -0.0012
    64 C6     4py        0.0000   -0.0000   -0.0000    0.0000   -0.0001   -0.0000   -0.0002    0.0000   -0.0000    0.0003
    65 C6     2pz       -0.0001    0.0002   -0.0000   -0.0000   -0.0001    0.0000    0.0000   -0.0001   -0.0000    0.0010
    66 C6     3pz       -0.0001    0.0002   -0.0000   -0.0002   -0.0002   -0.0000   -0.0001   -0.0001   -0.0000    0.0015
    67 C6     4pz       -0.0000   -0.0000    0.0000   -0.0001   -0.0000   -0.0000    0.0002    0.0000   -0.0000    0.0004
    68 C6     3d2-      -0.0000    0.0000    0.0000   -0.0001   -0.0001   -0.0000   -0.0001   -0.0000   -0.0000    0.0002
    69 C6     3d1-       0.0000    0.0000    0.0000    0.0000    0.0000    0.0000    0.0000   -0.0000    0.0000   -0.0001
    70 C6     3d0        0.0000   -0.0000   -0.0000    0.0001   -0.0000   -0.0000    0.0001    0.0000   -0.0000    0.0000
    71 C6     3d1+      -0.0000   -0.0000    0.0000    0.0001   -0.0000    0.0000    0.0000    0.0000    0.0000   -0.0001
    72 C6     3d2+      -0.0000    0.0000   -0.0000    0.0000    0.0000   -0.0000   -0.0000   -0.0000   -0.0000    0.0002
    73 C19    1s         0.0001    0.0000    0.0000    0.0000   -0.0000    0.0042    0.0000   -0.0008    0.9999   -0.0130
    74 C19    2s         0.0004    0.0003    0.0003   -0.0000   -0.0000    0.0005    0.0000   -0.0007    0.0018   -0.0099
    75 C19    3s         0.0002    0.0001    0.0001   -0.0000   -0.0001    0.0001   -0.0000   -0.0003   -0.0005   -0.0353
    76 C19    4s        -0.0000    0.0000   -0.0001   -0.0000   -0.0000    0.0000   -0.0000    0.0000    0.0012   -0.0035
    77 C19    2px        0.0004    0.0000   -0.0002   -0.0001    0.0001   -0.0001    0.0000   -0.0003   -0.0001   -0.0100
    78 C19    3px        0.0002   -0.0000   -0.0003   -0.0000   -0.0001   -0.0004    0.0000   -0.0003   -0.0000   -0.0118
    79 C19    4px       -0.0001   -0.0000   -0.0001   -0.0000   -0.0000   -0.0000   -0.0000    0.0000    0.0003    0.0079
    80 C19    2py       -0.0002   -0.0000    0.0003   -0.0000    0.0000    0.0003   -0.0000    0.0001   -0.0002    0.0204
    81 C19    3py       -0.0002   -0.0001    0.0001   -0.0000   -0.0001   -0.0001   -0.0001    0.0002   -0.0000   -0.0019
    82 C19    4py       -0.0000   -0.0000   -0.0001    0.0000    0.0000   -0.0001   -0.0000    0.0001    0.0002    0.0014
    83 C19    2pz       -0.0002   -0.0000   -0.0000    0.0001   -0.0000   -0.0002   -0.0000    0.0002    0.0001   -0.0065
    84 C19    3pz       -0.0001    0.0000    0.0001    0.0001    0.0001    0.0001    0.0000    0.0000   -0.0000    0.0062
    85 C19    4pz        0.0001    0.0000    0.0001   -0.0000   -0.0000    0.0001    0.0000   -0.0000   -0.0002   -0.0040
    86 C19    3d2-      -0.0000    0.0000   -0.0001   -0.0000    0.0000    0.0001    0.0000   -0.0000   -0.0001    0.0026
    87 C19    3d1-       0.0000    0.0000   -0.0001    0.0000   -0.0000   -0.0000   -0.0000    0.0000    0.0001   -0.0037
    88 C19    3d0       -0.0001    0.0000   -0.0001    0.0000    0.0000    0.0001   -0.0000    0.0000   -0.0000    0.0014
    89 C19    3d1+      -0.0001   -0.0000   -0.0000    0.0000    0.0000    0.0001   -0.0000    0.0000    0.0001    0.0014
    90 C19    3d2+       0.0001    0.0000    0.0000    0.0000   -0.0000   -0.0001    0.0000   -0.0000   -0.0000   -0.0046
    91 N2     1s         0.0001    0.0000    0.9998   -0.0001    0.0001   -0.0002   -0.0000   -0.0001    0.0001   -0.0152
    92 N2     2s         0.0007    0.0002   -0.0003   -0.0001    0.0009    0.0004   -0.0001   -0.0012    0.0008    0.0715
    93 N2     3s         0.0005    0.0002   -0.0016   -0.0001    0.0002    0.0001   -0.0001   -0.0006    0.0006   -0.0447
    94 N2     4s         0.0001    0.0001    0.0003   -0.0000    0.0000    0.0002   -0.0000   -0.0003    0.0001   -0.0103
    95 N2     2px       -0.0003   -0.0005   -0.0004    0.0002    0.0010   -0.0005   -0.0003   -0.0001   -0.0004   -0.0161
    96 N2     3px       -0.0003   -0.0007   -0.0007    0.0003    0.0000   -0.0005   -0.0004    0.0002   -0.0002    0.0225
    97 N2     4px        0.0000   -0.0001   -0.0003    0.0000   -0.0001   -0.0002   -0.0000   -0.0000    0.0001   -0.0053
    98 N2     2py       -0.0012    0.0001   -0.0009    0.0000    0.0006    0.0006    0.0001   -0.0001    0.0001    0.0340
    99 N2     3py       -0.0014    0.0002   -0.0005    0.0000   -0.0001    0.0003    0.0001   -0.0006    0.0001    0.0056
   100 N2     4py        0.0000    0.0001    0.0005   -0.0000   -0.0001   -0.0000    0.0000   -0.0003    0.0000   -0.0024
   101 N2     2pz        0.0008    0.0001    0.0007   -0.0001   -0.0006    0.0000    0.0001    0.0004    0.0002   -0.0126
   102 N2     3pz        0.0010    0.0001    0.0003   -0.0003   -0.0001    0.0002    0.0002    0.0001    0.0002   -0.0182
   103 N2     4pz       -0.0000   -0.0000    0.0002   -0.0000    0.0000    0.0002    0.0000    0.0000   -0.0000    0.0028
   104 N2     3d2-       0.0000   -0.0000   -0.0001    0.0000    0.0001   -0.0001    0.0000    0.0001   -0.0000   -0.0048
   105 N2     3d1-      -0.0001   -0.0000   -0.0001   -0.0000   -0.0000    0.0001   -0.0000    0.0000   -0.0000    0.0014
   106 N2     3d0        0.0000   -0.0000    0.0001   -0.0000   -0.0000    0.0000   -0.0000   -0.0001   -0.0000   -0.0028
   107 N2     3d1+      -0.0001   -0.0000    0.0001   -0.0000   -0.0000    0.0001    0.0000   -0.0000   -0.0000    0.0012
   108 N2     3d2+       0.0000    0.0000   -0.0001    0.0000    0.0000    0.0000   -0.0000    0.0001    0.0000    0.0011
   109 N5     1s         0.0000    0.0001    0.0000    0.9999   -0.0003    0.0000    0.0001   -0.0000    0.0000   -0.0013
   110 N5     2s         0.0002    0.0009   -0.0002    0.0006   -0.0003    0.0001    0.0016   -0.0004    0.0001   -0.0008
   111 N5     3s         0.0001    0.0006   -0.0001   -0.0011   -0.0005    0.0000    0.0010   -0.0003    0.0001   -0.0036
   112 N5     4s         0.0000    0.0001   -0.0000    0.0006   -0.0000   -0.0000    0.0004   -0.0001    0.0000   -0.0007
   113 N5     2px        0.0002   -0.0006   -0.0001   -0.0005   -0.0001    0.0002    0.0010    0.0002    0.0003   -0.0069
   114 N5     3px        0.0004   -0.0006   -0.0002   -0.0003   -0.0001    0.0003    0.0009    0.0003    0.0004   -0.0105
   115 N5     4px        0.0001    0.0001   -0.0000   -0.0000   -0.0003    0.0001    0.0001   -0.0000    0.0001   -0.0022
   116 N5     2py        0.0001   -0.0011    0.0000   -0.0009    0.0003   -0.0000    0.0002    0.0002    0.0001   -0.0002
   117 N5     3py        0.0001   -0.0012    0.0000   -0.0005    0.0001    0.0001    0.0005    0.0002    0.0002   -0.0031
   118 N5     4py        0.0000    0.0000   -0.0000    0.0004    0.0001    0.0001    0.0003   -0.0001    0.0000   -0.0009
   119 N5     2pz       -0.0001    0.0003    0.0000    0.0001   -0.0002   -0.0002   -0.0004   -0.0002   -0.0001    0.0045
   120 N5     3pz       -0.0002    0.0003    0.0001    0.0002    0.0001   -0.0002   -0.0003   -0.0001   -0.0002    0.0046
   121 N5     4pz       -0.0000   -0.0001    0.0000    0.0000    0.0002   -0.0000   -0.0000    0.0000   -0.0000    0.0009
   122 N5     3d2-       0.0000    0.0000   -0.0000    0.0000   -0.0000    0.0000    0.0000   -0.0000    0.0000   -0.0002
   123 N5     3d1-      -0.0000   -0.0000   -0.0000    0.0000   -0.0000    0.0000   -0.0000   -0.0000   -0.0000    0.0001
   124 N5     3d0        0.0000    0.0000   -0.0000    0.0000    0.0001   -0.0000    0.0001    0.0000    0.0000   -0.0001
   125 N5     3d1+       0.0000   -0.0001    0.0000    0.0001    0.0002    0.0000    0.0001    0.0000    0.0000   -0.0003
   126 N5     3d2+      -0.0000    0.0001   -0.0000   -0.0002   -0.0001   -0.0000   -0.0000    0.0000    0.0000    0.0002
   127 O7     1s         0.9997   -0.0000    0.0000    0.0000    0.0000   -0.0003    0.0000    0.0000    0.0000   -0.0243
   128 O7     2s        -0.0015   -0.0000    0.0002    0.0002    0.0001    0.0001    0.0000    0.0001    0.0002    0.7118
   129 O7     3s        -0.0014   -0.0000    0.0002    0.0001    0.0001   -0.0001    0.0000    0.0000    0.0002   -0.0386
   130 O7     4s         0.0001   -0.0000    0.0000    0.0000    0.0000    0.0000    0.0000   -0.0000    0.0001   -0.0152
   131 O7     2px        0.0001    0.0000   -0.0002    0.0000   -0.0001    0.0002    0.0000    0.0000    0.0001    0.0462
   132 O7     3px       -0.0002    0.0001   -0.0003   -0.0000    0.0000    0.0000    0.0001   -0.0001    0.0001   -0.0147
   133 O7     4px        0.0004    0.0000   -0.0000   -0.0000   -0.0000    0.0001    0.0000   -0.0001    0.0000   -0.0006
   134 O7     2py       -0.0002    0.0000   -0.0001   -0.0000   -0.0000   -0.0005   -0.0000    0.0000   -0.0001   -0.1384
   135 O7     3py        0.0006    0.0000   -0.0000   -0.0000   -0.0000   -0.0003   -0.0000   -0.0000   -0.0001    0.0412
   136 O7     4py       -0.0012    0.0000    0.0001    0.0000    0.0000   -0.0004    0.0000   -0.0000    0.0000    0.0001
   137 O7     2pz        0.0001   -0.0000    0.0001    0.0000    0.0000    0.0002   -0.0000    0.0000    0.0000    0.0514
   138 O7     3pz       -0.0002   -0.0000    0.0001    0.0000   -0.0000    0.0001   -0.0000    0.0000    0.0000   -0.0161
   139 O7     4pz        0.0005   -0.0000   -0.0000   -0.0000   -0.0000    0.0002   -0.0000    0.0000   -0.0000    0.0000
   140 O7     3d2-       0.0000    0.0000    0.0000   -0.0000    0.0000   -0.0001   -0.0000   -0.0000   -0.0000   -0.0109
   141 O7     3d1-       0.0000    0.0000   -0.0001    0.0000   -0.0000   -0.0001   -0.0000    0.0000   -0.0000   -0.0118
   142 O7     3d0        0.0000   -0.0000   -0.0000    0.0000    0.0000   -0.0000   -0.0000    0.0000   -0.0000   -0.0072
   143 O7     3d1+      -0.0000   -0.0000   -0.0000    0.0000    0.0000    0.0001   -0.0000    0.0000   -0.0000    0.0046
   144 O7     3d2+       0.0000    0.0000   -0.0000   -0.0000   -0.0000   -0.0001    0.0000    0.0000    0.0000   -0.0146
   145 O8     1s         0.0000    0.9998    0.0000    0.0000   -0.0004    0.0000   -0.0000    0.0000    0.0000   -0.0012
   146 O8     2s         0.0001   -0.0009    0.0001    0.0002    0.0002    0.0002   -0.0002    0.0003    0.0001    0.0103
   147 O8     3s         0.0001   -0.0010    0.0000    0.0001   -0.0002    0.0001   -0.0001    0.0002    0.0001   -0.0029
   148 O8     4s         0.0000    0.0002   -0.0000    0.0000   -0.0001    0.0000   -0.0000    0.0001    0.0000   -0.0007
   149 O8     2px        0.0000    0.0001   -0.0000   -0.0003    0.0002   -0.0001   -0.0000   -0.0001   -0.0000   -0.0007
   150 O8     3px        0.0000   -0.0001   -0.0001   -0.0002   -0.0002   -0.0001   -0.0000    0.0000    0.0000    0.0003
   151 O8     4px        0.0000    0.0002   -0.0001    0.0000   -0.0001   -0.0000    0.0000    0.0000    0.0000    0.0002
   152 O8     2py       -0.0000   -0.0005   -0.0001    0.0000   -0.0008   -0.0001    0.0000    0.0000   -0.0000   -0.0015
   153 O8     3py       -0.0000    0.0004   -0.0001    0.0001   -0.0000   -0.0001    0.0000    0.0000   -0.0000    0.0030
   154 O8     4py        0.0000   -0.0013    0.0000    0.0001   -0.0002    0.0000   -0.0000    0.0000    0.0000   -0.0001
   155 O8     2pz       -0.0000    0.0001   -0.0000    0.0002   -0.0001    0.0000    0.0000    0.0000    0.0000    0.0014
   156 O8     3pz       -0.0000   -0.0001    0.0000    0.0002    0.0001    0.0001   -0.0000    0.0001    0.0000   -0.0010
   157 O8     4pz       -0.0000    0.0002    0.0000   -0.0000    0.0001    0.0000   -0.0000    0.0000    0.0000   -0.0002
   158 O8     3d2-       0.0000    0.0000   -0.0000    0.0001   -0.0001    0.0000    0.0000    0.0000    0.0000   -0.0001
   159 O8     3d1-       0.0000   -0.0000   -0.0000   -0.0001   -0.0000   -0.0000   -0.0000    0.0000   -0.0000   -0.0001
   160 O8     3d0       -0.0000   -0.0000   -0.0000   -0.0000   -0.0002   -0.0000   -0.0000    0.0000    0.0000   -0.0001
   161 O8     3d1+      -0.0000   -0.0001   -0.0000   -0.0000    0.0001   -0.0000   -0.0000    0.0000   -0.0000    0.0001
   162 O8     3d2+      -0.0000    0.0000   -0.0000   -0.0000   -0.0003   -0.0000   -0.0000   -0.0000   -0.0000   -0.0004
   163 H9     1s         0.0005   -0.0001   -0.0001   -0.0001   -0.0000    0.0001   -0.0000    0.0003    0.0004    0.0121
   164 H9     2s         0.0003   -0.0001   -0.0001   -0.0001   -0.0000    0.0001   -0.0000    0.0002   -0.0002    0.0035
   165 H9     2px       -0.0000   -0.0000   -0.0001    0.0000    0.0000    0.0000   -0.0000    0.0000    0.0001    0.0013
   166 H9     2py        0.0000    0.0000   -0.0000    0.0000    0.0000   -0.0000    0.0000   -0.0000    0.0000   -0.0003
   167 H9     2pz       -0.0000    0.0000    0.0000    0.0000    0.0000   -0.0001    0.0000   -0.0000    0.0001   -0.0012
   168 H10    1s         0.0002   -0.0001   -0.0003   -0.0001   -0.0002   -0.0001   -0.0001    0.0001    0.0004    0.0045
   169 H10    2s         0.0002   -0.0000   -0.0001   -0.0001   -0.0000   -0.0001   -0.0000    0.0001   -0.0002   -0.0051
   170 H10    2px       -0.0000   -0.0000   -0.0000   -0.0000   -0.0000    0.0001   -0.0000    0.0000   -0.0000    0.0004
   171 H10    2py       -0.0000    0.0000    0.0000    0.0000    0.0000    0.0000    0.0000   -0.0000    0.0000    0.0001
   172 H10    2pz        0.0000    0.0000   -0.0000   -0.0000   -0.0000    0.0000    0.0000   -0.0000   -0.0000   -0.0002
   173 H11    1s         0.0001   -0.0001    0.0000   -0.0001   -0.0000    0.0001   -0.0001    0.0002    0.0003    0.0148
   174 H11    2s         0.0001   -0.0001    0.0000   -0.0000   -0.0000    0.0000   -0.0000    0.0002   -0.0002    0.0042
   175 H11    2px       -0.0000   -0.0000   -0.0001   -0.0000    0.0000    0.0001    0.0000   -0.0000    0.0000    0.0017
   176 H11    2py        0.0000   -0.0000    0.0000   -0.0000   -0.0000    0.0000   -0.0000    0.0000   -0.0001    0.0008
   177 H11    2pz       -0.0000   -0.0000    0.0000   -0.0000   -0.0000    0.0000   -0.0000    0.0000   -0.0001    0.0005
   178 H12    1s        -0.0012   -0.0001   -0.0009    0.0002   -0.0003    0.0004   -0.0001    0.0003   -0.0001    0.0351
   179 H12    2s        -0.0007   -0.0001   -0.0006    0.0001   -0.0000    0.0002   -0.0001    0.0001   -0.0000    0.0019
   180 H12    2px        0.0000    0.0000    0.0001   -0.0000    0.0000   -0.0001    0.0000   -0.0001   -0.0000   -0.0027
   181 H12    2py       -0.0001   -0.0000   -0.0004    0.0000   -0.0000    0.0001   -0.0000    0.0000   -0.0000    0.0039
   182 H12    2pz        0.0001    0.0000    0.0003   -0.0000    0.0000   -0.0000    0.0000    0.0000    0.0000   -0.0018
   183 H13    1s         0.0003    0.0007    0.0001    0.0002   -0.0001   -0.0006   -0.0005    0.0001   -0.0002    0.0097
   184 H13    2s         0.0001    0.0004    0.0001    0.0001    0.0000   -0.0004   -0.0003    0.0003   -0.0001    0.0016
   185 H13    2px       -0.0000    0.0000   -0.0001   -0.0000    0.0000   -0.0000    0.0000   -0.0001   -0.0000   -0.0001
   186 H13    2py        0.0000    0.0001    0.0000   -0.0000    0.0000   -0.0000   -0.0000    0.0001   -0.0000    0.0001
   187 H13    2pz       -0.0000   -0.0001   -0.0000   -0.0000   -0.0000    0.0000    0.0000   -0.0001    0.0000   -0.0005
   188 H14    1s         0.0003    0.0005   -0.0004    0.0002   -0.0006   -0.0006   -0.0003   -0.0001   -0.0003    0.0107
   189 H14    2s         0.0002    0.0003   -0.0002    0.0001   -0.0001   -0.0004   -0.0002    0.0004   -0.0002    0.0012
   190 H14    2px       -0.0000    0.0000    0.0000    0.0001   -0.0000    0.0000    0.0000    0.0000    0.0000   -0.0002
   191 H14    2py        0.0000   -0.0000    0.0000   -0.0000   -0.0000   -0.0000   -0.0000    0.0001    0.0000   -0.0001
   192 H14    2pz        0.0000    0.0000   -0.0000    0.0000   -0.0002   -0.0000   -0.0000    0.0002    0.0000    0.0003
   193 H15    1s        -0.0000   -0.0011    0.0002   -0.0008    0.0004   -0.0002   -0.0002    0.0004    0.0000    0.0035
   194 H15    2s        -0.0000   -0.0006    0.0001   -0.0005    0.0001   -0.0002   -0.0000    0.0002    0.0000    0.0017
   195 H15    2px       -0.0000   -0.0000   -0.0000   -0.0001   -0.0001   -0.0000    0.0000    0.0000    0.0000    0.0002
   196 H15    2py       -0.0000   -0.0001    0.0000   -0.0005    0.0001   -0.0000   -0.0000    0.0000   -0.0000    0.0007
   197 H15    2pz        0.0000   -0.0001    0.0000   -0.0000    0.0001   -0.0000   -0.0000   -0.0000   -0.0000    0.0002
   198 H16    1s         0.0000    0.0002    0.0001   -0.0003   -0.0003   -0.0001    0.0006   -0.0002   -0.0000    0.0021
   199 H16    2s        -0.0000    0.0001    0.0000   -0.0001   -0.0003   -0.0001   -0.0001   -0.0001   -0.0000    0.0017
   200 H16    2px        0.0000   -0.0000   -0.0000    0.0000    0.0000    0.0000   -0.0000    0.0000    0.0000   -0.0001
   201 H16    2py       -0.0000    0.0000    0.0000    0.0000   -0.0000   -0.0000   -0.0000   -0.0000   -0.0000    0.0001
   202 H16    2pz        0.0000   -0.0000   -0.0000   -0.0000    0.0000    0.0000    0.0000    0.0000    0.0000   -0.0001
   203 H17    1s        -0.0001    0.0004   -0.0000   -0.0006   -0.0005   -0.0001    0.0006   -0.0002   -0.0000    0.0030
   204 H17    2s        -0.0001    0.0003   -0.0000   -0.0002   -0.0003   -0.0001   -0.0001   -0.0001   -0.0000    0.0020
   205 H17    2px        0.0000   -0.0000    0.0000    0.0000    0.0000   -0.0000   -0.0000    0.0000    0.0000   -0.0001
   206 H17    2py       -0.0000   -0.0000   -0.0000   -0.0000   -0.0000    0.0000   -0.0000   -0.0000   -0.0000    0.0001
   207 H17    2pz       -0.0000    0.0000   -0.0000   -0.0000   -0.0001   -0.0000    0.0000   -0.0000   -0.0000    0.0002
   208 H18    1s        -0.0000   -0.0003    0.0000   -0.0002   -0.0001   -0.0001    0.0010   -0.0001   -0.0000    0.0025
   209 H18    2s        -0.0000   -0.0002    0.0000   -0.0000   -0.0000   -0.0000    0.0001   -0.0001   -0.0000    0.0015
   210 H18    2px       -0.0000    0.0000   -0.0000    0.0000   -0.0000   -0.0000   -0.0000   -0.0000    0.0000    0.0001
   211 H18    2py        0.0000    0.0000    0.0000   -0.0000    0.0000    0.0000   -0.0001    0.0000    0.0000   -0.0004
   212 H18    2pz        0.0000   -0.0000    0.0000   -0.0000    0.0000   -0.0000   -0.0000    0.0000   -0.0000   -0.0001
 
 
      Orbital                11        12        13        14        15        16        17        18        19        20
      Energy            -1.3878   -1.2437   -1.2226   -1.0144   -0.9629   -0.9060   -0.7934   -0.7852   -0.6961   -0.6538
      Occ. No.           2.0000    2.0000    2.0000    2.0000    2.0000    2.0000    2.0000    2.0000    2.0000    2.0000
 
     1 C1     1s         0.0029   -0.0012   -0.0105   -0.0149    0.0013    0.0103    0.0060    0.0121   -0.0061    0.0001
     2 C1     2s         0.0046    0.0604    0.1686    0.2668    0.0182   -0.1465   -0.1966   -0.3249    0.1747    0.0528
     3 C1     3s         0.0112    0.0104   -0.0013   -0.0183    0.0117    0.0142   -0.0009    0.0077   -0.0140    0.0049
     4 C1     4s         0.0029    0.0032   -0.0002   -0.0056    0.0024    0.0053    0.0005    0.0027   -0.0040   -0.0006
     5 C1     2px        0.0055    0.0560    0.1169   -0.0650    0.1183   -0.1275   -0.0265   -0.0370   -0.2819   -0.0595
     6 C1     3px        0.0099    0.0189   -0.0331   -0.0462   -0.0195    0.0751    0.0030   -0.0079    0.0714    0.0163
     7 C1     4px        0.0024    0.0124    0.0189   -0.0180    0.0121   -0.0053   -0.0022   -0.0054   -0.0122   -0.0002
     8 C1     2py       -0.0044   -0.0236   -0.0914   -0.1179   -0.0021    0.0458   -0.0105   -0.0453    0.1397   -0.0740
     9 C1     3py        0.0022    0.0230    0.0429    0.0264   -0.0201    0.0155    0.0203    0.0177   -0.0511    0.0138
    10 C1     4py       -0.0011   -0.0026   -0.0142   -0.0159   -0.0007    0.0066    0.0005   -0.0069    0.0127   -0.0035
    11 C1     2pz       -0.0003   -0.0056   -0.0002    0.0941   -0.0453    0.0207    0.0238    0.0496    0.0511    0.0686
    12 C1     3pz       -0.0039   -0.0109   -0.0055   -0.0032    0.0125   -0.0269   -0.0056   -0.0090   -0.0047   -0.0176
    13 C1     4pz       -0.0002   -0.0025   -0.0008    0.0136   -0.0053   -0.0013    0.0021    0.0058   -0.0012    0.0020
    14 C1     3d2-       0.0011   -0.0027   -0.0105    0.0044   -0.0131    0.0161   -0.0008   -0.0021   -0.0005    0.0035
    15 C1     3d1-       0.0009    0.0025    0.0074   -0.0067    0.0049   -0.0036    0.0026    0.0050   -0.0188   -0.0015
    16 C1     3d0        0.0005   -0.0025   -0.0084   -0.0038   -0.0050    0.0093    0.0028    0.0044   -0.0006    0.0021
    17 C1     3d1+      -0.0009   -0.0031   -0.0086   -0.0101    0.0037    0.0003    0.0068    0.0116    0.0118   -0.0018
    18 C1     3d2+       0.0016    0.0078    0.0219    0.0057    0.0039   -0.0088   -0.0041   -0.0055   -0.0282    0.0003
    19 C3     1s        -0.0072   -0.0182   -0.0252    0.0265    0.0144   -0.0325    0.0006    0.0097   -0.0006    0.0000
    20 C3     2s         0.0111    0.0555    0.1553   -0.2258   -0.1381    0.3644   -0.0511   -0.1655   -0.0368   -0.1106
    21 C3     3s        -0.0131   -0.0340   -0.0330    0.0335    0.0145   -0.0324   -0.0049    0.0110   -0.0020   -0.0104
    22 C3     4s        -0.0007   -0.0045   -0.0067    0.0090    0.0029   -0.0072   -0.0008    0.0035    0.0005   -0.0000
    23 C3     2px       -0.0152   -0.0187   -0.0529   -0.0417    0.0292    0.0030    0.0245    0.0183    0.0865   -0.0211
    24 C3     3px        0.0070    0.0046   -0.0176   -0.0800    0.0292   -0.0071   -0.0088   -0.0248   -0.0161   -0.0076
    25 C3     4px        0.0082    0.0069   -0.0089   -0.0192   -0.0044    0.0068    0.0014   -0.0010    0.0018    0.0055
    26 C3     2py        0.0107   -0.0091   -0.0478    0.0493    0.0800   -0.0736   -0.0309   -0.0159   -0.0578    0.0231
    27 C3     3py        0.0111    0.0232   -0.0052   -0.0189    0.0489    0.0272   -0.0212   -0.0095    0.0018    0.0080
    28 C3     4py        0.0004   -0.0017   -0.0130    0.0049    0.0091   -0.0047   -0.0103   -0.0014   -0.0033    0.0011
    29 C3     2pz        0.0024   -0.0011    0.0048    0.0457   -0.0021   -0.0308    0.0270    0.0735    0.0838   -0.0098
    30 C3     3pz       -0.0040   -0.0013    0.0189    0.0282   -0.0177    0.0159    0.0083   -0.0031   -0.0057    0.0056
    31 C3     4pz       -0.0042   -0.0043    0.0071    0.0080    0.0035   -0.0009    0.0028    0.0058    0.0054   -0.0056
    32 C3     3d2-       0.0079    0.0075    0.0150   -0.0083   -0.0027    0.0045   -0.0032    0.0007   -0.0064    0.0036
    33 C3     3d1-      -0.0030   -0.0024   -0.0051    0.0033    0.0014   -0.0025   -0.0026   -0.0073   -0.0086   -0.0011
    34 C3     3d0       -0.0029   -0.0031   -0.0037    0.0029    0.0011   -0.0001    0.0008   -0.0014    0.0014    0.0009
    35 C3     3d1+      -0.0020   -0.0060   -0.0116    0.0085    0.0042   -0.0062    0.0038    0.0048    0.0088   -0.0027
    36 C3     3d2+      -0.0010    0.0048    0.0052   -0.0038   -0.0027   -0.0006   -0.0086   -0.0082   -0.0118   -0.0045
    37 C4     1s        -0.0415   -0.0069    0.0036    0.0104    0.0102    0.0038    0.0136   -0.0042    0.0013   -0.0049
    38 C4     2s         0.3449    0.1196   -0.0130   -0.0275   -0.1767   -0.0282   -0.3053    0.1602   -0.0221    0.1933
    39 C4     3s        -0.0183    0.0025    0.0085    0.0343    0.0061    0.0138    0.0180   -0.0009    0.0043   -0.0070
    40 C4     4s         0.0029    0.0026    0.0028    0.0085    0.0017    0.0046    0.0038   -0.0001    0.0010   -0.0009
    41 C4     2px        0.0246    0.1055   -0.0814    0.0209    0.0164   -0.0588   -0.1553    0.1120    0.0326   -0.0559
    42 C4     3px        0.0055    0.0052   -0.0309    0.0187    0.0985    0.0547    0.0158   -0.0367   -0.0060    0.0487
    43 C4     4px       -0.0016    0.0221   -0.0192    0.0112    0.0132   -0.0020   -0.0101    0.0056    0.0010    0.0033
    44 C4     2py        0.1383   -0.1286    0.0263    0.0395    0.1021    0.0348    0.0631   -0.0306   -0.0088    0.0482
    45 C4     3py       -0.0637    0.0620   -0.0157   -0.0098   -0.0171    0.0074   -0.0175    0.0053    0.0023   -0.0126
    46 C4     4py        0.0276   -0.0259    0.0009    0.0065    0.0127    0.0021    0.0041    0.0016    0.0003    0.0071
    47 C4     2pz       -0.0508   -0.0294    0.0374   -0.0050    0.0126    0.0275    0.0675   -0.0237    0.0177   -0.1596
    48 C4     3pz        0.0164   -0.0005    0.0074   -0.0059   -0.0420   -0.0199   -0.0164    0.0130   -0.0068    0.0191
    49 C4     4pz       -0.0048   -0.0057    0.0070   -0.0051   -0.0052    0.0015    0.0023   -0.0025   -0.0006   -0.0053
    50 C4     3d2-      -0.0173   -0.0181    0.0085   -0.0019    0.0103    0.0180    0.0083   -0.0104    0.0006   -0.0056
    51 C4     3d1-      -0.0089    0.0134   -0.0045   -0.0014   -0.0067   -0.0075   -0.0043    0.0028   -0.0019   -0.0023
    52 C4     3d0       -0.0252   -0.0029   -0.0003    0.0040    0.0078    0.0005    0.0076   -0.0024    0.0010    0.0034
    53 C4     3d1+       0.0000   -0.0104    0.0046    0.0012    0.0057    0.0014    0.0120   -0.0071   -0.0016    0.0007
    54 C4     3d2+      -0.0402    0.0119   -0.0040    0.0015    0.0054    0.0034   -0.0103    0.0039   -0.0011   -0.0249
    55 C6     1s        -0.0097   -0.0319    0.0135   -0.0126   -0.0498   -0.0298    0.0046    0.0020    0.0005   -0.0065
    56 C6     2s         0.0126    0.1306   -0.0667    0.1205    0.3745    0.2533   -0.0782    0.0065   -0.0057    0.0493
    57 C6     3s        -0.0169   -0.0546    0.0266   -0.0144   -0.0924   -0.0475    0.0077    0.0057    0.0009   -0.0206
    58 C6     4s        -0.0007   -0.0077    0.0061   -0.0024   -0.0205   -0.0087    0.0024    0.0009    0.0001   -0.0056
    59 C6     2px       -0.0184   -0.0892    0.0324   -0.0176    0.0053    0.0426   -0.0317   -0.0167   -0.0102    0.2650
    60 C6     3px        0.0019    0.0122   -0.0159    0.0067    0.0269   -0.0046   -0.0002    0.0051    0.0016   -0.0385
    61 C6     4px       -0.0044   -0.0021   -0.0014    0.0050    0.0204    0.0125   -0.0040   -0.0005   -0.0006    0.0088
    62 C6     2py        0.0022   -0.0294    0.0104   -0.0116   -0.0131    0.0089   -0.1404    0.0688    0.0043    0.0260
    63 C6     3py        0.0041    0.0044   -0.0012   -0.0034   -0.0028   -0.0059    0.0071   -0.0037   -0.0016   -0.0110
    64 C6     4py       -0.0007   -0.0016    0.0024    0.0005    0.0036    0.0045   -0.0094    0.0051    0.0003   -0.0005
    65 C6     2pz        0.0100    0.0304   -0.0161    0.0079   -0.0020   -0.0131   -0.0114    0.0199    0.0181   -0.2328
    66 C6     3pz        0.0020   -0.0036    0.0049   -0.0019   -0.0088    0.0022   -0.0026   -0.0003   -0.0011    0.0361
    67 C6     4pz        0.0012    0.0003    0.0013   -0.0017   -0.0069   -0.0041    0.0009    0.0013    0.0014   -0.0098
    68 C6     3d2-       0.0016    0.0122   -0.0050    0.0027    0.0036   -0.0025    0.0149   -0.0058    0.0003   -0.0148
    69 C6     3d1-      -0.0004   -0.0038    0.0014   -0.0006   -0.0006    0.0008   -0.0068    0.0029   -0.0006    0.0101
    70 C6     3d0       -0.0023   -0.0078    0.0045   -0.0025   -0.0026    0.0018   -0.0005   -0.0014   -0.0010    0.0180
    71 C6     3d1+      -0.0022   -0.0096    0.0034   -0.0015   -0.0026    0.0018    0.0014   -0.0034   -0.0012    0.0217
    72 C6     3d2+       0.0028    0.0130   -0.0056    0.0021   -0.0001   -0.0047    0.0015    0.0020    0.0005   -0.0167
    73 C19    1s         0.0002   -0.0032   -0.0129   -0.0615    0.0318   -0.0261   -0.0049   -0.0074    0.0051    0.0032
    74 C19    2s         0.0029    0.0066    0.0061    0.3407   -0.2171    0.1975    0.0316    0.0422   -0.0665   -0.0128
    75 C19    3s         0.0030   -0.0035   -0.0339   -0.1227    0.0599   -0.0447   -0.0120   -0.0202    0.0062    0.0089
    76 C19    4s         0.0014    0.0015   -0.0044   -0.0272    0.0143   -0.0101   -0.0034   -0.0059    0.0020    0.0020
    77 C19    2px        0.0052    0.0064    0.0191    0.0388    0.0038   -0.0470   -0.0261   -0.0230    0.0379    0.1041
    78 C19    3px        0.0019   -0.0028   -0.0028   -0.0203    0.0140   -0.0099    0.0052    0.0151   -0.0036   -0.0083
    79 C19    4px       -0.0003    0.0000    0.0019   -0.0120    0.0113   -0.0126   -0.0021   -0.0019    0.0050    0.0020
    80 C19    2py        0.0021    0.0044   -0.0027    0.0242   -0.0133    0.0016   -0.0347   -0.0576    0.1762    0.0803
    81 C19    3py        0.0021    0.0052   -0.0017   -0.0210    0.0068    0.0075    0.0003    0.0009   -0.0231   -0.0104
    82 C19    4py        0.0005    0.0010    0.0009   -0.0090    0.0063   -0.0054   -0.0048   -0.0079    0.0035    0.0015
    83 C19    2pz       -0.0033   -0.0118   -0.0167   -0.0223    0.0118    0.0001    0.0262    0.0519   -0.0939   -0.0406
    84 C19    3pz       -0.0020   -0.0060    0.0011    0.0157   -0.0023   -0.0042   -0.0050   -0.0047    0.0136    0.0046
    85 C19    4pz       -0.0001   -0.0007   -0.0006    0.0100   -0.0078    0.0080    0.0029    0.0053   -0.0030   -0.0007
    86 C19    3d2-       0.0002    0.0008    0.0029    0.0086   -0.0018   -0.0029   -0.0040   -0.0054    0.0076    0.0082
    87 C19    3d1-      -0.0000    0.0001    0.0004   -0.0073    0.0034   -0.0010    0.0027    0.0044   -0.0150   -0.0067
    88 C19    3d0        0.0001    0.0000   -0.0003   -0.0013    0.0009   -0.0013   -0.0006   -0.0002   -0.0022    0.0019
    89 C19    3d1+      -0.0002   -0.0013   -0.0043   -0.0084    0.0018    0.0020    0.0028    0.0043   -0.0061   -0.0058
    90 C19    3d2+      -0.0001    0.0012    0.0041    0.0020    0.0014   -0.0025    0.0000    0.0001   -0.0009    0.0008
    91 N2     1s        -0.0028   -0.0162   -0.0404   -0.0009   -0.0009    0.0005   -0.0032   -0.0049   -0.0041   -0.0007
    92 N2     2s         0.0219    0.1838    0.5398   -0.0825    0.1499   -0.1352    0.0433    0.1074   -0.0984   -0.0133
    93 N2     3s        -0.0072   -0.0358   -0.0795   -0.0054    0.0121   -0.0119   -0.0081   -0.0074   -0.0159   -0.0033
    94 N2     4s        -0.0017   -0.0104   -0.0246    0.0006    0.0012   -0.0015   -0.0025   -0.0020   -0.0011   -0.0004
    95 N2     2px        0.0236    0.0004   -0.0618   -0.1582   -0.0833    0.2274    0.0610    0.1094    0.2246    0.0218
    96 N2     3px        0.0074   -0.0005   -0.0062    0.0203    0.0609   -0.0803   -0.0394   -0.0358   -0.0317    0.0217
    97 N2     4px        0.0031    0.0017    0.0012   -0.0083    0.0054   -0.0033   -0.0006    0.0033   -0.0004    0.0034
    98 N2     2py        0.0047   -0.0044   -0.0268   -0.0162   -0.0316    0.0032   -0.1635   -0.2857   -0.2693   -0.0658
    99 N2     3py       -0.0050   -0.0123   -0.0201    0.0026    0.0058   -0.0181    0.0310    0.0527    0.0541    0.0118
   100 N2     4py        0.0005   -0.0032   -0.0083    0.0011   -0.0023   -0.0028   -0.0037   -0.0055   -0.0022    0.0007
   101 N2     2pz       -0.0137   -0.0062    0.0273    0.0815    0.0611   -0.1230    0.0779    0.1597    0.1214    0.0341
   102 N2     3pz       -0.0011   -0.0043   -0.0037   -0.0147   -0.0228    0.0239   -0.0113   -0.0252   -0.0295   -0.0133
   103 N2     4pz       -0.0005    0.0019    0.0058   -0.0011   -0.0020    0.0039    0.0014    0.0005   -0.0006   -0.0010
   104 N2     3d2-       0.0005   -0.0013   -0.0044   -0.0050   -0.0088    0.0164    0.0009   -0.0003    0.0017   -0.0008
   105 N2     3d1-      -0.0002   -0.0015   -0.0061    0.0045   -0.0004   -0.0036   -0.0063   -0.0105   -0.0086   -0.0012
   106 N2     3d0       -0.0002   -0.0030   -0.0096    0.0012   -0.0023    0.0026    0.0028    0.0047    0.0050    0.0023
   107 N2     3d1+      -0.0003   -0.0033   -0.0085   -0.0009    0.0012   -0.0019    0.0034    0.0072    0.0093    0.0000
   108 N2     3d2+      -0.0000    0.0041    0.0100    0.0034    0.0002   -0.0020   -0.0062   -0.0115   -0.0115   -0.0013
   109 N5     1s        -0.0183   -0.0395    0.0146   -0.0005    0.0017    0.0024   -0.0039    0.0013   -0.0005   -0.0036
   110 N5     2s         0.1160    0.5469   -0.2309    0.0285   -0.1062   -0.1960    0.1390   -0.0198    0.0044   -0.1529
   111 N5     3s        -0.0454   -0.0696    0.0253    0.0002   -0.0120   -0.0124   -0.0042    0.0045   -0.0019   -0.0170
   112 N5     4s        -0.0109   -0.0239    0.0094   -0.0004   -0.0031   -0.0011   -0.0023    0.0012   -0.0007   -0.0008
   113 N5     2px        0.0034   -0.0237    0.0069    0.0495    0.2204    0.0981    0.1263   -0.0545    0.0142   -0.3676
   114 N5     3px        0.0258   -0.0077    0.0094   -0.0408   -0.0669   -0.0480   -0.0192    0.0099   -0.0052    0.0534
   115 N5     4px       -0.0071   -0.0018   -0.0003   -0.0007    0.0018   -0.0046   -0.0004    0.0004   -0.0012    0.0074
   116 N5     2py        0.0421    0.0214    0.0007   -0.0043   -0.0001    0.0140   -0.3751    0.2285    0.0181   -0.1915
   117 N5     3py       -0.0039   -0.0257    0.0258   -0.0190   -0.0347   -0.0149    0.0962   -0.0466   -0.0016    0.0314
[...]
ATVX     1  Mu1.0002  Se1.064                       0.24375908      0.00398615     -0.00708512     -0.00002824
ATVX     1  Mu1.0001  Se1.065                       0.20465269     -0.00070268      0.00148177     -0.00000104
ATVX     1  Mu1.0002  Se1.065                       0.22798894     -0.00149825      0.00236740     -0.00000355
ATVX     1  Mu1.0001  Se1.066                       0.22499686     -0.00004459     -0.00009912      0.00000000
ATVX     1  Mu1.0002  Se1.066                       0.24833311      0.00138395     -0.00239989     -0.00000332
ATVX     1  Mu1.0001  Se1.067                       0.24133081      0.00044190     -0.00108952     -0.00000048
ATVX     1  Mu1.0002  Se1.067                       0.26466706      0.00109140     -0.00172830     -0.00000189
ATVX     1  Mu1.0001  Se1.068                       0.25764995      0.00450943     -0.00723950     -0.00003265
ATVX     1  Mu1.0002  Se1.068                       0.28098620     -0.00101870      0.00170573     -0.00000174
ATVX     1  Mu1.0001  Se1.069                       0.28328054     -0.00611374      0.00975971     -0.00005967
ATVX     1  Mu1.0001  Se1.070                       0.28526658      0.00951175     -0.01483572     -0.00014111
AIVX     1  Mu1.0001  In1.024 Se1.038               0.28781159      0.00000583      0.00005745      0.00000000
AIVX     1  Mu1.0001  In1.025 Se1.038               0.29237175     -0.00019222      0.00045744     -0.00000009
AIVX     1  Mu1.0001  In1.027 Se1.038               0.28514223     -0.00015441      0.00003999     -0.00000001
AIVX     1  Mu1.0001  In1.028 Se1.038               0.25499251     -0.00077790      0.00088070     -0.00000069
AIVX     1  Mu1.0001  In1.029 Se1.038               0.16367414      0.00001855     -0.00016248     -0.00000000
AIVX     1  Mu1.0001  In1.028 Se1.039               0.27106834     -0.00010596     -0.00029053      0.00000003
AIVX     1  Mu1.0001  In1.029 Se1.039               0.17974997     -0.00000366      0.00002190     -0.00000000
AIVX     1  Mu1.0001  In1.028 Se1.040               0.28236195      0.00015347     -0.00037144     -0.00000006
AIVX     1  Mu1.0001  In1.029 Se1.040               0.19104358      0.00005597     -0.00008310     -0.00000000
AIVX     1  Mu1.0001  In1.028 Se1.041               0.29286856     -0.00032650      0.00060682     -0.00000020
AIVX     1  Mu1.0001  In1.029 Se1.041               0.20155019      0.00014047     -0.00032744     -0.00000005
AIVX     1  Mu1.0001  In1.029 Se1.042               0.22189204     -0.00010639      0.00026957     -0.00000003
AIVX     1  Mu1.0001  In1.029 Se1.043               0.22637053      0.00013525     -0.00035768     -0.00000005
AIVX     1  Mu1.0001  In1.029 Se1.044               0.22236185     -0.00003533     -0.00004714      0.00000000
AIVX     1  Mu1.0001  In1.029 Se1.045               0.24290296      0.00005848     -0.00016629     -0.00000001
AIVX     1  Mu1.0001  In1.029 Se1.046               0.26464908      0.00049450     -0.00103732     -0.00000051
AIVX     1  Mu1.0001  In1.029 Se1.047               0.26594129      0.00004275     -0.00021407     -0.00000001
AIVX     1  Mu1.0001  In1.029 Se1.048               0.27370447     -0.00026892      0.00088308     -0.00000024
AIVX     1  Mu1.0001  In1.029 Se1.049               0.29595490      0.00018681     -0.00011887     -0.00000002
BVATP    1  Mu1.0001  Se1.038 Se1.038               0.27618705     -0.00121097      0.00158811     -0.00000192
BVATP    1  Mu1.0001  Se1.039 Se1.038               0.29226288     -0.00081650      0.00096380     -0.00000079
--
 
   (Skipping property calculation,
    use PROP keyword to activate)
--
 
  Total CASPT2 energies:
::    CASPT2 Root  1     Total energy:   -455.19547381
::    CASPT2 Root  2     Total energy:   -455.00419695
::    CASPT2 Root  3     Total energy:   -455.02040693
::    CASPT2 Root  4     Total energy:   -454.97833264
::    CASPT2 Root  5     Total energy:   -454.99486853
::    CASPT2 Root  6     Total energy:   -454.90457341
::    CASPT2 Root  7     Total energy:   -454.89795887
 
++ Multi-State CASPT2 section:
********************************************************************************
  MULTI-STATE CASPT2 SECTION
--------------------------------------------------------------------------------
 
  Output diagonal energies have been shifted. Add   -455.000000000000     
 
  Effective Hamiltonian matrix (Symmetric):
 
                1               2               3               4               5
   1        -0.19547381
   2         0.00380241     -0.00419695
   3         0.00935810     -0.01134410     -0.02040693
   4         0.00349822     -0.00706388      0.00352794      0.02166736
   5        -0.00604231      0.00555697      0.01784428      0.00453661      0.00513147
   6        -0.00166556      0.00087953      0.00528433     -0.00388340      0.01469746
   7        -0.00290362      0.00577020      0.00203352      0.01431894      0.00472834
 
                6               7
   6         0.09542659
   7         0.00242569      0.10204113
 
       Total MS-CASPT2 energies:
::    MS-CASPT2 Root  1     Total energy:   -455.19643061
::    MS-CASPT2 Root  2     Total energy:   -455.03404433
::    MS-CASPT2 Root  3     Total energy:   -455.00208704
::    MS-CASPT2 Root  4     Total energy:   -454.99092835
::    MS-CASPT2 Root  5     Total energy:   -454.97586052
::    MS-CASPT2 Root  6     Total energy:   -454.90257257
::    MS-CASPT2 Root  7     Total energy:   -454.89388772
 
       Eigenvectors:
            0.99713933      0.07303827      0.00327475     -0.00877481      0.01362014
           -0.02516159      0.38929337      0.84868350      0.20554104     -0.28897482
           -0.05815555      0.81448420     -0.37617652      0.35077299      0.25289289
           -0.01723270      0.03271507      0.34883794     -0.32724390      0.85951798
            0.03552464     -0.42213421      0.08849316      0.83369138      0.29573810
            0.00471112      0.01425622      0.01562788     -0.18011175     -0.02357261
            0.01080879     -0.01614816     -0.09194365     -0.00800359     -0.15989179
 
           -0.00425802     -0.00933890
           -0.00279923      0.04233762
            0.05312402      0.04365750
           -0.10033736      0.14497427
            0.13551117      0.10883037
            0.92497021      0.33311340
           -0.33637943      0.92324873
 
--
 
  THE ORIGINAL CI ARRAYS ARE NOW MIXED AS LINEAR
  COMBINATIONS, GIVEN BY THE EIGENVECTORS.
  A NEW JOBIPH FILE NAMED 'JOBMIX' IS PREPARED.
********************************************************************************
 
++ Mixed CI coefficients:
  The CI coefficients for the MIXED state nr.   1
--------------------------------------------------------------------------------
 CI COEFFICIENTS LARGER THAN  0.50D-01
  Occupation of active orbitals, and spin coupling
  of open shells. (u,d: Spin up or down).
  SGUGA info is (Midvert:IsyUp:UpperWalk/LowerWalk)
        Conf  SGUGA info        Occupation    Coefficient         Weight
           1  ( 1:1:   1/   1)   22222200        0.931635       0.867944
           2  ( 1:1:   2/   1)   22222ud0        0.119670       0.014321
           3  ( 1:1:   3/   1)   2222u2d0        0.181775       0.033042
           6  ( 1:1:   6/   1)   22220220       -0.087612       0.007676
           7  ( 1:1:   7/   1)   22222u0d        0.135572       0.018380
          15  ( 1:1:  15/   1)   22222002       -0.104119       0.010841
          16  ( 1:1:  16/   1)   2222ud02        0.056275       0.003167
          44  ( 2:1:   4/   2)   22u2220d        0.078070       0.006095
          63  ( 2:1:   3/   3)   2u22d220        0.083629       0.006994
         171  ( 3:1:   1/   8)   20222220       -0.063907       0.004084
 
  The CI coefficients for the MIXED state nr.   2
--------------------------------------------------------------------------------
 CI COEFFICIENTS LARGER THAN  0.50D-01
  Occupation of active orbitals, and spin coupling
  of open shells. (u,d: Spin up or down).
  SGUGA info is (Midvert:IsyUp:UpperWalk/LowerWalk)
        Conf  SGUGA info        Occupation    Coefficient         Weight
           1  ( 1:1:   1/   1)   22222200       -0.099296       0.009860
           2  ( 1:1:   2/   1)   22222ud0       -0.154233       0.023788
           7  ( 1:1:   7/   1)   22222u0d        0.865195       0.748563
           8  ( 1:1:   8/   1)   2222u20d        0.161419       0.026056
           9  ( 1:1:   9/   1)   222220ud        0.095431       0.009107
          10  ( 1:1:  10/   1)   2222udud        0.059966       0.003596
          12  ( 1:1:  12/   1)   2222uudd       -0.154666       0.023921
          14  ( 1:1:  14/   1)   22220u2d        0.079997       0.006399
          24  ( 2:1:   4/   1)   222u220d       -0.224935       0.050596
          44  ( 2:1:   4/   2)   22u2220d       -0.123635       0.015286
          54  ( 2:1:  14/   2)   22u2d202       -0.053026       0.002812
          64  ( 2:1:   4/   3)   2u22220d        0.147866       0.021864
          66  ( 2:1:   6/   3)   2u22d2ud        0.081122       0.006581
          67  ( 2:1:   7/   3)   2u222udd        0.077370       0.005986
          68  ( 2:1:   8/   3)   2u22u2dd        0.076712       0.005885
          70  ( 2:1:  10/   3)   2u22du2d       -0.083229       0.006927
         173  ( 3:1:   3/   8)   20222u2d        0.070111       0.004916
 
  The CI coefficients for the MIXED state nr.   3
--------------------------------------------------------------------------------
 CI COEFFICIENTS LARGER THAN  0.50D-01
  Occupation of active orbitals, and spin coupling
  of open shells. (u,d: Spin up or down).
  SGUGA info is (Midvert:IsyUp:UpperWalk/LowerWalk)
        Conf  SGUGA info        Occupation    Coefficient         Weight
           3  ( 1:1:   3/   1)   2222u2d0        0.111822       0.012504
           7  ( 1:1:   7/   1)   22222u0d       -0.164645       0.027108
          21  ( 2:1:   1/   1)   222u22d0       -0.529618       0.280495
          23  ( 2:1:   3/   1)   222ud220        0.050498       0.002550
          24  ( 2:1:   4/   1)   222u220d       -0.734273       0.539157
          26  ( 2:1:   6/   1)   222ud2ud        0.127466       0.016248
          27  ( 2:1:   7/   1)   222u2udd        0.201006       0.040404
          28  ( 2:1:   8/   1)   222uu2dd        0.087930       0.007732
          33  ( 2:1:  13/   1)   222u2d02        0.059615       0.003554
          34  ( 2:1:  14/   1)   222ud202        0.052874       0.002796
          35  ( 2:1:  15/   1)   222u20d2       -0.074870       0.005605
         105  ( 3:1:   5/   1)   22202202        0.073586       0.005415
         121  ( 3:1:   1/   3)   2u2d2220       -0.119923       0.014382
         207  ( 4:1:   1/   2)   2u2u22dd       -0.063800       0.004070
         261  ( 5:1:   1/   7)   202u222d       -0.057572       0.003315
 
  The CI coefficients for the MIXED state nr.   4
--------------------------------------------------------------------------------
 CI COEFFICIENTS LARGER THAN  0.50D-01
  Occupation of active orbitals, and spin coupling
  of open shells. (u,d: Spin up or down).
  SGUGA info is (Midvert:IsyUp:UpperWalk/LowerWalk)
        Conf  SGUGA info        Occupation    Coefficient         Weight
           1  ( 1:1:   1/   1)   22222200        0.051746       0.002678
           3  ( 1:1:   3/   1)   2222u2d0       -0.086944       0.007559
           7  ( 1:1:   7/   1)   22222u0d       -0.175660       0.030856
           8  ( 1:1:   8/   1)   2222u20d        0.832625       0.693264
          12  ( 1:1:  12/   1)   2222uudd        0.106897       0.011427
          14  ( 1:1:  14/   1)   22220u2d       -0.053969       0.002913
          16  ( 1:1:  16/   1)   2222ud02       -0.092805       0.008613
          21  ( 2:1:   1/   1)   222u22d0       -0.146726       0.021528
          24  ( 2:1:   4/   1)   222u220d        0.094592       0.008948
          44  ( 2:1:   4/   2)   22u2220d        0.063183       0.003992
          54  ( 2:1:  14/   2)   22u2d202       -0.062342       0.003886
          61  ( 2:1:   1/   3)   2u2222d0       -0.061627       0.003798
          64  ( 2:1:   4/   3)   2u22220d        0.330995       0.109558
          65  ( 2:1:   5/   3)   2u222dud        0.087422       0.007643
          66  ( 2:1:   6/   3)   2u22d2ud        0.089784       0.008061
          67  ( 2:1:   7/   3)   2u222udd        0.082664       0.006833
          68  ( 2:1:   8/   3)   2u22u2dd        0.153604       0.023594
          72  ( 2:1:  12/   3)   2u22022d       -0.078869       0.006220
         174  ( 3:1:   4/   8)   2022u22d        0.096643       0.009340
 
  The CI coefficients for the MIXED state nr.   5
--------------------------------------------------------------------------------
 CI COEFFICIENTS LARGER THAN  0.50D-01
  Occupation of active orbitals, and spin coupling
  of open shells. (u,d: Spin up or down).
  SGUGA info is (Midvert:IsyUp:UpperWalk/LowerWalk)
        Conf  SGUGA info        Occupation    Coefficient         Weight
           2  ( 1:1:   2/   1)   22222ud0        0.186096       0.034632
           3  ( 1:1:   3/   1)   2222u2d0        0.080059       0.006409
           7  ( 1:1:   7/   1)   22222u0d       -0.141246       0.019950
           8  ( 1:1:   8/   1)   2222u20d        0.141331       0.019975
          21  ( 2:1:   1/   1)   222u22d0        0.746876       0.557824
          23  ( 2:1:   3/   1)   222ud220       -0.112420       0.012638
          24  ( 2:1:   4/   1)   222u220d       -0.452468       0.204727
          25  ( 2:1:   5/   1)   222u2dud        0.127165       0.016171
          26  ( 2:1:   6/   1)   222ud2ud        0.062866       0.003952
          28  ( 2:1:   8/   1)   222uu2dd        0.193246       0.037344
          33  ( 2:1:  13/   1)   222u2d02        0.074152       0.005498
          35  ( 2:1:  15/   1)   222u20d2        0.078591       0.006176
         102  ( 3:1:   2/   1)   222022ud       -0.074957       0.005619
         115  ( 3:1:   5/   2)   22ud2202        0.059586       0.003550
         121  ( 3:1:   1/   3)   2u2d2220        0.083673       0.007001
         122  ( 3:1:   2/   3)   2u2d22ud        0.105724       0.011177
         201  ( 4:1:   1/   1)   22uu22dd        0.062122       0.003859
         207  ( 4:1:   1/   2)   2u2u22dd       -0.063325       0.004010
         261  ( 5:1:   1/   7)   202u222d       -0.062376       0.003891
 
  The CI coefficients for the MIXED state nr.   6
--------------------------------------------------------------------------------
 CI COEFFICIENTS LARGER THAN  0.50D-01
  Occupation of active orbitals, and spin coupling
  of open shells. (u,d: Spin up or down).
  SGUGA info is (Midvert:IsyUp:UpperWalk/LowerWalk)
        Conf  SGUGA info        Occupation    Coefficient         Weight
           2  ( 1:1:   2/   1)   22222ud0       -0.201020       0.040409
           4  ( 1:1:   4/   1)   22222020        0.058918       0.003471
           5  ( 1:1:   5/   1)   2222ud20        0.086071       0.007408
           8  ( 1:1:   8/   1)   2222u20d        0.240110       0.057653
           9  ( 1:1:   9/   1)   222220ud       -0.306629       0.094021
          10  ( 1:1:  10/   1)   2222udud       -0.348421       0.121397
          12  ( 1:1:  12/   1)   2222uudd       -0.223102       0.049774
          15  ( 1:1:  15/   1)   22222002       -0.182620       0.033350
          16  ( 1:1:  16/   1)   2222ud02       -0.158075       0.024988
          22  ( 2:1:   2/   1)   222u2d20        0.076441       0.005843
          23  ( 2:1:   3/   1)   222ud220       -0.051598       0.002662
          25  ( 2:1:   5/   1)   222u2dud       -0.241833       0.058483
          26  ( 2:1:   6/   1)   222ud2ud        0.173843       0.030221
          27  ( 2:1:   7/   1)   222u2udd       -0.171497       0.029411
          28  ( 2:1:   8/   1)   222uu2dd        0.065711       0.004318
          33  ( 2:1:  13/   1)   222u2d02       -0.120411       0.014499
          34  ( 2:1:  14/   1)   222ud202        0.064398       0.004147
          61  ( 2:1:   1/   3)   2u2222d0        0.082972       0.006884
          62  ( 2:1:   2/   3)   2u222d20       -0.062949       0.003963
          64  ( 2:1:   4/   3)   2u22220d       -0.538915       0.290429
          65  ( 2:1:   5/   3)   2u222dud        0.118347       0.014006
          66  ( 2:1:   6/   3)   2u22d2ud       -0.096582       0.009328
          67  ( 2:1:   7/   3)   2u222udd        0.068575       0.004703
          69  ( 2:1:   9/   3)   2u22202d        0.058225       0.003390
          71  ( 2:1:  11/   3)   2u22ud2d        0.059134       0.003497
          72  ( 2:1:  12/   3)   2u22022d        0.058246       0.003393
          73  ( 2:1:  13/   3)   2u222d02        0.066200       0.004382
          84  ( 2:1:   4/   4)   u222220d        0.109708       0.012036
         102  ( 3:1:   2/   1)   222022ud        0.060537       0.003665
         172  ( 3:1:   2/   8)   202222ud        0.108329       0.011735
         175  ( 3:1:   5/   8)   20222202        0.052850       0.002793
         207  ( 4:1:   1/   2)   2u2u22dd       -0.050290       0.002529
 
  The CI coefficients for the MIXED state nr.   7
--------------------------------------------------------------------------------
 CI COEFFICIENTS LARGER THAN  0.50D-01
  Occupation of active orbitals, and spin coupling
  of open shells. (u,d: Spin up or down).
  SGUGA info is (Midvert:IsyUp:UpperWalk/LowerWalk)
        Conf  SGUGA info        Occupation    Coefficient         Weight
           2  ( 1:1:   2/   1)   22222ud0        0.163904       0.026864
           3  ( 1:1:   3/   1)   2222u2d0       -0.146739       0.021532
           5  ( 1:1:   5/   1)   2222ud20        0.067142       0.004508
           7  ( 1:1:   7/   1)   22222u0d        0.070127       0.004918
           8  ( 1:1:   8/   1)   2222u20d        0.116779       0.013637
          10  ( 1:1:  10/   1)   2222udud       -0.251123       0.063063
          12  ( 1:1:  12/   1)   2222uudd       -0.074034       0.005481
          16  ( 1:1:  16/   1)   2222ud02       -0.119283       0.014228
          22  ( 2:1:   2/   1)   222u2d20       -0.176389       0.031113
          23  ( 2:1:   3/   1)   222ud220        0.067200       0.004516
          25  ( 2:1:   5/   1)   222u2dud        0.581373       0.337994
          26  ( 2:1:   6/   1)   222ud2ud       -0.209965       0.044085
          27  ( 2:1:   7/   1)   222u2udd        0.301578       0.090949
          28  ( 2:1:   8/   1)   222uu2dd       -0.221851       0.049218
          31  ( 2:1:  11/   1)   222uud2d       -0.085546       0.007318
          33  ( 2:1:  13/   1)   222u2d02        0.287547       0.082683
          34  ( 2:1:  14/   1)   222ud202       -0.130961       0.017151
          64  ( 2:1:   4/   3)   2u22220d       -0.287400       0.082599
          65  ( 2:1:   5/   3)   2u222dud        0.068108       0.004639
          66  ( 2:1:   6/   3)   2u22d2ud       -0.054028       0.002919
          67  ( 2:1:   7/   3)   2u222udd        0.052822       0.002790
         102  ( 3:1:   2/   1)   222022ud       -0.140803       0.019826
         105  ( 3:1:   5/   1)   22202202       -0.078505       0.006163
         106  ( 3:1:   6/   1)   22202ud2       -0.055203       0.003047
         172  ( 3:1:   2/   8)   202222ud        0.057466       0.003302
         207  ( 4:1:   1/   2)   2u2u22dd        0.085833       0.007367
         208  ( 4:1:   2/   2)   2u2u2d2d       -0.109868       0.012071
 
--
 
--- Stop Module: caspt2 at Tue Jun 10 18:40:14 2025 /rc=_RC_ALL_IS_WELL_ ---
*** files: xmldump
    saved to directory /home/pcaah4/diamide_project
--- Module caspt2 spent 6 minutes 37 seconds ---

.##################.
.# Happy landing! #.
.##################.

    Timing: Wall=829.22 User=727.94 System=88.88
******************************************************
*** WorkDir at /srv/COMMUNAL_SCRATCH/12406 cleaned ***
******************************************************
