   This run of MOLCAS is using the pymolcas driver

                             OPE
                             OPE          NMOL  CASOP  ENMOLC A   SO
                 OPE        NMOLC        AS  OP EN  MO LC     AS  OP
                OPENM       OL CA        SO  PE NM  OL CA     SOP EN
                OP EN      MO   LC       AS  OP ENMOL  CASO   PENMOL
                OP  EN     MO   LC       AS  OP EN     MO     LC ASO
               OP   E  NMOL  C  AS       OP  EN MO     LC     AS  OP
               OP  E   NMO   LC AS        OPEN  MO     LCASOP EN   M
               O  PEN   MO  LCA  SO
            OPE   NMO   L   CAS    OP
        OPENMOL  CASOP     ENMOL   CASOPE
     OPENMOLCA   SOPENMOLCASOPEN   MOLCASOPE
    OPENMOLCAS   OP           EN   MOL    CAS
    OPENMOLCAS       OP  ENM        O     LCA
    OPENMOLCAS    OPEN  MOLCASO     P  E  NMO
    OPENMOLCAS     OP               E  N  MOL
    OPENMOLCA   SO           PENM   O  L  CAS    OPEN    MO    LCAS
    OPENMOLCA   SOP           ENM   O  L  CAS   OP  EN  MOLC  AS   O
    OPENMOLCA   SOPE           NM      O  LCA   S      OP  EN MO
    OPENMOLC                AS         O  PEN   M      OL  CA  SOPE
    OPENMO        LCASOPE  NMOL        C  ASO   P      ENMOLC     AS
    OPE     NMO      LCA  SO     P     E   NM   OL  CA SO  PE N   MO
          OPENMOLCA            SOPE   NMO        LCAS  O    P  ENMO
     OPENMOLCASOPENMOLCASOPENMOLCASOPENMOLCA
        OPENMOLCASOPENMOLCASOPENMOLCASOPE
            OPENMOLCASOPENMOLCASOPENM
               OPENMOLCASOPENMOLCA        version: v23.06
                   OPENMOLCASO
                       OPE                tag:

 OpenMolcas is free software; you can redistribute it and/or modify it
 under the terms of the GNU Lesser General Public License version 2.1.
 OpenMolcas is distributed in the hope that it will be useful, but it
 is provided "as is" and without any express or implied warranties.
 For more details see the full text of the license in the file
 LICENSE or in <http://www.gnu.org/licenses/>.

                 Copyright (C) The OpenMolcas Authors
           For the author list and the recommended citation,
                   consult the file CONTRIBUTORS.md

           *************************************************
           * pymolcas version py2.24                       *
           *   build 4567b286dd94b1984b333a4ddf893180      *
           *   (after the EMIL interpreter by V. Veryazov) *
           *************************************************

configuration info
------------------
Host name: loginchem01.nottingham.ac.uk (Linux)
C Compiler ID: Intel
C flags: -std=gnu99 -gcc-sys -qopenmp
Fortran Compiler ID: Intel
Fortran flags: -fpp -i8 -heap-arrays -qopenmp
Definitions: _MOLCAS_;_I8_;_LINUX_
Parallel: OFF (GA=OFF)


   ---------------------------------------------------------------------------------------------------
  |
  |              Project: orca_geometry_optimisation_225_90_BP86_def2-SVP_def2J_scf_cas1_ras12i11_cas8
  |       Submitted from: /home/pcaah4/diamide_project
  |         Scratch area: /srv/COMMUNAL_SCRATCH/12396
  |      Save outputs to: /home/pcaah4/diamide_project
  |               Molcas: /software/chemistry/openmolcas/openmolcas-23.06-openmp
  |
  | Scratch area is empty
  |
  |       MOLCAS_DRIVER = /software/chemistry/openmolcas/openmolcas-23.06-openmp/sbin/pymolcas
  | MOLCAS_KEEP_WORKDIR = NO
  |       MOLCAS_NPROCS = 1
  |       MOLCAS_SOURCE = /software/chemistry/openmolcas/openmolcas-23.06-openmp
  |    MOLCAS_STRUCTURE = 0
  |
   ---------------------------------------------------------------------------------------------------

++ ---------   Input file   ---------

&SEWARD
TITLE
orca_geometry_optimisation_225_90_BP86_def2-SVP_def2J_scf_cas1_ras12i11
MULTIPOLES
2
SDIPOLE
ANGMOM
0 0 0
BASIS SET
C.ANO-S...4S3P1D.
C1           -0.016681   -0.057599   -0.053465 /Angstrom
C3            2.138861    1.166501   -0.043445 /Angstrom
C4            3.300944    1.060920   -1.045181 /Angstrom
C6            3.935437    1.379619   -3.418117 /Angstrom
C19          -0.671898   -1.425464    0.101185 /Angstrom
END OF BASIS
BASIS SET
N.ANO-S...4S3P1D.
N2            1.362069   -0.063386   -0.034699 /Angstrom
N5            2.997189    1.479217   -2.316498 /Angstrom
END OF BASIS
BASIS SET
O.ANO-S...4S3P1D.
O7           -0.672131    0.974535   -0.192361 /Angstrom
O8            4.388932    0.583451   -0.722315 /Angstrom
END OF BASIS
BASIS SET
H.ANO-S...2S1P.
H9           -1.230529   -1.446418    1.058863 /Angstrom
H10          -1.416011   -1.555902   -0.708520 /Angstrom
H11           0.040085   -2.273983    0.083106 /Angstrom
H12           1.861650   -0.934863    0.151776 /Angstrom
H13           1.423800    1.979949   -0.280864 /Angstrom
H14           2.589064    1.368445    0.952391 /Angstrom
H15           2.059105    1.841620   -2.494689 /Angstrom
H16           3.565182    0.699944   -4.215815 /Angstrom
H17           4.143617    2.372306   -3.870989 /Angstrom
H18           4.876977    0.968296   -3.006947 /Angstrom
END OF BASIS
END OF INPUT

&RASSCF
TITLE
orca_geometry_optimisation_225_90_BP86_def2-SVP_def2J_scf_cas1_ras12i11
LUMORB
SPIN
1
SYMMETRY
1
NACTEL
12  0  0
INACTIVE
29
DELETED  ! delete Rydberg orbitals from an initial CAS(12,11) if done
3
FROZEN
0
RAS2
8
ITERATIONS
64 25
CIROOT
7 7
1 2 3 4 5 6 7
1 1 1 1 1 1 1
LEVSHFT
0.3
CIMX
20
FILEorb = /home/pcaah4/diamide_project/cas/ras12i11/ras_orb/orca_geometry_optimisation_225_90_BP86_def2-SVP_def2J_scf_cas1_ras12i11.RasOrb
ALTEr
1
 1 37 38
END OF INPUT

&RASSI
NROF JOBIPH
    1 7
    1 2 3 5 4 6 7
TOFILE
TRDI
TDMN
1.0D-6
END OF INPUT

&CASPT2
TITLE
orca_geometry_optimisation_225_90_BP86_def2-SVP_def2J_scf_cas1_ras12i11
MULTISTATE
7 1 2 3 4 5 6 7
SHIFT
0.35
MAXITER
50
END OF INPUT

-- ----------------------------------

--- Start Module: seward at Tue Jun 10 17:56:33 2025 ---
 
()()()()()()()()()()()()()()()()()()()()()()()()()()()()()()()()()()()()()()()()()()()()()()()()()()

                                              &SEWARD

                                   only a single process is used
                       available to each process: 2.0 GB of memory, 1 thread
                                            pid: 3121740
()()()()()()()()()()()()()()()()()()()()()()()()()()()()()()()()()()()()()()()()()()()()()()()()()()
 
               SEWARD will generate:
                  Multipole Moment integrals up to order  2
                  Kinetic Energy integrals
                  Nuclear Attraction integrals (point charge)
                  One-Electron Hamiltonian integrals
                  Velocity integrals
                  Orbital angular momentum around ( 0.0000  0.0000  0.0000 )
                  Velocity quadrupole around ( 3.5272  1.0646 -1.6488 )
                  Two-Electron Repulsion integrals
 
 Title:
            orca_geometry_optimisation_225_90_BP86_def2-SVP_def2J_scf_cas1_ras12i11     
 
 
                   Integrals are discarded if absolute value <: 0.10E-13
                   Integral cutoff threshold is set to       <: 0.10E-15
 
++    Symmetry information:
      ---------------------
 
                    Character Table for C1 
 
                             E  
                    a        1  x, y, xy, Rz, z, xz, Ry, yz, Rx, I
--
 
 
++    Basis set information:
      ----------------------
 
 
      Basis set label: C.ANO-S...4S3P1D......
 
      Electronic valence basis set:
      ------------------
      Associated Effective Charge   6.000000 au
      Associated Actual Charge      6.000000 au
      Nuclear Model: Point charge
 
      Shell  nPrim  nBasis  Cartesian Spherical Contaminant
         s      10       4        X                  
         p       6       3        X                  
         d       3       1                 X         
 
 
      Basis set label: N.ANO-S...4S3P1D......
 
      Electronic valence basis set:
      ------------------
      Associated Effective Charge   7.000000 au
      Associated Actual Charge      7.000000 au
      Nuclear Model: Point charge
 
      Shell  nPrim  nBasis  Cartesian Spherical Contaminant
         s      10       4        X                  
         p       6       3        X                  
         d       3       1                 X         
 
 
      Basis set label: O.ANO-S...4S3P1D......
 
      Electronic valence basis set:
      ------------------
      Associated Effective Charge   8.000000 au
      Associated Actual Charge      8.000000 au
      Nuclear Model: Point charge
 
      Shell  nPrim  nBasis  Cartesian Spherical Contaminant
         s      10       4        X                  
         p       6       3        X                  
         d       3       1                 X         
 
 
      Basis set label: H.ANO-S...2S1P......
 
      Electronic valence basis set:
      ------------------
      Associated Effective Charge   1.000000 au
      Associated Actual Charge      1.000000 au
      Nuclear Model: Point charge
 
      Shell  nPrim  nBasis  Cartesian Spherical Contaminant
         s       7       2        X                  
         p       3       1        X                  
--
 
 
++    Molecular structure info:
      -------------------------
 
                    ************************************************ 
                    **** Cartesian Coordinates / Bohr, Angstrom **** 
                    ************************************************ 
 
     Center  Label                x              y              z                     x              y              z
        1      C1              -0.031523      -0.108846      -0.101034             -0.016681      -0.057599      -0.053465
        2      C3               4.041862       2.204367      -0.082099              2.138861       1.166501      -0.043445
        3      C4               6.237880       2.004848      -1.975106              3.300944       1.060920      -1.045181
        4      C6               7.436898       2.607102      -6.459305              3.935437       1.379619      -3.418117
        5      C19             -1.269703      -2.693737       0.191212             -0.671898      -1.425464       0.101185
        6      N2               2.573937      -0.119782      -0.065572              1.362069      -0.063386      -0.034699
        7      N5               5.663866       2.795315      -4.377547              2.997189       1.479217      -2.316498
        8      O7              -1.270144       1.841604      -0.363510             -0.672131       0.974535      -0.192361
        9      O8               8.293879       1.102563      -1.364978              4.388932       0.583451      -0.722315
       10      H9              -2.325363      -2.733334       2.000961             -1.230529      -1.446418       1.058863
       11      H10             -2.675873      -2.940229      -1.338909             -1.416011      -1.555902      -0.708520
       12      H11              0.075750      -4.297205       0.157048              0.040085      -2.273983       0.083106
       13      H12              3.518009      -1.766635       0.286815              1.861650      -0.934863       0.151776
       14      H13              2.690592       3.741561      -0.530756              1.423800       1.979949      -0.280864
       15      H14              4.892622       2.585986       1.799758              2.589064       1.368445       0.952391
       16      H15              3.891145       3.480157      -4.714279              2.059105       1.841620      -2.494689
       17      H16              6.737218       1.322702      -7.966736              3.565182       0.699944      -4.215815
       18      H17              7.830301       4.483009      -7.315109              4.143617       2.372306      -3.870989
       19      H18              9.216151       1.829814      -5.682306              4.876977       0.968296      -3.006947
 
                    ************************************************* 
                    **** InterNuclear Distances / Bohr, Angstrom **** 
                    ************************************************* 
 
     Atom centers         Bohr        Angstrom
   16 H15       7 N5      1.930010        1.021318
   13 H12       6 N2      1.930692        1.021678
   19 H18       4 C6      2.091326        1.106682
   11 H10       5 C19     2.092688        1.107403
   12 H11       5 C19     2.093447        1.107805
   14 H13       2 C3      2.095277        1.108773
   10 H9        5 C19     2.095514        1.108898
   18 H17       4 C6      2.099093        1.110792
   15 H14       2 C3      2.100194        1.111375
   17 H16       4 C6      2.100377        1.111472
    8 O7        1 C1      2.325367        1.230531
    9 O8        3 C4      2.326695        1.231234
    7 N5        3 C4      2.593463        1.372402
    6 N2        1 C1      2.605724        1.378890
    7 N5        4 C6      2.740946        1.450446
    6 N2        2 C3      2.748954        1.454684
    5 C19       1 C1      2.880999        1.524559
    3 C4        2 C3      2.906162        1.537875
   11 H10      10 H9      3.364579        1.780459
   18 H17      17 H16     3.406902        1.802855
   12 H11      10 H9      3.407499        1.803171
   15 H14      14 H13     3.408165        1.803523
   19 H18      17 H16     3.408943        1.803935
   19 H18      18 H17     3.409701        1.804336
   12 H11      11 H10     3.413312        1.806247
   14 H13       6 N2      3.891013        2.059035
   16 H15       3 C4      3.897021        2.062215
   19 H18       7 N5      3.905549        2.066728
   13 H12       1 C1      3.936732        2.083229
   18 H17       7 N5      4.021321        2.127991
   15 H14       6 N2      4.022056        2.128380
   13 H12       2 C3      4.022360        2.128541
   17 H16       7 N5      4.025289        2.130091
   16 H15       4 C6      4.047185        2.141678
   15 H14       3 C4      4.049326        2.142811
   11 H10       1 C1      4.067143        2.152239
   10 H9        1 C1      4.070384        2.153954
   12 H11       1 C1      4.197673        2.221313
   14 H13       3 C4      4.205422        2.225413
   13 H12      12 H11     4.274315        2.261870
    8 O7        6 N2      4.325825        2.289128
    9 O8        7 N5      4.342574        2.297991
   16 H15      14 H13     4.360220        2.307329
   14 H13       8 O7      4.396048        2.326288
   19 H18       9 O8      4.474238        2.367665
    8 O7        5 C19     4.569139        2.417884
    9 O8        2 C3      4.575960        2.421494
    7 N5        2 C3      4.629362        2.449753
    6 N2        5 C19     4.633007        2.451682
    6 N2        3 C4      4.645950        2.458531
    4 C6        3 C4      4.680641        2.476888
    2 C3        1 C1      4.684418        2.478887
   14 H13       1 C1      4.734998        2.505653
   19 H18       3 C4      4.758578        2.518131
   16 H15       2 C3      4.807020        2.543766
   15 H14      13 H12     4.808729        2.544670
   18 H17      16 H15     4.825659        2.553629
   17 H16      16 H15     4.830447        2.556163
   12 H11       6 N2      4.872511        2.578422
   15 H14       9 O8      4.876951        2.580771
   13 H12       5 C19     4.877586        2.581107
   14 H13       7 N5      4.953134        2.621086
   11 H10       8 O7      5.078721        2.687543
   13 H12       3 C4      5.170887        2.736316
   10 H9        8 O7      5.256831        2.781795
    8 O7        2 C3      5.331809        2.821472
    9 O8        4 C6      5.380542        2.847260
   14 H13      13 H12     5.629677        2.979097
   19 H18      16 H15     5.658304        2.994245
--
 
 
            Nuclear Potential Energy            449.24565284 au
 
 
      Basis set specifications :
      Symmetry species         a  
      Basis functions          212
 
 
      Input file to MOLDEN was generated!
 
--- Stop Module: seward at Tue Jun 10 17:58:22 2025 /rc=_RC_ALL_IS_WELL_ ---
*** files: orca_geometry_optimisation_225_90_BP86_def2-SVP_def2J_scf_cas1_ras12i11_cas8.GssOrb
           orca_geometry_optimisation_225_90_BP86_def2-SVP_def2J_scf_cas1_ras12i11_cas8.guessorb.molden xmldump
    saved to directory /home/pcaah4/diamide_project
--- Module seward spent 1 minute 48 seconds ---

*** symbolic link created: INPORB -> orca_geometry_optimisation_225_90_BP86_def2-SVP_def2J_scf_cas1_ras12i11_cas8.GssOrb
--- Start Module: rasscf at Tue Jun 10 17:58:23 2025 ---
 
()()()()()()()()()()()()()()()()()()()()()()()()()()()()()()()()()()()()()()()()()()()()()()()()()()

                                              &RASSCF

                                   only a single process is used
                       available to each process: 2.0 GB of memory, 1 thread
                                            pid: 3121777
()()()()()()()()()()()()()()()()()()()()()()()()()()()()()()()()()()()()()()()()()()()()()()()()()()
 
 
      Header of the ONEINT file:
      --------------------------
      orca_geometry_optimisation_225_90_BP86_def2-SVP_def2J_scf_cas1_ras12i11
      Integrals generated by Gateway/Seward, Tue Jun 10 17:56:34 2025
 
 
      OrdInt status: non-squared
 
 
      Cartesian coordinates in Angstrom:
      -----------------------------------------------------
      No.  Label        X            Y            Z        
      -----------------------------------------------------
       1   C1        -0.01668100  -0.05759900  -0.05346500
       2   C3         2.13886100   1.16650100  -0.04344500
       3   C4         3.30094400   1.06092000  -1.04518100
       4   C6         3.93543700   1.37961900  -3.41811700
       5   C19       -0.67189800  -1.42546400   0.10118500
       6   N2         1.36206900  -0.06338600  -0.03469900
       7   N5         2.99718900   1.47921700  -2.31649800
       8   O7        -0.67213100   0.97453500  -0.19236100
       9   O8         4.38893200   0.58345100  -0.72231500
      10   H9        -1.23052900  -1.44641800   1.05886300
      11   H10       -1.41601100  -1.55590200  -0.70852000
      12   H11        0.04008500  -2.27398300   0.08310600
      13   H12        1.86165000  -0.93486300   0.15177600
      14   H13        1.42380000   1.97994900  -0.28086400
      15   H14        2.58906400   1.36844500   0.95239100
      16   H15        2.05910500   1.84162000  -2.49468900
      17   H16        3.56518200   0.69994400  -4.21581500
      18   H17        4.14361700   2.37230600  -3.87098900
      19   H18        4.87697700   0.96829600  -3.00694700
      -----------------------------------------------------
      Nuclear repulsion energy =  449.24565284
 
++    Wave function specifications:
      -----------------------------
 
      Number of closed shell electrons          58
      Number of electrons in active shells      12
      Max number of holes in RAS1 space          0
      Max nr of electrons in RAS3 space          0
      Number of inactive orbitals               29
      Number of active orbitals                  8
      Number of secondary orbitals             172
      Spin quantum number                      0.0
      State symmetry                             1
--
 
++    Orbital specifications:
      -----------------------
 
      Symmetry species                           1
                                                 a
      Frozen orbitals                            0
      Inactive orbitals                         29
      Active orbitals                            8
      RAS1 orbitals                              0
      RAS2 orbitals                              8
      RAS3 orbitals                              0
      Secondary orbitals                       172
      Deleted orbitals                           3
      Number of basis functions                212
--
 
++    CI expansion specifications:
      ----------------------------
 
      Number of CSFs                           336
      Number of determinants                   406
      Number of root(s) required                 7
      Root chosen for geometry opt.              7
      CI roots used                              1     2     3     4     5     6     7
      weights                                0.143 0.143 0.143 0.143 0.143 0.143 0.143
      highest root included in the CI            7
      max. size of the explicit Hamiltonian    200
--
 
++    Optimization specifications:
      ----------------------------
 
      RASSCF algorithm: Conventional
      Maximum number of macro iterations        64
      Maximum number of SX iterations           25
      Threshold for RASSCF energy            0.100E-07
      Threshold for max MO rotation          0.100E+00
      Threshold for max BLB element          0.100E-03
      Level shift parameter                  0.300E+00
      Make Quasi-Newton update
--
 
      The MO-coefficients are taken from the file:
      /home/pcaah4/diamide_project/cas/ras12i11/ras_orb/orca_geometry_optimisation_225_90_BP86_def2-SVP_def2J_scf_cas1_ras12i11.RasOrb                                                                                                                                
      Title: RASSCF average (pseudo-natural) orbitals                                      
 
      Total molecular charge    0.00
 
      Molecular orbitals exchanged:
        In symmetry  1 :  37  38
 
 
      ************************************************************************************************************************
      *                                                                                                                      *
      *                                            Wave function control section                                             *
      *                                                                                                                      *
      ************************************************************************************************************************
 
 
                                         RASSCF iterations: Energy and convergence statistics
                                         ----------------------------------------------------
 
      Iter CI   SX   CI       RASSCF       Energy    max ROT     max BLB   max BLB  Level Ln srch  Step   QN   Walltime
          iter iter root      energy       change     param      element    value   shift minimum  type update hh:mm:ss
 Nr of preliminary CI iterations:   5
        1   1   25    0  -453.70211330    0.00E+00  -0.25E-01   35  40 1  0.21E-01*  0.17   0.00    SX    NO    0:00:13
        2   4   13    0  -453.70621029   -0.41E-02*  0.13E-01   32  38 1 -0.58E-02*  0.17   0.00    SX    NO    0:00:06
        3   3   12    0  -453.70666090   -0.45E-03* -0.49E-02   35  40 1  0.26E-02*  0.17   0.00    SX    NO    0:00:06
        4   4   11    0  -453.70680726   -0.15E-03* -0.37E-02   32  38 1 -0.91E-03*  0.17   0.00    SX    NO    0:00:06
        5   3   11    0  -453.70683655   -0.29E-04* -0.44E-02   21  68 1  0.55E-03*  0.18   1.38    QN   YES    0:00:06
        6   4    9    0  -453.70685250   -0.16E-04* -0.44E-03   30 114 1  0.22E-03*  0.18   0.93    QN   YES    0:00:06
        7   3    9    0  -453.70685377   -0.13E-05*  0.50E-03   22  97 1  0.15E-03*  0.18   1.02    QN   YES    0:00:06
        8   4    9    0  -453.70685427   -0.50E-06*  0.23E-03   35  40 1 -0.59E-04   0.18   1.26    QN   YES    0:00:06
        9   3    7    0  -453.70685437   -0.11E-06*  0.21E-03   22  97 1  0.24E-04   0.18   1.39    QN   YES    0:00:06
       10   3    7    0  -453.70685440   -0.29E-07*  0.48E-04   22  97 1 -0.76E-05   0.18   0.94    QN   YES    0:00:06
       11   1    6    0  -453.70685441   -0.39E-08   0.48E-04   33  38 1 -0.70E-05   0.18   2.50    QN   YES    0:00:06
      Convergence after 11 iterations
       12   1    6    0  -453.70685441   -0.18E-08   0.48E-04   33  39 1 -0.17E-05   0.18   2.50    QN   YES    0:00:06
 
      ************************************************************************************************************************
                                                      Wave function printout:
                       occupation of active orbitals, and spin coupling of open shells (u,d: Spin up or down)
      ************************************************************************************************************************
 
      Note: transformation to natural orbitals
      has been made, which may change the order of the CSFs.
 
      printout of CI-coefficients larger than  0.05 for root  1
      energy=    -453.958930
      conf/sym  11111111     Coeff  Weight
             1  22222200   0.96122 0.92394
             4  22222020  -0.08691 0.00755
            24  222u220d   0.14665 0.02151
            64  2u22220d  -0.07668 0.00588
            81  u22222d0  -0.08759 0.00767
            82  u2222d20  -0.05069 0.00257
           105  22202202  -0.07590 0.00576
           125  2u2d2202   0.06369 0.00406
           175  20222202  -0.09726 0.00946
           191  02222220  -0.07939 0.00630
 
      printout of CI-coefficients larger than  0.05 for root  2
      energy=    -453.747947
      conf/sym  11111111     Coeff  Weight
             3  2222u2d0   0.13078 0.01710
             8  2222u20d   0.95305 0.90831
            13  2222u02d  -0.08462 0.00716
            34  222ud202  -0.08954 0.00802
            54  22u2d202   0.06431 0.00414
            74  2u22d202   0.18286 0.03344
            88  u222u2dd   0.07224 0.00522
           194  0222u22d   0.07977 0.00636
 
      printout of CI-coefficients larger than  0.05 for root  3
      energy=    -453.739415
      conf/sym  11111111     Coeff  Weight
            21  222u22d0  -0.26352 0.06944
            41  22u222d0  -0.90808 0.82461
            42  22u22d20  -0.17622 0.03105
           112  22ud22ud  -0.06575 0.00432
           161  u2d22220  -0.13316 0.01773
           201  22uu22dd   0.10946 0.01198
           219  2uu222dd   0.06369 0.00406
           238  22u022d2  -0.07923 0.00628
           274  2uud22d2  -0.05100 0.00260
           294  20u222d2   0.09087 0.00826
 
      printout of CI-coefficients larger than  0.05 for root  4
      energy=    -453.648338
      conf/sym  11111111     Coeff  Weight
             1  22222200  -0.05381 0.00290
             2  22222ud0  -0.76602 0.58678
             4  22222020   0.07356 0.00541
            21  222u22d0   0.42499 0.18062
            22  222u2d20  -0.05726 0.00328
            24  222u220d   0.28419 0.08077
            27  222u2udd  -0.08417 0.00708
            41  22u222d0  -0.16903 0.02857
            67  2u222udd   0.05592 0.00313
            81  u22222d0   0.09873 0.00975
            82  u2222d20  -0.17933 0.03216
           105  22202202   0.06492 0.00421
           106  22202ud2   0.06650 0.00442
           122  2u2d22ud   0.05939 0.00353
           125  2u2d2202   0.07315 0.00535
           176  20222ud2   0.07466 0.00557
           191  02222220  -0.05155 0.00266
           207  2u2u22dd  -0.07981 0.00637
           262  202u22d2  -0.05418 0.00294
 
      printout of CI-coefficients larger than  0.05 for root  5
      energy=    -453.633295
      conf/sym  11111111     Coeff  Weight
             1  22222200  -0.07416 0.00550
             2  22222ud0   0.54138 0.29309
             3  2222u2d0   0.09934 0.00987
            21  222u22d0   0.56632 0.32072
            24  222u220d   0.47885 0.22929
            27  222u2udd   0.05387 0.00290
            41  22u222d0  -0.14575 0.02124
            61  2u2222d0   0.05459 0.00298
            82  u2222d20   0.14500 0.02102
           105  22202202   0.10295 0.01060
           122  2u2d22ud   0.09675 0.00936
           125  2u2d2202   0.12550 0.01575
           175  20222202  -0.05474 0.00300
           176  20222ud2  -0.05318 0.00283
           207  2u2u22dd  -0.11720 0.01374
           213  u22u22dd   0.05227 0.00273
           262  202u22d2  -0.07426 0.00551
 
      printout of CI-coefficients larger than  0.05 for root  6
      energy=    -453.621021
      conf/sym  11111111     Coeff  Weight
             1  22222200  -0.08435 0.00711
             2  22222ud0  -0.05911 0.00349
             3  2222u2d0   0.42003 0.17642
             8  2222u20d  -0.05207 0.00271
            21  222u22d0  -0.54346 0.29535
            24  222u220d   0.60051 0.36061
            26  222ud2ud  -0.10496 0.01102
            28  222uu2dd  -0.14848 0.02205
            29  222u202d  -0.05584 0.00312
            41  22u222d0   0.12004 0.01441
           105  22202202   0.10664 0.01137
           122  2u2d22ud  -0.09198 0.00846
           125  2u2d2202   0.15613 0.02438
           175  20222202  -0.05794 0.00336
           207  2u2u22dd   0.14152 0.02003
           213  u22u22dd   0.05240 0.00275
           262  202u22d2   0.08494 0.00722
 
      printout of CI-coefficients larger than  0.05 for root  7
      energy=    -453.599035
      conf/sym  11111111     Coeff  Weight
             1  22222200  -0.05449 0.00297
             3  2222u2d0  -0.76681 0.58799
             8  2222u20d   0.11213 0.01257
            21  222u22d0  -0.19229 0.03697
            24  222u220d   0.39563 0.15652
            26  222ud2ud   0.20246 0.04099
            28  222uu2dd   0.27879 0.07773
            41  22u222d0   0.06634 0.00440
            44  22u2220d  -0.05497 0.00302
            46  22u2d2ud   0.08398 0.00705
            48  22u2u2dd   0.08193 0.00671
            81  u22222d0   0.06920 0.00479
           105  22202202   0.09130 0.00834
           125  2u2d2202   0.09997 0.00999
           127  2u2du2d2   0.07905 0.00625
           177  2022u2d2   0.06841 0.00468
           207  2u2u22dd   0.05012 0.00251
 
      Natural orbitals and occupation numbers for root  1
      sym 1:   1.968216   1.995868   1.999835   1.954276   1.999650   1.994685   0.037407   0.050063
 
      Natural orbitals and occupation numbers for root  2
      sym 1:   1.968444   1.999898   1.999694   1.999444   1.004937   1.995131   0.036877   0.995574
 
      Natural orbitals and occupation numbers for root  3
      sym 1:   1.999853   1.993678   1.005518   1.953940   1.999416   1.998565   0.997870   0.051160
 
      Natural orbitals and occupation numbers for root  4
      sym 1:   1.967033   1.957480   1.998834   1.886477   1.999223   1.153722   0.895539   0.141691
 
      Natural orbitals and occupation numbers for root  5
      sym 1:   1.976523   1.934246   1.998014   1.142311   1.995038   1.853650   0.902244   0.197974
 
      Natural orbitals and occupation numbers for root  6
      sym 1:   1.984900   1.948788   1.997867   1.142566   1.887789   1.990405   0.861692   0.185993
 
      Natural orbitals and occupation numbers for root  7
      sym 1:   1.997731   1.970047   1.991452   1.793114   1.307488   1.983412   0.708779   0.247976
 
      ************************************************************************************************************************
      *                                                                                                                      *
      *                                                    Final results                                                     *
      *                                                                                                                      *
      ************************************************************************************************************************
 
 
++    Wave function specifications:
      -----------------------------
 
      Number of closed shell electrons          58
      Number of electrons in active shells      12
      Max number of holes in RAS1 space          0
      Max nr of electrons in RAS3 space          0
      Number of inactive orbitals               29
      Number of active orbitals                  8
      Number of secondary orbitals             172
      Spin quantum number                      0.0
      State symmetry                             1
--
 
++    Orbital specifications:
      -----------------------
 
      Symmetry species                           1
                                                 a
      Frozen orbitals                            0
      Inactive orbitals                         29
      Active orbitals                            8
      RAS1 orbitals                              0
      RAS2 orbitals                              8
      RAS3 orbitals                              0
      Secondary orbitals                       172
      Deleted orbitals                           3
      Number of basis functions                212
--
 
++    CI expansion specifications:
      ----------------------------
 
      Number of CSFs                           336
      Number of determinants                   406
      Number of root(s) required                 7
      CI roots used                              1     2     3     4     5     6     7
      weights                                0.143 0.143 0.143 0.143 0.143 0.143 0.143
      highest root included in the CI            7
      Root passed to geometry opt.               7
--
 
++    Final optimization conditions:
      ------------------------------
 
      Average CI energy                            -453.70685441
      RASSCF energy for state  7                   -453.59903524
      Super-CI energy                                -0.00000000
      RASSCF energy change                            0.00000000
      Max change in MO coefficients              -0.680E-04
      Max non-diagonal density matrix element     0.484E-04
      Maximum BLB matrix element                 -0.173E-05
      (orbital pair  33,  39 in symmetry   1)
      Norm of electronic gradient            0.278E+00
--
 
 
      Final state energy(ies):
      ------------------------
 
::    RASSCF root number  1 Total energy:   -453.95892986
::    RASSCF root number  2 Total energy:   -453.74794666
::    RASSCF root number  3 Total energy:   -453.73941547
::    RASSCF root number  4 Total energy:   -453.64833825
::    RASSCF root number  5 Total energy:   -453.63329483
::    RASSCF root number  6 Total energy:   -453.62102057
::    RASSCF root number  7 Total energy:   -453.59903524
 
++    Molecular orbitals:
      -------------------
 
      Pseudonatural active orbitals and approximate occupation numbers
 
 
 
 
      Molecular orbitals for symmetry species 1: a  
 
 
      Orbital                 1         2         3         4         5         6         7         8         9        10
      Energy           -20.6022  -20.5167  -15.6388  -15.5799  -11.3441  -11.2866  -11.2858  -11.2620  -11.2600   -1.4273
      Occ. No.           2.0000    2.0000    2.0000    2.0000    2.0000    2.0000    2.0000    2.0000    2.0000    2.0000
 
     1 C1     1s        -0.0003   -0.0001    0.0002   -0.0001    0.9999    0.0001   -0.0001    0.0038   -0.0001   -0.0387
     2 C1     2s        -0.0006   -0.0007    0.0007   -0.0004    0.0019   -0.0007    0.0001    0.0005   -0.0004    0.3572
     3 C1     3s         0.0007   -0.0006    0.0001   -0.0003   -0.0003   -0.0007    0.0000    0.0007   -0.0004   -0.0027
     4 C1     4s         0.0004   -0.0002   -0.0000   -0.0001    0.0012   -0.0003    0.0000    0.0002   -0.0001    0.0040
     5 C1     2px        0.0012   -0.0005    0.0016   -0.0005    0.0014    0.0001   -0.0003    0.0004   -0.0002   -0.0433
     6 C1     3px        0.0008   -0.0003    0.0012   -0.0006    0.0015   -0.0003   -0.0005   -0.0001   -0.0003    0.0253
     7 C1     4px       -0.0001    0.0001   -0.0001   -0.0001    0.0005   -0.0003   -0.0001   -0.0002   -0.0001   -0.0133
     8 C1     2py       -0.0030   -0.0002    0.0001   -0.0001    0.0012   -0.0000   -0.0004    0.0006   -0.0001    0.0964
     9 C1     3py       -0.0020   -0.0003    0.0001   -0.0001    0.0011   -0.0005   -0.0003   -0.0002   -0.0001   -0.0692
    10 C1     4py        0.0004   -0.0001    0.0000   -0.0000    0.0007   -0.0004    0.0001   -0.0003   -0.0000    0.0229
    11 C1     2pz        0.0004   -0.0002    0.0001   -0.0001   -0.0001   -0.0000    0.0001   -0.0000    0.0000   -0.0108
    12 C1     3pz        0.0003   -0.0003    0.0001   -0.0001   -0.0001   -0.0000    0.0000    0.0001    0.0000    0.0087
    13 C1     4pz       -0.0001   -0.0001    0.0000   -0.0000   -0.0001   -0.0000   -0.0000    0.0000    0.0000   -0.0035
    14 C1     3d2-      -0.0001   -0.0000    0.0001    0.0000   -0.0004   -0.0000   -0.0000   -0.0001    0.0000   -0.0325
    15 C1     3d1-      -0.0000   -0.0000    0.0000    0.0000   -0.0001    0.0000    0.0000   -0.0000    0.0000   -0.0079
    16 C1     3d0        0.0000    0.0000    0.0001    0.0000   -0.0004   -0.0001    0.0000   -0.0001    0.0000   -0.0270
    17 C1     3d1+       0.0000   -0.0000    0.0000   -0.0000    0.0001    0.0000    0.0000    0.0000   -0.0000    0.0048
    18 C1     3d2+      -0.0001   -0.0000   -0.0002   -0.0000   -0.0000    0.0000    0.0000    0.0000    0.0000   -0.0112
    19 C3     1s        -0.0001    0.0002    0.0003    0.0001   -0.0002    0.9272   -0.3730   -0.0000    0.0000   -0.0086
    20 C3     2s        -0.0006    0.0010    0.0014    0.0010    0.0001   -0.0021   -0.0001   -0.0006    0.0006    0.0196
    21 C3     3s        -0.0004    0.0007    0.0007    0.0007    0.0000   -0.0031    0.0003   -0.0003    0.0003   -0.0167
    22 C3     4s        -0.0001    0.0001    0.0001    0.0001   -0.0001    0.0005   -0.0004   -0.0000    0.0000   -0.0020
    23 C3     2px       -0.0001   -0.0004   -0.0004    0.0004    0.0007   -0.0009    0.0005   -0.0002   -0.0002   -0.0213
    24 C3     3px       -0.0003   -0.0006    0.0001    0.0004    0.0012   -0.0011   -0.0000   -0.0004   -0.0005   -0.0104
    25 C3     4px       -0.0001   -0.0001    0.0002   -0.0000    0.0004   -0.0006    0.0001   -0.0001   -0.0002   -0.0062
    26 C3     2py        0.0002    0.0000   -0.0007   -0.0005    0.0002    0.0001    0.0003    0.0000   -0.0000   -0.0164
    27 C3     3py        0.0001    0.0001   -0.0002   -0.0003    0.0003    0.0002    0.0001   -0.0001   -0.0000   -0.0030
    28 C3     4py       -0.0000    0.0000    0.0002    0.0001    0.0001   -0.0008    0.0002   -0.0001   -0.0000   -0.0044
    29 C3     2pz        0.0001   -0.0004   -0.0005    0.0004   -0.0006   -0.0002    0.0001    0.0001   -0.0006    0.0097
    30 C3     3pz        0.0001   -0.0002   -0.0008    0.0004   -0.0008   -0.0003    0.0005    0.0001   -0.0006    0.0149
    31 C3     4pz       -0.0000    0.0002   -0.0002    0.0001   -0.0002   -0.0002    0.0002    0.0000   -0.0000    0.0024
    32 C3     3d2-      -0.0000    0.0000    0.0000   -0.0000    0.0000   -0.0001    0.0000   -0.0000   -0.0000    0.0035
    33 C3     3d1-       0.0000   -0.0001   -0.0000   -0.0000   -0.0000   -0.0000    0.0000    0.0000    0.0000    0.0000
    34 C3     3d0        0.0000    0.0001    0.0001    0.0000   -0.0001    0.0000   -0.0001    0.0000    0.0000   -0.0022
    35 C3     3d1+      -0.0000   -0.0000   -0.0000    0.0000    0.0000    0.0001   -0.0000   -0.0000   -0.0001   -0.0004
    36 C3     3d2+       0.0000   -0.0000    0.0001    0.0000    0.0000    0.0001   -0.0000    0.0000    0.0000   -0.0003
    37 C4     1s         0.0000    0.0003    0.0000    0.0002   -0.0001    0.3731    0.9278    0.0001    0.0003    0.0001
    38 C4     2s         0.0001    0.0010    0.0002    0.0010   -0.0010    0.0018    0.0020    0.0004   -0.0003    0.0255
    39 C4     3s         0.0001   -0.0003    0.0002    0.0004   -0.0009    0.0004   -0.0000    0.0003   -0.0003    0.0078
    40 C4     4s         0.0000   -0.0003    0.0000    0.0001   -0.0003    0.0006    0.0012    0.0001   -0.0001    0.0028
    41 C4     2px        0.0001    0.0027   -0.0005   -0.0002   -0.0000   -0.0008    0.0002   -0.0002    0.0002    0.0010
    42 C4     3px        0.0001    0.0018   -0.0005   -0.0003    0.0000   -0.0002    0.0001   -0.0002   -0.0002    0.0015
    43 C4     4px       -0.0000   -0.0003    0.0000   -0.0000    0.0000    0.0003    0.0001   -0.0000   -0.0003   -0.0008
    44 C4     2py       -0.0000   -0.0013    0.0002    0.0003   -0.0001    0.0003   -0.0001    0.0002   -0.0001   -0.0000
    45 C4     3py        0.0000   -0.0010    0.0001    0.0002   -0.0003    0.0004   -0.0002    0.0002   -0.0002    0.0060
    46 C4     4py        0.0000    0.0001   -0.0001   -0.0000   -0.0001    0.0001   -0.0001    0.0001   -0.0000    0.0018
    47 C4     2pz        0.0003    0.0006    0.0000   -0.0016   -0.0001    0.0010   -0.0011    0.0001    0.0004    0.0039
    48 C4     3pz        0.0005    0.0006    0.0003   -0.0012   -0.0002    0.0010   -0.0008    0.0001    0.0011    0.0030
    49 C4     4pz        0.0001    0.0000    0.0002    0.0001   -0.0000   -0.0001   -0.0004    0.0000    0.0005    0.0013
    50 C4     3d2-      -0.0000    0.0001    0.0001    0.0001    0.0000   -0.0001   -0.0003   -0.0000   -0.0000   -0.0009
    51 C4     3d1-      -0.0000   -0.0000    0.0000    0.0001    0.0000   -0.0001   -0.0002   -0.0000   -0.0000   -0.0008
    52 C4     3d0       -0.0000    0.0001    0.0000   -0.0001   -0.0000   -0.0000    0.0000    0.0000    0.0001   -0.0000
    53 C4     3d1+       0.0000   -0.0001   -0.0000   -0.0002   -0.0000    0.0000    0.0003    0.0000    0.0000    0.0005
    54 C4     3d2+      -0.0000   -0.0000   -0.0000   -0.0000   -0.0000    0.0001    0.0002    0.0000    0.0000    0.0012
    55 C6     1s         0.0000    0.0001   -0.0001    0.0003   -0.0001   -0.0001   -0.0004    0.0000    0.9997    0.0018
    56 C6     2s         0.0004    0.0007   -0.0010    0.0014   -0.0009   -0.0002   -0.0000    0.0001   -0.0000    0.0159
    57 C6     3s         0.0003    0.0005   -0.0007    0.0003   -0.0007   -0.0002   -0.0002    0.0001   -0.0016    0.0122
    58 C6     4s         0.0001    0.0001   -0.0002   -0.0001   -0.0002   -0.0001   -0.0002    0.0000    0.0009    0.0036
    59 C6     2px       -0.0001   -0.0001    0.0002   -0.0004    0.0002   -0.0001    0.0001   -0.0001   -0.0001   -0.0051
    60 C6     3px       -0.0001   -0.0001    0.0002    0.0001    0.0002   -0.0001    0.0000   -0.0001    0.0002   -0.0044
    61 C6     4px        0.0000   -0.0000   -0.0000    0.0001    0.0000    0.0000   -0.0000    0.0000   -0.0004   -0.0001
    62 C6     2py       -0.0001    0.0001   -0.0002    0.0002   -0.0002   -0.0001    0.0002   -0.0000    0.0000    0.0017
    63 C6     3py       -0.0000    0.0001   -0.0002    0.0002   -0.0001   -0.0002    0.0003   -0.0000   -0.0001    0.0012
    64 C6     4py        0.0000    0.0000    0.0000    0.0000    0.0000   -0.0000    0.0001   -0.0000    0.0000   -0.0003
    65 C6     2pz        0.0001    0.0004   -0.0002    0.0003   -0.0003   -0.0001   -0.0004    0.0000   -0.0001    0.0054
    66 C6     3pz        0.0001    0.0003   -0.0002   -0.0002   -0.0003   -0.0002   -0.0005    0.0000   -0.0002    0.0053
    67 C6     4pz        0.0000   -0.0000   -0.0000   -0.0002   -0.0000   -0.0001   -0.0001    0.0000    0.0005    0.0008
    68 C6     3d2-       0.0000   -0.0000    0.0000    0.0001    0.0000   -0.0000    0.0000    0.0000    0.0000    0.0000
    69 C6     3d1-       0.0000   -0.0000   -0.0000    0.0000    0.0000   -0.0000   -0.0000    0.0000   -0.0000   -0.0000
    70 C6     3d0        0.0000    0.0000    0.0000   -0.0000    0.0000    0.0000    0.0001    0.0000    0.0000    0.0000
    71 C6     3d1+      -0.0000   -0.0000    0.0000    0.0001    0.0000   -0.0000    0.0000   -0.0000    0.0001   -0.0004
    72 C6     3d2+       0.0000    0.0000    0.0000   -0.0001    0.0000    0.0000   -0.0000   -0.0000   -0.0001   -0.0000
    73 C19    1s        -0.0002   -0.0001   -0.0000    0.0000    0.0037    0.0002   -0.0001   -1.0000   -0.0000   -0.0146
    74 C19    2s        -0.0011   -0.0006   -0.0001   -0.0000    0.0007    0.0008   -0.0002   -0.0020   -0.0001   -0.0128
    75 C19    3s        -0.0007   -0.0005    0.0000   -0.0001    0.0003    0.0005   -0.0001    0.0004   -0.0001   -0.0396
    76 C19    4s        -0.0001   -0.0001   -0.0000   -0.0001    0.0001    0.0000    0.0000   -0.0013   -0.0001   -0.0038
    77 C19    2px       -0.0008   -0.0001   -0.0003    0.0000   -0.0001    0.0003    0.0000    0.0001   -0.0000   -0.0094
    78 C19    3px       -0.0005   -0.0001   -0.0003    0.0000   -0.0003    0.0002    0.0001    0.0001   -0.0000   -0.0075
    79 C19    4px        0.0002    0.0000   -0.0000    0.0000   -0.0000   -0.0000    0.0000   -0.0002    0.0000    0.0079
    80 C19    2py        0.0001   -0.0002    0.0003   -0.0002    0.0005    0.0003   -0.0001    0.0002   -0.0001    0.0211
    81 C19    3py        0.0003   -0.0001    0.0003   -0.0002   -0.0000    0.0001   -0.0001    0.0000   -0.0001   -0.0061
    82 C19    4py        0.0001    0.0000   -0.0001   -0.0000   -0.0001   -0.0001    0.0000   -0.0004   -0.0000    0.0054
    83 C19    2pz        0.0001   -0.0000    0.0000   -0.0001   -0.0000    0.0000   -0.0000   -0.0001   -0.0001   -0.0030
    84 C19    3pz        0.0000   -0.0000    0.0000   -0.0001    0.0000    0.0000   -0.0000   -0.0000   -0.0000    0.0003
    85 C19    4pz       -0.0000    0.0000    0.0000    0.0000    0.0000    0.0000    0.0000    0.0000    0.0000   -0.0006
    86 C19    3d2-      -0.0001   -0.0000   -0.0000   -0.0000    0.0000    0.0001   -0.0000    0.0001   -0.0000    0.0009
    87 C19    3d1-      -0.0000    0.0000   -0.0000   -0.0000    0.0000   -0.0000    0.0000   -0.0000    0.0000   -0.0008
    88 C19    3d0        0.0001    0.0000   -0.0001    0.0000    0.0001   -0.0000    0.0000   -0.0001    0.0000    0.0015
    89 C19    3d1+      -0.0000    0.0000    0.0000    0.0000   -0.0000   -0.0000    0.0000   -0.0000    0.0000    0.0001
    90 C19    3d2+      -0.0001    0.0000   -0.0000    0.0000   -0.0001   -0.0000    0.0000   -0.0001    0.0000   -0.0069
    91 N2     1s        -0.0001    0.0001    0.9998   -0.0000   -0.0002    0.0001    0.0001   -0.0001    0.0000   -0.0175
    92 N2     2s        -0.0005    0.0004    0.0001   -0.0003   -0.0002    0.0016    0.0001   -0.0006    0.0000    0.1152
    93 N2     3s        -0.0004    0.0003   -0.0014   -0.0002   -0.0004    0.0009    0.0003   -0.0004    0.0000   -0.0463
    94 N2     4s        -0.0001    0.0001    0.0004   -0.0000    0.0000    0.0003    0.0001   -0.0001   -0.0000   -0.0110
    95 N2     2px       -0.0001   -0.0007    0.0003   -0.0006   -0.0003    0.0010    0.0000    0.0004   -0.0002   -0.0273
    96 N2     3px       -0.0000   -0.0010    0.0002   -0.0007   -0.0001    0.0009    0.0001    0.0003   -0.0003    0.0206
    97 N2     4px        0.0000   -0.0001   -0.0002   -0.0000   -0.0002   -0.0000   -0.0001   -0.0001   -0.0001   -0.0051
    98 N2     2py        0.0015   -0.0002   -0.0008   -0.0002    0.0003    0.0009    0.0000    0.0003   -0.0001    0.0373
    99 N2     3py        0.0018   -0.0004   -0.0001   -0.0002    0.0003    0.0010    0.0001    0.0002   -0.0001    0.0139
   100 N2     4py        0.0000   -0.0000    0.0004   -0.0000   -0.0000    0.0002   -0.0001   -0.0001   -0.0000   -0.0062
   101 N2     2pz       -0.0003    0.0001    0.0003    0.0001    0.0001   -0.0000    0.0001   -0.0001    0.0001   -0.0042
   102 N2     3pz       -0.0004    0.0003   -0.0000    0.0002    0.0001   -0.0001    0.0001   -0.0001    0.0001   -0.0063
   103 N2     4pz       -0.0000    0.0001    0.0000    0.0000    0.0000   -0.0000    0.0001   -0.0000    0.0000    0.0001
   104 N2     3d2-      -0.0001   -0.0000   -0.0002   -0.0000   -0.0001   -0.0000    0.0000    0.0000   -0.0000   -0.0029
   105 N2     3d1-       0.0000    0.0000   -0.0000    0.0000    0.0000   -0.0000   -0.0000    0.0000    0.0000    0.0003
   106 N2     3d0        0.0000    0.0000   -0.0000    0.0000    0.0001    0.0001   -0.0001    0.0001   -0.0000   -0.0026
   107 N2     3d1+       0.0000    0.0000    0.0000    0.0000    0.0000   -0.0000   -0.0000   -0.0000    0.0000    0.0005
   108 N2     3d2+       0.0000    0.0000   -0.0000   -0.0000    0.0001   -0.0000    0.0000   -0.0000   -0.0000    0.0045
   109 N5     1s        -0.0000    0.0001   -0.0000    0.9999    0.0001   -0.0000   -0.0002   -0.0000    0.0001   -0.0017
   110 N5     2s        -0.0003    0.0007   -0.0002    0.0006    0.0006    0.0003   -0.0002   -0.0002    0.0017   -0.0014
   111 N5     3s        -0.0002    0.0005   -0.0002   -0.0010    0.0004    0.0002   -0.0003   -0.0002    0.0010   -0.0057
   112 N5     4s        -0.0001    0.0001   -0.0000    0.0006    0.0001    0.0001    0.0000   -0.0000    0.0004   -0.0012
   113 N5     2px        0.0001   -0.0015    0.0006   -0.0010    0.0004    0.0004    0.0001    0.0000    0.0006   -0.0080
   114 N5     3px        0.0000   -0.0018    0.0009   -0.0006    0.0007    0.0005   -0.0001    0.0000    0.0007   -0.0132
   115 N5     4px       -0.0000   -0.0000    0.0001    0.0003    0.0002    0.0001   -0.0001   -0.0000    0.0002   -0.0026
   116 N5     2py        0.0000    0.0005    0.0001    0.0003    0.0002   -0.0002   -0.0002   -0.0001   -0.0000   -0.0033
   117 N5     3py        0.0000    0.0005    0.0001    0.0001    0.0003   -0.0001   -0.0001   -0.0001   -0.0001   -0.0023
   118 N5     4py        0.0000    0.0000    0.0000   -0.0002    0.0001    0.0000   -0.0001   -0.0000   -0.0001   -0.0007
   119 N5     2pz        0.0001    0.0004   -0.0008   -0.0000   -0.0005    0.0000    0.0000    0.0000   -0.0008    0.0106
   120 N5     3pz        0.0001    0.0006   -0.0010    0.0000   -0.0008   -0.0002    0.0001    0.0001   -0.0006    0.0157
   121 N5     4pz        0.0000    0.0001   -0.0001    0.0001   -0.0001   -0.0001    0.0003    0.0000   -0.0000    0.0032
   122 N5     3d2-       0.0000   -0.0000    0.0000   -0.0000   -0.0000    0.0000    0.0001    0.0000    0.0000    0.0000
   123 N5     3d1-       0.0000    0.0000    0.0000   -0.0000    0.0000   -0.0000    0.0000    0.0000    0.0000   -0.0002
   124 N5     3d0        0.0000    0.0000   -0.0000   -0.0001   -0.0000   -0.0000   -0.0001    0.0000   -0.0001    0.0003
   125 N5     3d1+      -0.0000   -0.0001   -0.0000    0.0001    0.0000    0.0000    0.0001   -0.0000    0.0000   -0.0001
   126 N5     3d2+      -0.0000    0.0000   -0.0000    0.0000    0.0000   -0.0000   -0.0001   -0.0000   -0.0000   -0.0001
   127 O7     1s        -0.9997   -0.0000    0.0000    0.0000   -0.0003   -0.0000    0.0000   -0.0001    0.0000   -0.0240
   128 O7     2s         0.0013   -0.0001    0.0002    0.0000    0.0004   -0.0001    0.0002   -0.0003    0.0000    0.6921
   129 O7     3s         0.0013   -0.0001    0.0002    0.0000   -0.0001   -0.0000    0.0001   -0.0003    0.0000   -0.0340
   130 O7     4s        -0.0001   -0.0000    0.0000   -0.0000    0.0000    0.0000    0.0000   -0.0001   -0.0000   -0.0139
   131 O7     2px       -0.0002   -0.0001   -0.0003    0.0001    0.0003   -0.0001    0.0002   -0.0001    0.0000    0.0849
   132 O7     3px        0.0002   -0.0001   -0.0004    0.0002   -0.0002   -0.0001    0.0002   -0.0001    0.0000   -0.0247
   133 O7     4px       -0.0008   -0.0000   -0.0001    0.0000    0.0000   -0.0000    0.0000    0.0000    0.0000   -0.0014
   134 O7     2py        0.0002    0.0001   -0.0002    0.0000   -0.0007   -0.0000    0.0000    0.0002   -0.0000   -0.1201
   135 O7     3py       -0.0005    0.0000   -0.0002    0.0001   -0.0004   -0.0001    0.0001    0.0001   -0.0001    0.0381
   136 O7     4py        0.0011   -0.0000    0.0001    0.0000   -0.0003   -0.0000    0.0001   -0.0000   -0.0000    0.0003
   137 O7     2pz       -0.0000    0.0000    0.0001   -0.0000    0.0001    0.0000   -0.0000   -0.0000   -0.0000    0.0173
   138 O7     3pz        0.0001    0.0001    0.0000   -0.0000    0.0001    0.0000   -0.0001   -0.0000   -0.0000   -0.0056
   139 O7     4pz       -0.0001    0.0000   -0.0000    0.0000    0.0001    0.0000   -0.0000    0.0000   -0.0000   -0.0001
   140 O7     3d2-      -0.0001    0.0000    0.0000   -0.0000   -0.0002    0.0000   -0.0000    0.0000   -0.0000   -0.0176
   141 O7     3d1-       0.0000    0.0000   -0.0000   -0.0000   -0.0000    0.0000   -0.0000    0.0000   -0.0000   -0.0035
   142 O7     3d0        0.0000    0.0000   -0.0001   -0.0000   -0.0001    0.0000    0.0000    0.0000    0.0000   -0.0103
   143 O7     3d1+       0.0000   -0.0000    0.0000   -0.0000    0.0000   -0.0000    0.0000   -0.0000   -0.0000    0.0024
   144 O7     3d2+      -0.0000    0.0000   -0.0001    0.0000   -0.0001   -0.0000    0.0000    0.0000   -0.0000   -0.0071
   145 O8     1s        -0.0000    0.9997    0.0000    0.0000    0.0000   -0.0001   -0.0002    0.0000   -0.0001   -0.0012
   146 O8     2s        -0.0001   -0.0013    0.0002    0.0002    0.0002    0.0004    0.0005    0.0000   -0.0003    0.0108
   147 O8     3s        -0.0001   -0.0013    0.0001    0.0001    0.0001    0.0002    0.0000    0.0000   -0.0002   -0.0030
   148 O8     4s        -0.0000    0.0001   -0.0000    0.0000    0.0001    0.0001    0.0000    0.0000   -0.0000   -0.0008
   149 O8     2px        0.0000   -0.0003    0.0000   -0.0001   -0.0001   -0.0004   -0.0006    0.0000    0.0000   -0.0030
   150 O8     3px       -0.0000    0.0004    0.0001   -0.0000   -0.0001   -0.0001   -0.0002    0.0001    0.0000    0.0020
   151 O8     4px       -0.0000   -0.0012    0.0001    0.0001   -0.0000   -0.0000   -0.0002    0.0000   -0.0000   -0.0001
   152 O8     2py       -0.0000    0.0001    0.0000   -0.0000    0.0001    0.0001    0.0002   -0.0000   -0.0000   -0.0021
   153 O8     3py       -0.0000   -0.0002    0.0000   -0.0000    0.0001    0.0000    0.0001   -0.0000   -0.0000   -0.0017
   154 O8     4py       -0.0000    0.0005   -0.0000   -0.0000    0.0000   -0.0000    0.0001    0.0000    0.0000   -0.0001
   155 O8     2pz       -0.0000   -0.0001   -0.0001    0.0003   -0.0000   -0.0003   -0.0003    0.0000    0.0001   -0.0003
   156 O8     3pz       -0.0001    0.0001   -0.0001    0.0003   -0.0001   -0.0002    0.0001    0.0000   -0.0000    0.0012
   157 O8     4pz       -0.0000   -0.0004   -0.0000    0.0000   -0.0000   -0.0000    0.0000    0.0000   -0.0000    0.0001
   158 O8     3d2-      -0.0000    0.0000   -0.0000   -0.0000   -0.0000   -0.0001   -0.0001    0.0000    0.0000   -0.0001
   159 O8     3d1-      -0.0000   -0.0000    0.0000    0.0000   -0.0000   -0.0000   -0.0000    0.0000    0.0000    0.0000
   160 O8     3d0       -0.0000    0.0001   -0.0000   -0.0000   -0.0000   -0.0000   -0.0001    0.0000    0.0000   -0.0002
   161 O8     3d1+      -0.0000   -0.0001    0.0000   -0.0001    0.0000    0.0000    0.0001   -0.0000   -0.0000    0.0001
   162 O8     3d2+      -0.0000   -0.0000   -0.0000    0.0000   -0.0000    0.0001    0.0001   -0.0000    0.0000    0.0003
   163 H9     1s        -0.0003    0.0001    0.0001    0.0000    0.0001   -0.0002   -0.0000   -0.0003    0.0000    0.0149
   164 H9     2s        -0.0002    0.0001    0.0000    0.0000    0.0001   -0.0002   -0.0000    0.0003    0.0000    0.0042
   165 H9     2px        0.0000    0.0000    0.0000   -0.0000    0.0000   -0.0000   -0.0000    0.0000    0.0000    0.0010
   166 H9     2py        0.0001    0.0000   -0.0000    0.0000    0.0001   -0.0000   -0.0000   -0.0000    0.0000    0.0011
   167 H9     2pz        0.0000    0.0000    0.0000    0.0000   -0.0000    0.0000   -0.0000   -0.0001    0.0000   -0.0008
   168 H10    1s        -0.0001   -0.0001    0.0002   -0.0002    0.0001   -0.0002   -0.0001   -0.0003   -0.0001    0.0140
   169 H10    2s        -0.0001   -0.0001    0.0001   -0.0001    0.0001   -0.0001   -0.0000    0.0003   -0.0001    0.0027
   170 H10    2px        0.0000   -0.0000    0.0000   -0.0000    0.0000   -0.0000   -0.0000    0.0000   -0.0000    0.0009
   171 H10    2py        0.0001   -0.0000   -0.0000   -0.0000    0.0001   -0.0000   -0.0000   -0.0000   -0.0000    0.0011
   172 H10    2pz       -0.0000   -0.0000   -0.0000   -0.0000    0.0000   -0.0000    0.0000    0.0001   -0.0000    0.0005
   173 H11    1s         0.0004   -0.0000    0.0004   -0.0002    0.0003   -0.0000   -0.0000   -0.0003   -0.0001    0.0206
   174 H11    2s         0.0002   -0.0000    0.0003   -0.0001    0.0002   -0.0000   -0.0000    0.0002   -0.0000    0.0060
   175 H11    2px        0.0000   -0.0000   -0.0001    0.0000   -0.0000    0.0000    0.0000   -0.0001    0.0000   -0.0001
   176 H11    2py        0.0000   -0.0000    0.0000   -0.0000    0.0001    0.0000    0.0000    0.0000   -0.0000    0.0020
   177 H11    2pz        0.0000    0.0000    0.0000    0.0000    0.0000   -0.0000   -0.0000    0.0000    0.0000    0.0002
   178 H12    1s         0.0011   -0.0001   -0.0009    0.0005    0.0002   -0.0003   -0.0000    0.0004   -0.0001    0.0376
   179 H12    2s         0.0006   -0.0001   -0.0006    0.0003    0.0000   -0.0001   -0.0000    0.0002   -0.0001   -0.0020
   180 H12    2px       -0.0000    0.0000    0.0002    0.0000   -0.0001    0.0000   -0.0001   -0.0000    0.0000   -0.0041
   181 H12    2py        0.0000   -0.0000   -0.0005    0.0001    0.0000   -0.0000   -0.0001    0.0000   -0.0000    0.0047
   182 H12    2pz       -0.0000    0.0000    0.0001   -0.0000   -0.0000    0.0000    0.0000   -0.0000   -0.0000   -0.0009
   183 H13    1s        -0.0003    0.0001   -0.0003    0.0003   -0.0001    0.0006   -0.0004   -0.0001   -0.0002    0.0135
   184 H13    2s        -0.0003    0.0001   -0.0001    0.0002   -0.0000   -0.0001   -0.0001   -0.0000   -0.0001   -0.0029
   185 H13    2px       -0.0000    0.0001    0.0000    0.0000   -0.0000    0.0000   -0.0000    0.0000    0.0000   -0.0004
   186 H13    2py        0.0000   -0.0000   -0.0000   -0.0000    0.0000   -0.0001   -0.0000    0.0000   -0.0000   -0.0013
   187 H13    2pz       -0.0000    0.0000    0.0000    0.0001   -0.0000   -0.0000   -0.0000    0.0000   -0.0000    0.0001
   188 H14    1s        -0.0004    0.0001   -0.0001   -0.0002   -0.0000    0.0012   -0.0005    0.0001    0.0001    0.0029
   189 H14    2s        -0.0002    0.0000    0.0000   -0.0001   -0.0000    0.0004   -0.0002    0.0001    0.0001   -0.0029
   190 H14    2px        0.0000   -0.0001    0.0000    0.0000    0.0000   -0.0000    0.0000    0.0000   -0.0000   -0.0002
   191 H14    2py        0.0000    0.0000    0.0000    0.0001    0.0000   -0.0001   -0.0000   -0.0000   -0.0000   -0.0004
   192 H14    2pz        0.0000    0.0000   -0.0000   -0.0000    0.0000   -0.0000   -0.0000   -0.0000    0.0000   -0.0006
   193 H15    1s         0.0003   -0.0013    0.0002   -0.0010   -0.0003    0.0002    0.0002    0.0001   -0.0002    0.0003
   194 H15    2s         0.0002   -0.0008    0.0001   -0.0007   -0.0002    0.0001    0.0000    0.0000   -0.0001   -0.0010
   195 H15    2px        0.0001   -0.0001    0.0000   -0.0005   -0.0001    0.0000    0.0001    0.0000   -0.0000    0.0008
   196 H15    2py       -0.0000    0.0000    0.0000    0.0002    0.0000   -0.0000   -0.0001    0.0000    0.0000   -0.0004
   197 H15    2pz        0.0000   -0.0000   -0.0000   -0.0001   -0.0000    0.0001    0.0001   -0.0000   -0.0000   -0.0001
   198 H16    1s        -0.0000    0.0005   -0.0001   -0.0004   -0.0002   -0.0002   -0.0003   -0.0000    0.0005    0.0024
   199 H16    2s        -0.0000    0.0003   -0.0001   -0.0002   -0.0001   -0.0002   -0.0002   -0.0000   -0.0001    0.0020
   200 H16    2px       -0.0000    0.0000   -0.0000    0.0000   -0.0000   -0.0000   -0.0000    0.0000   -0.0000    0.0003
   201 H16    2py       -0.0000    0.0000    0.0000   -0.0000   -0.0000   -0.0000   -0.0000   -0.0000   -0.0000    0.0001
   202 H16    2pz       -0.0000    0.0000   -0.0000   -0.0000   -0.0000   -0.0000   -0.0000   -0.0000    0.0000    0.0001
   203 H17    1s         0.0000    0.0003    0.0001   -0.0006   -0.0000    0.0001   -0.0004    0.0001    0.0005    0.0033
   204 H17    2s         0.0000    0.0002    0.0001   -0.0003   -0.0001    0.0000   -0.0003    0.0000   -0.0001    0.0025
   205 H17    2px       -0.0000   -0.0000    0.0000    0.0000    0.0000    0.0000    0.0000   -0.0000   -0.0000   -0.0001
   206 H17    2py       -0.0000   -0.0000   -0.0000    0.0000   -0.0000   -0.0000    0.0001   -0.0000    0.0000   -0.0002
   207 H17    2pz        0.0000    0.0000   -0.0000   -0.0000    0.0000   -0.0000   -0.0000    0.0000    0.0000    0.0002
   208 H18    1s        -0.0000    0.0000   -0.0001   -0.0001   -0.0001    0.0001   -0.0000    0.0001    0.0010    0.0044
   209 H18    2s        -0.0000    0.0001   -0.0001   -0.0000   -0.0001    0.0001    0.0000    0.0001    0.0001    0.0028
   210 H18    2px        0.0000   -0.0000    0.0000   -0.0000    0.0000   -0.0000    0.0000   -0.0000   -0.0001   -0.0005
   211 H18    2py        0.0000    0.0000    0.0000   -0.0000    0.0000    0.0000   -0.0000    0.0000    0.0001    0.0001
   212 H18    2pz       -0.0000   -0.0000    0.0000   -0.0000    0.0000    0.0000    0.0000   -0.0000   -0.0000   -0.0002
 
 
      Orbital                11        12        13        14        15        16        17        18        19        20
      Energy            -1.3577   -1.2576   -1.2093   -1.0317   -0.9712   -0.9144   -0.8199   -0.7749   -0.7188   -0.6956
      Occ. No.           2.0000    2.0000    2.0000    2.0000    2.0000    2.0000    2.0000    2.0000    2.0000    2.0000
 
     1 C1     1s         0.0055   -0.0062    0.0051   -0.0168   -0.0033    0.0083    0.0138    0.0001    0.0068    0.0030
     2 C1     2s         0.0285    0.1464   -0.0016    0.2712   -0.0328   -0.0668   -0.3877   -0.0943   -0.2471   -0.0699
     3 C1     3s         0.0277    0.0122    0.0205   -0.0191   -0.0127    0.0211    0.0038   -0.0111    0.0079    0.0171
     4 C1     4s         0.0075    0.0035    0.0058   -0.0050   -0.0041    0.0064    0.0029   -0.0018    0.0041    0.0029
     5 C1     2px        0.0338    0.1484    0.0003   -0.0133    0.1105   -0.0847   -0.1289   -0.0091    0.1591    0.2621
     6 C1     3px        0.0226   -0.0406    0.0328   -0.0374   -0.0284    0.0314    0.0333   -0.0126   -0.0720   -0.0580
     7 C1     4px        0.0065    0.0262    0.0016   -0.0083    0.0134   -0.0068   -0.0075   -0.0018    0.0052    0.0174
     8 C1     2py        0.0107   -0.0379    0.0287   -0.1567    0.0502    0.0070   -0.0493    0.0347    0.0605   -0.1568
     9 C1     3py        0.0253    0.0462    0.0238    0.0204   -0.0506    0.0315    0.0116    0.0078   -0.0134    0.0651
    10 C1     4py        0.0013   -0.0073    0.0062   -0.0239    0.0053    0.0010   -0.0058    0.0041   -0.0034   -0.0090
    11 C1     2pz        0.0030    0.0095   -0.0061    0.0210   -0.0020   -0.0008    0.0042   -0.0063    0.0041    0.0167
    12 C1     3pz        0.0013   -0.0125   -0.0063   -0.0001    0.0043   -0.0014   -0.0051   -0.0098    0.0042   -0.0084
    13 C1     4pz        0.0003   -0.0000   -0.0029    0.0033   -0.0001    0.0002    0.0001   -0.0022    0.0024    0.0003
    14 C1     3d2-       0.0020    0.0128   -0.0012    0.0084   -0.0103    0.0067   -0.0126    0.0065    0.0166    0.0055
    15 C1     3d1-       0.0002    0.0021   -0.0002   -0.0020    0.0018   -0.0005    0.0015    0.0006    0.0035    0.0030
    16 C1     3d0        0.0001   -0.0067    0.0010   -0.0113   -0.0013    0.0044    0.0134    0.0023    0.0052    0.0020
    17 C1     3d1+      -0.0000   -0.0002    0.0001   -0.0006    0.0022   -0.0004    0.0019    0.0001   -0.0012   -0.0026
    18 C1     3d2+       0.0025    0.0280   -0.0038    0.0017    0.0152   -0.0113   -0.0111    0.0003    0.0164    0.0176
    19 C3     1s        -0.0164   -0.0279   -0.0023    0.0311    0.0275   -0.0191    0.0066   -0.0044    0.0018   -0.0001
    20 C3     2s         0.0140    0.1799   -0.0019   -0.2860   -0.2775    0.3225   -0.1101    0.0605   -0.0462    0.0369
    21 C3     3s        -0.0472   -0.0460   -0.0109    0.0521    0.0437   -0.0095    0.0104   -0.0062    0.0091   -0.0021
    22 C3     4s        -0.0075   -0.0107   -0.0009    0.0154    0.0111   -0.0046    0.0038   -0.0025    0.0036   -0.0021
    23 C3     2px        0.0346   -0.0503    0.0266   -0.0145   -0.0460    0.0304    0.0572   -0.1202   -0.2760    0.1161
    24 C3     3px        0.0126    0.0127    0.0258   -0.0215    0.0283    0.0445   -0.0055    0.0240    0.0275   -0.0165
    25 C3     4px        0.0058   -0.0046    0.0084   -0.0046    0.0014    0.0046    0.0031   -0.0075   -0.0055    0.0036
    26 C3     2py       -0.0094   -0.0836    0.0238    0.0043   -0.0276   -0.0100   -0.1345   -0.0213   -0.0389    0.2047
    27 C3     3py        0.0092    0.0179    0.0076   -0.0386    0.0123    0.0003    0.0067   -0.0051    0.0121   -0.0339
    28 C3     4py        0.0025   -0.0020    0.0027   -0.0118   -0.0073    0.0089   -0.0090    0.0040   -0.0018    0.0081
    29 C3     2pz        0.0104    0.0158   -0.0206    0.0172    0.0370    0.0723    0.0082    0.0904    0.0072   -0.0730
    30 C3     3pz        0.0245    0.0346    0.0085   -0.0126   -0.0243    0.0426   -0.0082   -0.0152   -0.0100    0.0079
    31 C3     4pz       -0.0057    0.0112    0.0003   -0.0091   -0.0078    0.0177   -0.0022    0.0035   -0.0042    0.0001
    32 C3     3d2-       0.0014    0.0184   -0.0001   -0.0032    0.0067   -0.0004    0.0054    0.0052    0.0149   -0.0207
    33 C3     3d1-       0.0036   -0.0004   -0.0008   -0.0005   -0.0011    0.0007    0.0010   -0.0026   -0.0044   -0.0000
    34 C3     3d0       -0.0041   -0.0088    0.0055    0.0030   -0.0061   -0.0023   -0.0014   -0.0077   -0.0167    0.0111
    35 C3     3d1+      -0.0029   -0.0025   -0.0025    0.0043    0.0089    0.0037   -0.0044    0.0132    0.0100   -0.0048
    36 C3     3d2+       0.0022   -0.0082   -0.0012    0.0005   -0.0064   -0.0004   -0.0174   -0.0048   -0.0070    0.0186
    37 C4     1s        -0.0412    0.0031   -0.0063    0.0096    0.0132    0.0081    0.0007    0.0166    0.0022   -0.0022
    38 C4     2s         0.3544    0.0201    0.1115   -0.0817   -0.2294   -0.0736   -0.0063   -0.4053   -0.0617    0.0842
    39 C4     3s        -0.0152    0.0085    0.0030    0.0267    0.0081    0.0139    0.0046    0.0117    0.0031    0.0000
    40 C4     4s        -0.0002    0.0024    0.0008    0.0081    0.0034    0.0043    0.0018    0.0059    0.0024   -0.0019
    41 C4     2px        0.1010   -0.0406   -0.0625    0.0558    0.1277    0.0311   -0.0002    0.0312    0.0763   -0.0608
    42 C4     3px       -0.0450    0.0329    0.0665   -0.0452   -0.0086    0.0538   -0.0100   -0.0198   -0.0266    0.0187
    43 C4     4px        0.0276   -0.0060   -0.0070    0.0037    0.0162    0.0103   -0.0004   -0.0031    0.0001    0.0004
    44 C4     2py       -0.0328   -0.0013    0.0641   -0.0034   -0.0423   -0.0294   -0.0185   -0.0383    0.0104    0.0203
    45 C4     3py        0.0352   -0.0146   -0.0142    0.0139    0.0020    0.0089   -0.0089    0.0005   -0.0061   -0.0007
    46 C4     4py       -0.0075   -0.0003    0.0125    0.0010   -0.0063   -0.0026   -0.0065   -0.0030    0.0016    0.0016
    47 C4     2pz       -0.0091   -0.0101   -0.1624   -0.0256   -0.0347    0.0588   -0.0022    0.0987   -0.1773    0.0945
    48 C4     3pz       -0.0317   -0.0180   -0.0243    0.0220   -0.0300   -0.1301    0.0157   -0.0141    0.0715   -0.0441
    49 C4     4pz       -0.0013   -0.0034   -0.0353   -0.0038   -0.0089   -0.0063    0.0021    0.0083   -0.0078    0.0021
    50 C4     3d2-      -0.0266    0.0049    0.0069   -0.0002    0.0029    0.0036    0.0035    0.0003    0.0020   -0.0071
    51 C4     3d1-      -0.0119   -0.0009   -0.0089   -0.0003    0.0032    0.0102   -0.0026    0.0058   -0.0050    0.0051
    52 C4     3d0       -0.0092    0.0052    0.0267   -0.0025   -0.0080   -0.0094    0.0026   -0.0187    0.0071   -0.0067
    53 C4     3d1+       0.0171   -0.0057    0.0017    0.0084    0.0050   -0.0181    0.0011    0.0092    0.0063   -0.0014
    54 C4     3d2+       0.0248   -0.0011   -0.0093   -0.0036   -0.0047    0.0030   -0.0023   -0.0029   -0.0032    0.0041
    55 C6     1s        -0.0089    0.0045   -0.0346   -0.0152   -0.0352   -0.0430    0.0024    0.0087    0.0035   -0.0055
    56 C6     2s         0.0311    0.0430    0.1613    0.0608    0.2317    0.3944   -0.0298   -0.1101   -0.0301    0.0331
    57 C6     3s        -0.0128    0.0272   -0.0602   -0.0317   -0.0671   -0.0667    0.0049    0.0189    0.0086   -0.0162
    58 C6     4s        -0.0005    0.0074   -0.0102   -0.0060   -0.0145   -0.0139    0.0017    0.0054    0.0021   -0.0041
    59 C6     2px       -0.0107   -0.0131   -0.0674   -0.0148   -0.0133    0.0145   -0.0145   -0.1503    0.0365    0.0231
    60 C6     3px        0.0025   -0.0095    0.0117    0.0029    0.0099   -0.0039   -0.0005    0.0061    0.0010   -0.0060
    61 C6     4px       -0.0023   -0.0008   -0.0026    0.0026    0.0075    0.0122   -0.0016   -0.0111    0.0024    0.0007
    62 C6     2py       -0.0040    0.0090    0.0051    0.0037    0.0039    0.0083   -0.0005    0.0557   -0.0370    0.0254
    63 C6     3py       -0.0043    0.0077   -0.0017    0.0013    0.0024    0.0092   -0.0002    0.0009    0.0027   -0.0010
    64 C6     4py       -0.0006   -0.0003    0.0009   -0.0007    0.0005   -0.0006   -0.0000    0.0039   -0.0022    0.0012
    65 C6     2pz        0.0236    0.0130    0.0824    0.0130    0.0074   -0.0340    0.0130    0.0084    0.1013   -0.1152
    66 C6     3pz       -0.0023    0.0102   -0.0178   -0.0068   -0.0215   -0.0098    0.0006   -0.0011   -0.0125    0.0151
    67 C6     4pz        0.0025    0.0012   -0.0014   -0.0018   -0.0119   -0.0172    0.0020    0.0038    0.0053   -0.0053
    68 C6     3d2-      -0.0005    0.0000   -0.0018   -0.0007   -0.0019   -0.0013   -0.0002   -0.0016   -0.0019    0.0023
    69 C6     3d1-       0.0001    0.0001    0.0026    0.0002    0.0002   -0.0006    0.0006    0.0065   -0.0028    0.0002
    70 C6     3d0        0.0025   -0.0000    0.0079    0.0015    0.0017   -0.0020    0.0009   -0.0063    0.0086   -0.0078
    71 C6     3d1+      -0.0042   -0.0016   -0.0206   -0.0041   -0.0049    0.0026   -0.0021   -0.0151   -0.0029    0.0087
    72 C6     3d2+       0.0020    0.0001    0.0088    0.0020    0.0038    0.0002    0.0009    0.0066    0.0032   -0.0057
    73 C19    1s         0.0013   -0.0100    0.0029   -0.0582    0.0416   -0.0181   -0.0130   -0.0046   -0.0093    0.0018
    74 C19    2s         0.0100    0.0012    0.0053    0.3107   -0.2756    0.1403    0.0740    0.0438    0.0954    0.0007
    75 C19    3s         0.0112   -0.0278    0.0150   -0.1147    0.0763   -0.0302   -0.0345   -0.0098   -0.0176    0.0111
    76 C19    4s         0.0041   -0.0033    0.0047   -0.0242    0.0172   -0.0070   -0.0093   -0.0029   -0.0054    0.0031
    77 C19    2px        0.0047    0.0245   -0.0013    0.0551    0.0041   -0.0255   -0.0452   -0.0311   -0.0677    0.1347
    78 C19    3px        0.0021   -0.0013    0.0022    0.0026    0.0047   -0.0014    0.0026    0.0051    0.0142   -0.0130
    79 C19    4px       -0.0010    0.0006   -0.0006   -0.0087    0.0127   -0.0079   -0.0021   -0.0033   -0.0061    0.0029
    80 C19    2py        0.0072    0.0080    0.0059    0.0469   -0.0080   -0.0141   -0.0629   -0.0482   -0.2148   -0.0648
    81 C19    3py        0.0083   -0.0024    0.0091   -0.0297    0.0170   -0.0007    0.0130    0.0004    0.0220    0.0132
    82 C19    4py        0.0003    0.0010    0.0003   -0.0127    0.0141   -0.0080   -0.0124   -0.0034   -0.0084   -0.0019
    83 C19    2pz        0.0022   -0.0014    0.0005   -0.0078    0.0038    0.0003    0.0098    0.0069    0.0262    0.0042
    84 C19    3pz        0.0018   -0.0001    0.0006   -0.0002    0.0005   -0.0019    0.0014    0.0006   -0.0056   -0.0012
    85 C19    4pz       -0.0001    0.0003    0.0002    0.0013   -0.0018    0.0004    0.0018    0.0011    0.0006    0.0001
    86 C19    3d2-       0.0005    0.0059   -0.0009    0.0112   -0.0019   -0.0022   -0.0078   -0.0043   -0.0150   -0.0012
    87 C19    3d1-      -0.0001    0.0004   -0.0001   -0.0023    0.0011   -0.0001    0.0010    0.0011    0.0038    0.0002
    88 C19    3d0       -0.0003   -0.0010    0.0001   -0.0088    0.0033    0.0006    0.0033    0.0030    0.0085   -0.0083
    89 C19    3d1+      -0.0004   -0.0005   -0.0000   -0.0014   -0.0000    0.0004    0.0012    0.0006    0.0011   -0.0020
    90 C19    3d2+       0.0002    0.0024   -0.0004   -0.0068    0.0044   -0.0009    0.0030    0.0028    0.0133    0.0048
    91 N2     1s        -0.0041   -0.0402    0.0054   -0.0046   -0.0047    0.0023   -0.0049    0.0008    0.0031   -0.0013
    92 N2     2s         0.0509    0.5905   -0.0716   -0.0388    0.2084   -0.0923    0.1444    0.0214    0.1275   -0.0585
    93 N2     3s        -0.0060   -0.0732    0.0129   -0.0151    0.0002    0.0020   -0.0104    0.0016    0.0144   -0.0037
    94 N2     4s        -0.0017   -0.0240    0.0039   -0.0019   -0.0025    0.0018   -0.0036   -0.0006    0.0009   -0.0003
    95 N2     2px        0.0286   -0.0304    0.0245   -0.1519   -0.0686    0.1174    0.3573    0.0145   -0.0951   -0.2909
    96 N2     3px        0.0310   -0.0072    0.0213    0.0148    0.0357   -0.0471   -0.1115   -0.0359    0.0056    0.0613
    97 N2     4px        0.0056    0.0022    0.0025   -0.0070    0.0062   -0.0031    0.0006   -0.0045   -0.0011    0.0068
    98 N2     2py        0.0068   -0.0054    0.0061   -0.1117   -0.0567    0.1080   -0.2255    0.1216    0.2705   -0.2002
    99 N2     3py       -0.0031   -0.0488   -0.0016    0.0440    0.0605   -0.0514    0.0434   -0.0401   -0.0581    0.0231
   100 N2     4py       -0.0011   -0.0154    0.0001    0.0003    0.0051   -0.0057   -0.0093   -0.0034   -0.0009    0.0049
   101 N2     2pz       -0.0077    0.0178   -0.0063    0.0074    0.0204   -0.0066    0.0561    0.0186   -0.0150   -0.0261
   102 N2     3pz       -0.0106    0.0030    0.0009   -0.0040   -0.0021   -0.0071   -0.0058    0.0078    0.0056    0.0055
   103 N2     4pz       -0.0014    0.0037    0.0005   -0.0002    0.0010    0.0000    0.0026    0.0021   -0.0008    0.0008
   104 N2     3d2-       0.0014    0.0071   -0.0003   -0.0023   -0.0091    0.0088   -0.0055    0.0040    0.0065   -0.0031
   105 N2     3d1-      -0.0010   -0.0018   -0.0003   -0.0002   -0.0008    0.0020   -0.0047    0.0029    0.0032   -0.0020
   106 N2     3d0       -0.0016   -0.0159    0.0021    0.0016   -0.0036    0.0013    0.0007   -0.0004   -0.0021   -0.0007
   107 N2     3d1+      -0.0005    0.0006   -0.0006   -0.0010    0.0009    0.0000    0.0029    0.0008   -0.0013   -0.0020
   108 N2     3d2+       0.0008    0.0057   -0.0007    0.0096    0.0063   -0.0093   -0.0201   -0.0054   -0.0014    0.0148
   109 N5     1s        -0.0199   -0.0043   -0.0422   -0.0025    0.0017    0.0023   -0.0004   -0.0038    0.0033   -0.0026
   110 N5     2s         0.1362    0.0222    0.5753    0.0393   -0.0092   -0.2258    0.0357    0.1715    0.0615   -0.0912
   111 N5     3s        -0.0491   -0.0086   -0.0789   -0.0089   -0.0008   -0.0161    0.0014    0.0003    0.0139   -0.0129
   112 N5     4s        -0.0117   -0.0016   -0.0262   -0.0036   -0.0016   -0.0018    0.0001   -0.0017    0.0017   -0.0014
   113 N5     2px        0.0325   -0.0354   -0.0054    0.0405    0.0695    0.0680    0.0002   -0.2499    0.1852   -0.1381
   114 N5     3px        0.0003   -0.0418   -0.0415    0.0080   -0.0275   -0.0801    0.0072    0.0571   -0.0306    0.0290
   115 N5     4px       -0.0048   -0.0060   -0.0110    0.0003    0.0004   -0.0053    0.0015   -0.0084    0.0019   -0.0005
   116 N5     2py       -0.0208   -0.0031   -0.0054    0.0002    0.0145    0.0080    0.0076    0.1568   -0.0910    0.0463
   117 N5     3py        0.0029   -0.0014    0.0142   -0.0048    0.0080    0.0024    0.0039   -0.0369    0.0139   -0.0110
   118 N5     4py        0.0001   -0.0005    0.0045   -0.0000    0.0023   -0.0009    0.0007    0.0028   -0.0010    0.0006
   119 N5     2pz        0.0171    0.0333    0.0146   -0.0552   -0.1552   -0.1509   -0.0034   -0.2686    0.1075   -0.0064
   120 N5     3pz       -0.0213    0.0475    0.0015    0.0066    0.0305    0.0794    0.0026    0.0741   -0.0175   -0.0084
   121 N5     4pz        0.0063    0.0080   -0.0029   -0.0027   -0.0058    0.0045    0.0012    0.0003   -0.0011   -0.0010
   122 N5     3d2-      -0.0019    0.0001   -0.0053   -0.0011   -0.0006    0.0032   -0.0005   -0.0055    0.0005    0.0001
   123 N5     3d1-      -0.0037   -0.0007   -0.0068    0.0008    0.0037    0.0063   -0.0004    0.0062   -0.0029    0.0009
   124 N5     3d0        0.0034    0.0015    0.0147   -0.0008   -0.0038   -0.0020   -0.0007   -0.0154    0.0054   -0.0019
   125 N5     3d1+       0.0040   -0.0017   -0.0049   -0.0014   -0.0066   -0.0123    0.0003   -0.0044    0.0021    0.0012
   126 N5     3d2+       0.0003    0.0004    0.0072    0.0017    0.0031    0.0004    0.0002    0.0101   -0.0025    0.0005
   127 O7     1s         0.0005    0.0024   -0.0008   -0.0044    0.0021    0.0004    0.0137    0.0014    0.0136    0.0219
   128 O7     2s        -0.0500   -0.3036    0.0306   -0.2076    0.0491    0.0265    0.3550    0.0239    0.2249    0.3560
   129 O7     3s        -0.0007   -0.0092   -0.0015   -0.0208    0.0091    0.0014    0.0431    0.0021    0.0386    0.0625
   130 O7     4s         0.0005    0.0001   -0.0008   -0.0037    0.0022    0.0002    0.0082   -0.0003    0.0077    0.0132
   131 O7     2px       -0.0047   -0.0004   -0.0030   -0.0066    0.0278   -0.0268   -0.1726   -0.0069   -0.0836   -0.2174
   132 O7     3px       -0.0006    0.0004   -0.0023   -0.0092   -0.0002    0.0037    0.0209    0.0013    0.0047    0.0181
   133 O7     4px        0.0002    0.0005   -0.0002   -0.0014   -0.0011    0.0013    0.0015    0.0004    0.0000    0.0011
   134 O7     2py        0.0073    0.0419   -0.0043   -0.0339    0.0218    0.0067    0.1612    0.0288    0.2605    0.4169
   135 O7     3py       -0.0029    0.0008   -0.0015    0.0123   -0.0003    0.0010   -0.0251   -0.0070   -0.0315   -0.0441
   136 O7     4py       -0.0007   -0.0014    0.0001   -0.0009    0.0003    0.0012   -0.0032   -0.0005   -0.0041   -0.0068
   137 O7     2pz       -0.0023   -0.0010   -0.0000    0.0052    0.0021   -0.0028   -0.0221   -0.0025   -0.0311   -0.0555
   138 O7     3pz       -0.0016   -0.0003    0.0008   -0.0002    0.0023   -0.0003    0.0046    0.0010    0.0029    0.0056
   139 O7     4pz       -0.0006   -0.0000    0.0003    0.0007    0.0009    0.0000    0.0008   -0.0001    0.0003    0.0008
   140 O7     3d2-       0.0009    0.0033   -0.0003    0.0010   -0.0023    0.0024    0.0120    0.0011    0.0087    0.0177
   141 O7     3d1-       0.0002    0.0013   -0.0001    0.0000    0.0004   -0.0003    0.0011    0.0001    0.0026    0.0046
   142 O7     3d0        0.0005    0.0042   -0.0007    0.0014    0.0002   -0.0001    0.0050    0.0003    0.0058    0.0116
   143 O7     3d1+      -0.0002   -0.0004    0.0000   -0.0002    0.0006   -0.0003   -0.0016   -0.0001   -0.0008   -0.0025
   144 O7     3d2+       0.0006    0.0050   -0.0007   -0.0026    0.0044   -0.0022   -0.0006    0.0013    0.0116    0.0129
   145 O8     1s        -0.0235    0.0023    0.0043    0.0006    0.0025    0.0006    0.0001    0.0122    0.0021   -0.0018
   146 O8     2s         0.6694   -0.1436   -0.3165    0.0972    0.1614    0.0134   -0.0083    0.3493    0.0471   -0.0272
   147 O8     3s        -0.0278   -0.0021   -0.0075    0.0054    0.0128    0.0010   -0.0011    0.0443    0.0082   -0.0058
   148 O8     4s        -0.0121    0.0004    0.0003    0.0003    0.0014   -0.0002   -0.0008    0.0090    0.0021   -0.0013
   149 O8     2px       -0.1253    0.0141    0.0416    0.0142    0.0216   -0.0071   -0.0051    0.1534    0.0597   -0.0354
   150 O8     3px        0.0365   -0.0063   -0.0054    0.0025   -0.0118   -0.0087   -0.0006   -0.0245   -0.0086    0.0053
   151 O8     4px        0.0003   -0.0011   -0.0021    0.0017   -0.0001   -0.0010    0.0003   -0.0029   -0.0019    0.0009
   152 O8     2py        0.0518   -0.0168   -0.0147    0.0040   -0.0039   -0.0084   -0.0010   -0.0748   -0.0018    0.0050
   153 O8     3py       -0.0189    0.0012   -0.0006    0.0024    0.0065   -0.0009    0.0011    0.0119    0.0016   -0.0016
   154 O8     4py       -0.0006    0.0001   -0.0001    0.0007    0.0008   -0.0005   -0.0000    0.0014    0.0006   -0.0001
   155 O8     2pz       -0.0451    0.0132   -0.0061   -0.0168   -0.0108    0.0431   -0.0035    0.0857   -0.0896    0.0495
[...]
AIVX     1  Mu1.0001  In1.029 Se1.045               0.08226964      0.00033199     -0.00078421     -0.00000026
AIVX     1  Mu1.0001  In1.021 Se1.046               0.25518163      0.00028734     -0.00018795     -0.00000005
AIVX     1  Mu1.0001  In1.022 Se1.046               0.23084399     -0.00122385      0.00200994     -0.00000246
AIVX     1  Mu1.0001  In1.024 Se1.046               0.16947227     -0.00026226      0.00072601     -0.00000019
AIVX     1  Mu1.0001  In1.025 Se1.046               0.26392712      0.00036235     -0.00049794     -0.00000018
AIVX     1  Mu1.0001  In1.026 Se1.046               0.24849588     -0.00022926      0.00038158     -0.00000009
AIVX     1  Mu1.0001  In1.027 Se1.046               0.15498256     -0.00046411      0.00047401     -0.00000022
AIVX     1  Mu1.0001  In1.028 Se1.046               0.12291839     -0.00066779      0.00127290     -0.00000085
AIVX     1  Mu1.0001  In1.029 Se1.046               0.09256551      0.00036017     -0.00075324     -0.00000027
AIVX     1  Mu1.0001  In1.021 Se1.047               0.23870488      0.00065257     -0.00101647     -0.00000066
AIVX     1  Mu1.0001  In1.022 Se1.047               0.21436725     -0.00236739      0.00446254     -0.00001056
AIVX     1  Mu1.0001  In1.023 Se1.047               0.28556951      0.00146341     -0.00263286     -0.00000385
AIVX     1  Mu1.0001  In1.024 Se1.047               0.15299552     -0.00007912      0.00012244     -0.00000001
AIVX     1  Mu1.0001  In1.025 Se1.047               0.24745037     -0.00045655      0.00087994     -0.00000040
AIVX     1  Mu1.0001  In1.026 Se1.047               0.23201914     -0.00045637      0.00091943     -0.00000042
AIVX     1  Mu1.0001  In1.027 Se1.047               0.13850581     -0.00075236      0.00161545     -0.00000122
AIVX     1  Mu1.0001  In1.028 Se1.047               0.10644164      0.00057176     -0.00143541     -0.00000082
AIVX     1  Mu1.0001  In1.029 Se1.047               0.07608877     -0.00059602      0.00161966     -0.00000097
AIVX     1  Mu1.0001  In1.021 Se1.048               0.26678758     -0.00091640      0.00108560     -0.00000099
AIVX     1  Mu1.0001  In1.022 Se1.048               0.24244994     -0.00059284      0.00123821     -0.00000073
AIVX     1  Mu1.0001  In1.024 Se1.048               0.18107822     -0.00043475      0.00080418     -0.00000035
AIVX     1  Mu1.0001  In1.025 Se1.048               0.27553307      0.00125397     -0.00245299     -0.00000308
AIVX     1  Mu1.0001  In1.026 Se1.048               0.26010183      0.00148680     -0.00252822     -0.00000376
AIVX     1  Mu1.0001  In1.027 Se1.048               0.16658851      0.00058322     -0.00106622     -0.00000062
AIVX     1  Mu1.0001  In1.028 Se1.048               0.13452434      0.00070416     -0.00089789     -0.00000063
AIVX     1  Mu1.0001  In1.029 Se1.048               0.10417146     -0.00055126      0.00102926     -0.00000057
AIVX     1  Mu1.0001  In1.021 Se1.049               0.27241431      0.00008138      0.00006889      0.00000001
AIVX     1  Mu1.0001  In1.022 Se1.049               0.24807668     -0.00032559      0.00062671     -0.00000020
AIVX     1  Mu1.0001  In1.024 Se1.049               0.18670496      0.00012848     -0.00012704     -0.00000002
AIVX     1  Mu1.0001  In1.025 Se1.049               0.28115981      0.00056664     -0.00108632     -0.00000062
AIVX     1  Mu1.0001  In1.026 Se1.049               0.26572857      0.00093376     -0.00141951     -0.00000133
AIVX     1  Mu1.0001  In1.027 Se1.049               0.17221524     -0.00004129     -0.00030956      0.00000001
AIVX     1  Mu1.0001  In1.028 Se1.049               0.14015108     -0.00053305      0.00099462     -0.00000053
AIVX     1  Mu1.0001  In1.029 Se1.049               0.10979820     -0.00011242      0.00055933     -0.00000006
AIVX     1  Mu1.0001  In1.021 Se1.050               0.29441954     -0.00065912      0.00146668     -0.00000097
AIVX     1  Mu1.0001  In1.022 Se1.050               0.27008191      0.00068718     -0.00156790     -0.00000108
AIVX     1  Mu1.0001  In1.024 Se1.050               0.20871018     -0.00021235      0.00043447     -0.00000009
AIVX     1  Mu1.0001  In1.026 Se1.050               0.28773380     -0.00308932      0.00505449     -0.00001561
AIVX     1  Mu1.0001  In1.027 Se1.050               0.19422047     -0.00019384     -0.00012509      0.00000002
AIVX     1  Mu1.0001  In1.028 Se1.050               0.16215630     -0.00032718      0.00011771     -0.00000004
AIVX     1  Mu1.0001  In1.029 Se1.050               0.13180343      0.00012947     -0.00008572     -0.00000001
AIVX     1  Mu1.0001  In1.022 Se1.051               0.28088945      0.00356320     -0.00572807     -0.00002041
AIVX     1  Mu1.0001  In1.024 Se1.051               0.21951773      0.00002381      0.00013327      0.00000000
AIVX     1  Mu1.0001  In1.026 Se1.051               0.29854134      0.00104375     -0.00139766     -0.00000146
AIVX     1  Mu1.0001  In1.027 Se1.051               0.20502802      0.00040740     -0.00128207     -0.00000052
AIVX     1  Mu1.0001  In1.028 Se1.051               0.17296385     -0.00155615      0.00255765     -0.00000398
AIVX     1  Mu1.0001  In1.029 Se1.051               0.14261097      0.00141040     -0.00302258     -0.00000426
AIVX     1  Mu1.0001  In1.024 Se1.052               0.23983999     -0.00002182     -0.00002239      0.00000000
AIVX     1  Mu1.0001  In1.027 Se1.052               0.22535028      0.00063922     -0.00058269     -0.00000037
AIVX     1  Mu1.0001  In1.028 Se1.052               0.19328611     -0.00015550      0.00098698     -0.00000015
AIVX     1  Mu1.0001  In1.029 Se1.052               0.16293324      0.00056979     -0.00147298     -0.00000084
AIVX     1  Mu1.0001  In1.024 Se1.053               0.27550739     -0.00011003      0.00038454     -0.00000004
AIVX     1  Mu1.0001  In1.027 Se1.053               0.26101768      0.00023709     -0.00013255     -0.00000003
AIVX     1  Mu1.0001  In1.028 Se1.053               0.22895351     -0.00013221      0.00007477     -0.00000001
AIVX     1  Mu1.0001  In1.029 Se1.053               0.19860063      0.00122295     -0.00265622     -0.00000325
AIVX     1  Mu1.0001  In1.024 Se1.054               0.28929392     -0.00010565      0.00038786     -0.00000004
AIVX     1  Mu1.0001  In1.027 Se1.054               0.27480421     -0.00045996      0.00085826     -0.00000039
AIVX     1  Mu1.0001  In1.028 Se1.054               0.24274004      0.00011246     -0.00014226     -0.00000002
AIVX     1  Mu1.0001  In1.029 Se1.054               0.21238716     -0.00027235      0.00033745     -0.00000009
AIVX     1  Mu1.0001  In1.024 Se1.055               0.29672217     -0.00091541      0.00174459     -0.00000160
AIVX     1  Mu1.0001  In1.027 Se1.055               0.28223246     -0.00001911      0.00022510     -0.00000000
AIVX     1  Mu1.0001  In1.028 Se1.055               0.25016829      0.00042861     -0.00039451     -0.00000017
AIVX     1  Mu1.0001  In1.029 Se1.055               0.21981542     -0.00055562      0.00102516     -0.00000057
AIVX     1  Mu1.0001  In1.028 Se1.056               0.26883889      0.00018594     -0.00035920     -0.00000007
AIVX     1  Mu1.0001  In1.029 Se1.056               0.23848601      0.00071380     -0.00158498     -0.00000113
AIVX     1  Mu1.0001  In1.024 Se1.057               0.26150190     -0.00013051     -0.00004841      0.00000001
AIVX     1  Mu1.0001  In1.027 Se1.057               0.24701219     -0.00032624      0.00082375     -0.00000027
AIVX     1  Mu1.0001  In1.028 Se1.057               0.21494803     -0.00008942      0.00055021     -0.00000005
AIVX     1  Mu1.0001  In1.029 Se1.057               0.18459515      0.00044741     -0.00108234     -0.00000048
AIVX     1  Mu1.0001  In1.028 Se1.058               0.29239864      0.00062147     -0.00067596     -0.00000042
AIVX     1  Mu1.0001  In1.029 Se1.058               0.26204577      0.00004889     -0.00013055     -0.00000001
AIVX     1  Mu1.0001  In1.028 Se1.059               0.29665849      0.00160509     -0.00223060     -0.00000358
AIVX     1  Mu1.0001  In1.029 Se1.059               0.26630562     -0.00032715      0.00001336     -0.00000000
AIVX     1  Mu1.0001  In1.029 Se1.060               0.28050114      0.00098820     -0.00194570     -0.00000192
AIVX     1  Mu1.0001  In1.029 Se1.061               0.29486695     -0.00078122      0.00131701     -0.00000103
--
 
   (Skipping property calculation,
    use PROP keyword to activate)
--
 
  Total CASPT2 energies:
::    CASPT2 Root  1     Total energy:   -455.37922827
::    CASPT2 Root  2     Total energy:   -455.16626644
::    CASPT2 Root  3     Total energy:   -455.17550943
::    CASPT2 Root  4     Total energy:   -455.13722637
::    CASPT2 Root  5     Total energy:   -455.12582507
::    CASPT2 Root  6     Total energy:   -455.11151612
::    CASPT2 Root  7     Total energy:   -455.08280959
 
++ Multi-State CASPT2 section:
********************************************************************************
  MULTI-STATE CASPT2 SECTION
--------------------------------------------------------------------------------
 
  Output diagonal energies have been shifted. Add   -455.000000000000     
 
  Effective Hamiltonian matrix (Symmetric):
 
                1               2               3               4               5
   1        -0.37922827
   2        -0.00026890     -0.16626644
   3        -0.00096811      0.00012994     -0.17550943
   4         0.01501575      0.00008151      0.00106932     -0.13722637
   5         0.00887341      0.00015644      0.00178666      0.00498831     -0.12582507
   6         0.01796090      0.00357942     -0.00334327     -0.00597330     -0.01249189
   7         0.01715724      0.00048074     -0.00097895     -0.00617346     -0.01366284
 
                6               7
   6        -0.11151612
   7        -0.01804713     -0.08280959
 
       Total MS-CASPT2 energies:
::    MS-CASPT2 Root  1     Total energy:   -455.38298167
::    MS-CASPT2 Root  2     Total energy:   -455.17575772
::    MS-CASPT2 Root  3     Total energy:   -455.16654877
::    MS-CASPT2 Root  4     Total energy:   -455.13876506
::    MS-CASPT2 Root  5     Total energy:   -455.13836282
::    MS-CASPT2 Root  6     Total energy:   -455.10331278
::    MS-CASPT2 Root  7     Total energy:   -455.07265249
 
       Eigenvectors:
           -0.99242197     -0.00008143     -0.01217709      0.02839066      0.11299046
           -0.00263252     -0.03479102      0.99535292      0.04627622      0.06346207
           -0.00381780      0.99751559      0.03861727     -0.01617796     -0.01011816
            0.06323439     -0.01420357     -0.01309271     -0.57928477      0.77382726
            0.04001229     -0.01554203     -0.03300280      0.72248774      0.34612077
            0.07315211      0.05460933     -0.07566972      0.31249732      0.43370909
            0.06423646      0.01807625     -0.02542577      0.20390390      0.27639024
 
            0.02913033      0.02299772
            0.04241450     -0.00934330
           -0.05560802     -0.00065044
           -0.23977666     -0.06128576
           -0.57583445     -0.15393128
            0.75638520     -0.35786025
            0.18183359      0.91862323
 
--
 
  THE ORIGINAL CI ARRAYS ARE NOW MIXED AS LINEAR
  COMBINATIONS, GIVEN BY THE EIGENVECTORS.
  A NEW JOBIPH FILE NAMED 'JOBMIX' IS PREPARED.
********************************************************************************
 
++ Mixed CI coefficients:
  The CI coefficients for the MIXED state nr.   1
--------------------------------------------------------------------------------
 CI COEFFICIENTS LARGER THAN  0.50D-01
  Occupation of active orbitals, and spin coupling
  of open shells. (u,d: Spin up or down).
  SGUGA info is (Midvert:IsyUp:UpperWalk/LowerWalk)
        Conf  SGUGA info        Occupation    Coefficient         Weight
           1  ( 1:1:   1/   1)   22222200       -0.970047       0.940992
           4  ( 1:1:   4/   1)   22222020        0.094084       0.008852
          64  ( 2:1:   4/   3)   2u22220d        0.077420       0.005994
          81  ( 2:1:   1/   4)   u22222d0        0.101020       0.010205
         105  ( 3:1:   5/   1)   22202202        0.097259       0.009459
         175  ( 3:1:   5/   8)   20222202        0.085075       0.007238
         191  ( 3:1:   1/  10)   02222220        0.077450       0.005999
 
  The CI coefficients for the MIXED state nr.   2
--------------------------------------------------------------------------------
 CI COEFFICIENTS LARGER THAN  0.50D-01
  Occupation of active orbitals, and spin coupling
  of open shells. (u,d: Spin up or down).
  SGUGA info is (Midvert:IsyUp:UpperWalk/LowerWalk)
        Conf  SGUGA info        Occupation    Coefficient         Weight
          21  ( 2:1:   1/   1)   222u22d0       -0.310797       0.096595
          41  ( 2:1:   1/   2)   22u222d0       -0.893799       0.798876
          42  ( 2:1:   2/   2)   22u22d20       -0.174251       0.030363
         112  ( 3:1:   2/   2)   22ud22ud       -0.063414       0.004021
         161  ( 3:1:   1/   7)   u2d22220       -0.131747       0.017357
         201  ( 4:1:   1/   1)   22uu22dd        0.110616       0.012236
         219  ( 4:1:   1/   4)   2uu222dd        0.062551       0.003913
         238  ( 5:1:   2/   1)   22u022d2       -0.078555       0.006171
         274  ( 5:1:   2/  10)   2uud22d2       -0.050179       0.002518
         294  ( 5:1:   2/  15)   20u222d2        0.089169       0.007951
 
  The CI coefficients for the MIXED state nr.   3
--------------------------------------------------------------------------------
 CI COEFFICIENTS LARGER THAN  0.50D-01
  Occupation of active orbitals, and spin coupling
  of open shells. (u,d: Spin up or down).
  SGUGA info is (Midvert:IsyUp:UpperWalk/LowerWalk)
        Conf  SGUGA info        Occupation    Coefficient         Weight
           3  ( 1:1:   3/   1)   2222u2d0        0.113101       0.012792
           8  ( 1:1:   8/   1)   2222u20d        0.950310       0.903089
          13  ( 1:1:  13/   1)   2222u02d       -0.084426       0.007128
          24  ( 2:1:   4/   1)   222u220d       -0.091503       0.008373
          34  ( 2:1:  14/   1)   222ud202       -0.088794       0.007884
          54  ( 2:1:  14/   2)   22u2d202        0.063846       0.004076
          74  ( 2:1:  14/   3)   2u22d202        0.181648       0.032996
          88  ( 2:1:   8/   4)   u222u2dd        0.072115       0.005201
         194  ( 3:1:   4/  10)   0222u22d        0.079470       0.006315
 
  The CI coefficients for the MIXED state nr.   4
--------------------------------------------------------------------------------
 CI COEFFICIENTS LARGER THAN  0.50D-01
  Occupation of active orbitals, and spin coupling
  of open shells. (u,d: Spin up or down).
  SGUGA info is (Midvert:IsyUp:UpperWalk/LowerWalk)
        Conf  SGUGA info        Occupation    Coefficient         Weight
           2  ( 1:1:   2/   1)   22222ud0        0.815732       0.665419
          24  ( 2:1:   4/   1)   222u220d        0.453482       0.205646
          27  ( 2:1:   7/   1)   222u2udd        0.093167       0.008680
          41  ( 2:1:   1/   2)   22u222d0        0.059154       0.003499
          67  ( 2:1:   7/   3)   2u222udd       -0.058018       0.003366
          82  ( 2:1:   2/   4)   u2222d20        0.207221       0.042941
         105  ( 3:1:   5/   1)   22202202        0.086499       0.007482
         106  ( 3:1:   6/   1)   22202ud2       -0.070930       0.005031
         125  ( 3:1:   5/   3)   2u2d2202        0.119125       0.014191
         126  ( 3:1:   6/   3)   2u2d2ud2        0.050381       0.002538
         175  ( 3:1:   5/   8)   20222202       -0.051107       0.002612
         176  ( 3:1:   6/   8)   20222ud2       -0.079415       0.006307
         191  ( 3:1:   1/  10)   02222220        0.060171       0.003621
 
  The CI coefficients for the MIXED state nr.   5
--------------------------------------------------------------------------------
 CI COEFFICIENTS LARGER THAN  0.50D-01
  Occupation of active orbitals, and spin coupling
  of open shells. (u,d: Spin up or down).
  SGUGA info is (Midvert:IsyUp:UpperWalk/LowerWalk)
        Conf  SGUGA info        Occupation    Coefficient         Weight
           2  ( 1:1:   2/   1)   22222ud0       -0.431406       0.186111
           4  ( 1:1:   4/   1)   22222020        0.062363       0.003889
           8  ( 1:1:   8/   1)   2222u20d        0.069395       0.004816
          21  ( 2:1:   1/   1)   222u22d0        0.240409       0.057796
          24  ( 2:1:   4/   1)   222u220d        0.771323       0.594939
          29  ( 2:1:   9/   1)   222u202d       -0.069070       0.004771
          41  ( 2:1:   1/   2)   22u222d0       -0.099808       0.009962
          81  ( 2:1:   1/   4)   u22222d0        0.106969       0.011442
          82  ( 2:1:   2/   4)   u2222d20       -0.094404       0.008912
         105  ( 3:1:   5/   1)   22202202        0.148594       0.022080
         125  ( 3:1:   5/   3)   2u2d2202        0.202295       0.040923
         175  ( 3:1:   5/   8)   20222202       -0.092078       0.008478
         213  ( 4:1:   1/   3)   u22u22dd        0.070021       0.004903
         269  ( 5:1:   1/   9)   022u222d        0.066853       0.004469
 
  The CI coefficients for the MIXED state nr.   6
--------------------------------------------------------------------------------
 CI COEFFICIENTS LARGER THAN  0.50D-01
  Occupation of active orbitals, and spin coupling
  of open shells. (u,d: Spin up or down).
  SGUGA info is (Midvert:IsyUp:UpperWalk/LowerWalk)
        Conf  SGUGA info        Occupation    Coefficient         Weight
           2  ( 1:1:   2/   1)   22222ud0       -0.175426       0.030774
           3  ( 1:1:   3/   1)   2222u2d0        0.118912       0.014140
          21  ( 2:1:   1/   1)   222u22d0       -0.858991       0.737866
          22  ( 2:1:   2/   1)   222u2d20        0.065791       0.004328
          24  ( 2:1:   4/   1)   222u220d        0.187015       0.034975
          41  ( 2:1:   1/   2)   22u222d0        0.278588       0.077611
         122  ( 3:1:   2/   3)   2u2d22ud       -0.145308       0.021114
         207  ( 4:1:   1/   2)   2u2u22dd        0.201246       0.040500
         262  ( 5:1:   2/   7)   202u22d2        0.124087       0.015398
 
  The CI coefficients for the MIXED state nr.   7
--------------------------------------------------------------------------------
 CI COEFFICIENTS LARGER THAN  0.50D-01
  Occupation of active orbitals, and spin coupling
  of open shells. (u,d: Spin up or down).
  SGUGA info is (Midvert:IsyUp:UpperWalk/LowerWalk)
        Conf  SGUGA info        Occupation    Coefficient         Weight
           3  ( 1:1:   3/   1)   2222u2d0       -0.873607       0.763189
           8  ( 1:1:   8/   1)   2222u20d        0.113125       0.012797
          21  ( 2:1:   1/   1)   222u22d0       -0.094816       0.008990
          24  ( 2:1:   4/   1)   222u220d        0.060928       0.003712
          26  ( 2:1:   6/   1)   222ud2ud        0.230391       0.053080
          28  ( 2:1:   8/   1)   222uu2dd        0.318242       0.101278
          41  ( 2:1:   1/   2)   22u222d0        0.051490       0.002651
          46  ( 2:1:   6/   2)   22u2d2ud        0.092961       0.008642
          48  ( 2:1:   8/   2)   22u2u2dd        0.093325       0.008710
         127  ( 3:1:   7/   3)   2u2du2d2        0.090599       0.008208
         177  ( 3:1:   7/   8)   2022u2d2        0.079941       0.006391
 
--
 
--- Stop Module: caspt2 at Tue Jun 10 18:07:37 2025 /rc=_RC_ALL_IS_WELL_ ---
*** files: xmldump
    saved to directory /home/pcaah4/diamide_project
--- Module caspt2 spent 6 minutes 55 seconds ---

.##################.
.# Happy landing! #.
.##################.

    Timing: Wall=659.28 User=572.99 System=76.77
******************************************************
*** WorkDir at /srv/COMMUNAL_SCRATCH/12396 cleaned ***
******************************************************
