   This run of MOLCAS is using the pymolcas driver

                             OPE
                             OPE          NMOL  CASOP  ENMOLC A   SO
                 OPE        NMOLC        AS  OP EN  MO LC     AS  OP
                OPENM       OL CA        SO  PE NM  OL CA     SOP EN
                OP EN      MO   LC       AS  OP ENMOL  CASO   PENMOL
                OP  EN     MO   LC       AS  OP EN     MO     LC ASO
               OP   E  NMOL  C  AS       OP  EN MO     LC     AS  OP
               OP  E   NMO   LC AS        OPEN  MO     LCASOP EN   M
               O  PEN   MO  LCA  SO
            OPE   NMO   L   CAS    OP
        OPENMOL  CASOP     ENMOL   CASOPE
     OPENMOLCA   SOPENMOLCASOPEN   MOLCASOPE
    OPENMOLCAS   OP           EN   MOL    CAS
    OPENMOLCAS       OP  ENM        O     LCA
    OPENMOLCAS    OPEN  MOLCASO     P  E  NMO
    OPENMOLCAS     OP               E  N  MOL
    OPENMOLCA   SO           PENM   O  L  CAS    OPEN    MO    LCAS
    OPENMOLCA   SOP           ENM   O  L  CAS   OP  EN  MOLC  AS   O
    OPENMOLCA   SOPE           NM      O  LCA   S      OP  EN MO
    OPENMOLC                AS         O  PEN   M      OL  CA  SOPE
    OPENMO        LCASOPE  NMOL        C  ASO   P      ENMOLC     AS
    OPE     NMO      LCA  SO     P     E   NM   OL  CA SO  PE N   MO
          OPENMOLCA            SOPE   NMO        LCAS  O    P  ENMO
     OPENMOLCASOPENMOLCASOPENMOLCASOPENMOLCA
        OPENMOLCASOPENMOLCASOPENMOLCASOPE
            OPENMOLCASOPENMOLCASOPENM
               OPENMOLCASOPENMOLCA        version: v23.06
                   OPENMOLCASO
                       OPE                tag:

 OpenMolcas is free software; you can redistribute it and/or modify it
 under the terms of the GNU Lesser General Public License version 2.1.
 OpenMolcas is distributed in the hope that it will be useful, but it
 is provided "as is" and without any express or implied warranties.
 For more details see the full text of the license in the file
 LICENSE or in <http://www.gnu.org/licenses/>.

                 Copyright (C) The OpenMolcas Authors
           For the author list and the recommended citation,
                   consult the file CONTRIBUTORS.md

           *************************************************
           * pymolcas version py2.24                       *
           *   build 4567b286dd94b1984b333a4ddf893180      *
           *   (after the EMIL interpreter by V. Veryazov) *
           *************************************************

configuration info
------------------
Host name: loginchem01.nottingham.ac.uk (Linux)
C Compiler ID: Intel
C flags: -std=gnu99 -gcc-sys -qopenmp
Fortran Compiler ID: Intel
Fortran flags: -fpp -i8 -heap-arrays -qopenmp
Definitions: _MOLCAS_;_I8_;_LINUX_
Parallel: OFF (GA=OFF)


   ----------------------------------------------------------------------------------------------------
  |
  |              Project: orca_geometry_optimisation_300_130_BP86_def2-SVP_def2J_scf_cas1_ras12i11_cas8
  |       Submitted from: /home/pcaah4/diamide_project
  |         Scratch area: /srv/COMMUNAL_SCRATCH/12449
  |      Save outputs to: /home/pcaah4/diamide_project
  |               Molcas: /software/chemistry/openmolcas/openmolcas-23.06-openmp
  |
  | Scratch area is empty
  |
  |       MOLCAS_DRIVER = /software/chemistry/openmolcas/openmolcas-23.06-openmp/sbin/pymolcas
  | MOLCAS_KEEP_WORKDIR = NO
  |       MOLCAS_NPROCS = 1
  |       MOLCAS_SOURCE = /software/chemistry/openmolcas/openmolcas-23.06-openmp
  |    MOLCAS_STRUCTURE = 0
  |
   ----------------------------------------------------------------------------------------------------

++ ---------   Input file   ---------

&SEWARD
TITLE
orca_geometry_optimisation_300_130_BP86_def2-SVP_def2J_scf_cas1_ras12i11
MULTIPOLES
2
SDIPOLE
ANGMOM
0 0 0
BASIS SET
C.ANO-S...4S3P1D.
C1            0.006169   -0.011021    0.184049 /Angstrom
C3            2.080790    1.262437    0.032874 /Angstrom
C4            1.688025    2.039065   -1.244626 /Angstrom
C6            0.892755    4.201091   -2.124254 /Angstrom
C19          -0.660191   -1.369332    0.010330 /Angstrom
END OF BASIS
BASIS SET
N.ANO-S...4S3P1D.
N2            1.385455   -0.009967    0.135868 /Angstrom
N5            1.329904    3.344740   -1.037509 /Angstrom
END OF BASIS
BASIS SET
O.ANO-S...4S3P1D.
O7           -0.629460    1.026627    0.370270 /Angstrom
O8            1.761236    1.506957   -2.351479 /Angstrom
END OF BASIS
BASIS SET
H.ANO-S...2S1P.
H9           -1.099268   -1.423585   -1.007324 /Angstrom
H10          -1.494361   -1.451657    0.732652 /Angstrom
H11           0.030257   -2.225065    0.144777 /Angstrom
H12           1.848785   -0.828000   -0.263301 /Angstrom
H13           1.884623    1.861700    0.946993 /Angstrom
H14           3.169956    1.062922   -0.014560 /Angstrom
H15           1.090818    3.613521   -0.081643 /Angstrom
H16           1.159593    3.694375   -3.070931 /Angstrom
H17          -0.207654    4.359344   -2.109721 /Angstrom
H18           1.394320    5.190653   -2.084711 /Angstrom
END OF BASIS
END OF INPUT

&RASSCF
TITLE
orca_geometry_optimisation_300_130_BP86_def2-SVP_def2J_scf_cas1_ras12i11
LUMORB
SPIN
1
SYMMETRY
1
NACTEL
12  0  0
INACTIVE
29
DELETED  ! delete Rydberg orbitals from an initial CAS(12,11) if done
3
FROZEN
0
RAS2
8
ITERATIONS
64 25
CIROOT
7 7
1 2 3 4 5 6 7
1 1 1 1 1 1 1
LEVSHFT
0.3
CIMX
20
FILEorb = /home/pcaah4/diamide_project/cas/ras12i11/ras_orb/orca_geometry_optimisation_300_130_BP86_def2-SVP_def2J_scf_cas1_ras12i11.RasOrb
ALTEr
2
 1 36 37
 1 37 39
END OF INPUT

&RASSI
NROF JOBIPH
    1 7
    1 2 3 5 4 6 7
TOFILE
TRDI
TDMN
1.0D-6
END OF INPUT

&CASPT2
TITLE
orca_geometry_optimisation_300_130_BP86_def2-SVP_def2J_scf_cas1_ras12i11
MULTISTATE
7 1 2 3 4 5 6 7
SHIFT
0.35
MAXITER
50
END OF INPUT

-- ----------------------------------

--- Start Module: seward at Tue Jun 10 20:24:46 2025 ---
 
()()()()()()()()()()()()()()()()()()()()()()()()()()()()()()()()()()()()()()()()()()()()()()()()()()

                                              &SEWARD

                                   only a single process is used
                       available to each process: 2.0 GB of memory, 1 thread
                                            pid: 3126534
()()()()()()()()()()()()()()()()()()()()()()()()()()()()()()()()()()()()()()()()()()()()()()()()()()
 
               SEWARD will generate:
                  Multipole Moment integrals up to order  2
                  Kinetic Energy integrals
                  Nuclear Attraction integrals (point charge)
                  One-Electron Hamiltonian integrals
                  Velocity integrals
                  Orbital angular momentum around ( 0.0000  0.0000  0.0000 )
                  Velocity quadrupole around ( 1.6279  2.5373 -1.2912 )
                  Two-Electron Repulsion integrals
 
 Title:
            orca_geometry_optimisation_300_130_BP86_def2-SVP_def2J_scf_cas1_ras12i11    
 
 
                   Integrals are discarded if absolute value <: 0.10E-13
                   Integral cutoff threshold is set to       <: 0.10E-15
 
++    Symmetry information:
      ---------------------
 
                    Character Table for C1 
 
                             E  
                    a        1  x, y, xy, Rz, z, xz, Ry, yz, Rx, I
--
 
 
++    Basis set information:
      ----------------------
 
 
      Basis set label: C.ANO-S...4S3P1D......
 
      Electronic valence basis set:
      ------------------
      Associated Effective Charge   6.000000 au
      Associated Actual Charge      6.000000 au
      Nuclear Model: Point charge
 
      Shell  nPrim  nBasis  Cartesian Spherical Contaminant
         s      10       4        X                  
         p       6       3        X                  
         d       3       1                 X         
 
 
      Basis set label: N.ANO-S...4S3P1D......
 
      Electronic valence basis set:
      ------------------
      Associated Effective Charge   7.000000 au
      Associated Actual Charge      7.000000 au
      Nuclear Model: Point charge
 
      Shell  nPrim  nBasis  Cartesian Spherical Contaminant
         s      10       4        X                  
         p       6       3        X                  
         d       3       1                 X         
 
 
      Basis set label: O.ANO-S...4S3P1D......
 
      Electronic valence basis set:
      ------------------
      Associated Effective Charge   8.000000 au
      Associated Actual Charge      8.000000 au
      Nuclear Model: Point charge
 
      Shell  nPrim  nBasis  Cartesian Spherical Contaminant
         s      10       4        X                  
         p       6       3        X                  
         d       3       1                 X         
 
 
      Basis set label: H.ANO-S...2S1P......
 
      Electronic valence basis set:
      ------------------
      Associated Effective Charge   1.000000 au
      Associated Actual Charge      1.000000 au
      Nuclear Model: Point charge
 
      Shell  nPrim  nBasis  Cartesian Spherical Contaminant
         s       7       2        X                  
         p       3       1        X                  
--
 
 
++    Molecular structure info:
      -------------------------
 
                    ************************************************ 
                    **** Cartesian Coordinates / Bohr, Angstrom **** 
                    ************************************************ 
 
     Center  Label                x              y              z                     x              y              z
        1      C1               0.011658      -0.020827       0.347802              0.006169      -0.011021       0.184049
        2      C3               3.932123       2.385660       0.062123              2.080790       1.262437       0.032874
        3      C4               3.189905       3.853274      -2.352002              1.688025       2.039065      -1.244626
        4      C6               1.687062       7.938911      -4.014258              0.892755       4.201091      -2.124254
        5      C19             -1.247580      -2.587662       0.019521             -0.660191      -1.369332       0.010330
        6      N2               2.618131      -0.018835       0.256753              1.385455      -0.009967       0.135868
        7      N5               2.513154       6.320643      -1.960608              1.329904       3.344740      -1.037509
        8      O7              -1.189507       1.940044       0.699709             -0.629460       1.026627       0.370270
        9      O8               3.328254       2.847736      -4.443651              1.761236       1.506957      -2.351479
       10      H9              -2.077315      -2.690186      -1.903566             -1.099268      -1.423585      -1.007324
       11      H10             -2.823933      -2.743234       1.384512             -1.494361      -1.451657       0.732652
       12      H11              0.057177      -4.204763       0.273589              0.030257      -2.225065       0.144777
       13      H12              3.493697      -1.564693      -0.497567              1.848785      -0.828000      -0.263301
       14      H13              3.561421       3.518103       1.789557              1.884623       1.861700       0.946993
       15      H14              5.990349       2.008631      -0.027514              3.169956       1.062922      -0.014560
       16      H15              2.061347       6.828565      -0.154283              1.090818       3.613521      -0.081643
       17      H16              2.191313       6.981357      -5.803219              1.159593       3.694375      -3.070931
       18      H17             -0.392409       8.237966      -3.986795             -0.207654       4.359344      -2.109721
       19      H18              2.634883       9.808913      -3.939533              1.394320       5.190653      -2.084711
 
                    ************************************************* 
                    **** InterNuclear Distances / Bohr, Angstrom **** 
                    ************************************************* 
 
     Atom centers         Bohr        Angstrom
   16 H15       7 N5      1.930006        1.021315
   13 H12       6 N2      1.930102        1.021366
   17 H16       4 C6      2.090827        1.106418
   11 H10       5 C19     2.091002        1.106511
   12 H11       5 C19     2.093313        1.107733
   15 H14       2 C3      2.094392        1.108304
   10 H9        5 C19     2.096959        1.109663
   19 H18       4 C6      2.097821        1.110119
   14 H13       2 C3      2.098542        1.110500
   18 H17       4 C6      2.101045        1.111825
    9 O8        3 C4      2.324918        1.230294
    8 O7        1 C1      2.326295        1.231022
    7 N5        3 C4      2.588259        1.369648
    6 N2        1 C1      2.608063        1.380128
    7 N5        4 C6      2.742025        1.451017
    6 N2        2 C3      2.747008        1.453654
    5 C19       1 C1      2.877863        1.522899
    3 C4        2 C3      2.921092        1.545775
   11 H10      10 H9      3.372197        1.784490
   15 H14      14 H13     3.388206        1.792962
   18 H17      17 H16     3.399130        1.798742
   12 H11      10 H9      3.404411        1.801536
   19 H18      18 H17     3.410953        1.804999
   19 H18      17 H16     3.415428        1.807367
   12 H11      11 H10     3.416287        1.807821
   16 H15       3 C4      3.867295        2.046484
   13 H12       1 C1      3.901637        2.064657
   17 H16       7 N5      3.912260        2.070279
   15 H14       6 N2      3.945033        2.087621
   14 H13       6 N2      3.968528        2.100055
   19 H18       7 N5      4.012355        2.123247
   13 H12       2 C3      4.013821        2.124023
   18 H17       7 N5      4.027886        2.131465
   16 H15       4 C6      4.033902        2.134649
   11 H10       1 C1      4.065322        2.151276
   10 H9        1 C1      4.069146        2.153299
   15 H14       3 C4      4.080250        2.159175
   16 H15      14 H13     4.121637        2.181077
   14 H13       3 C4      4.171676        2.207556
   12 H11       1 C1      4.184842        2.214523
    8 O7        6 N2      4.304825        2.278015
    9 O8        7 N5      4.346375        2.300002
   15 H14      13 H12     4.384389        2.320119
   13 H12      12 H11     4.401627        2.329241
   17 H16       9 O8      4.497541        2.379996
    9 O8        2 C3      4.569483        2.418066
    8 O7        5 C19     4.578881        2.423040
    2 C3        1 C1      4.608996        2.438975
    7 N5        2 C3      4.646396        2.458767
    6 N2        5 C19     4.647459        2.459329
    4 C6        3 C4      4.659835        2.465878
    6 N2        3 C4      4.703803        2.489145
   17 H16       3 C4      4.763715        2.520849
   18 H17      16 H15     4.763977        2.520988
   14 H13       7 N5      4.797586        2.538773
   16 H15       2 C3      4.825561        2.553577
   19 H18      16 H15     4.851756        2.567438
   13 H12       5 C19     4.877864        2.581255
   12 H11       6 N2      4.907215        2.596787
   11 H10       8 O7      5.007334        2.649767
   14 H13       8 O7      5.123413        2.711193
    8 O7        2 C3      5.180365        2.741331
   14 H13       1 C1      5.215698        2.760028
   15 H14       9 O8      5.224281        2.764570
    9 O8        4 C6      5.366373        2.839762
   10 H9        8 O7      5.385562        2.849916
    9 O8        6 N2      5.551154        2.937544
   14 H13      13 H12     5.574078        2.949675
   17 H16      16 H15     5.652496        2.991172
--
 
 
            Nuclear Potential Energy            463.24185635 au
 
 
      Basis set specifications :
      Symmetry species         a  
      Basis functions          212
 
 
      Input file to MOLDEN was generated!
 
--- Stop Module: seward at Tue Jun 10 20:26:37 2025 /rc=_RC_ALL_IS_WELL_ ---
*** files: orca_geometry_optimisation_300_130_BP86_def2-SVP_def2J_scf_cas1_ras12i11_cas8.GssOrb
           orca_geometry_optimisation_300_130_BP86_def2-SVP_def2J_scf_cas1_ras12i11_cas8.guessorb.molden xmldump
    saved to directory /home/pcaah4/diamide_project
--- Module seward spent 1 minute 50 seconds ---

*** symbolic link created: INPORB -> orca_geometry_optimisation_300_130_BP86_def2-SVP_def2J_scf_cas1_ras12i11_cas8.GssOrb
--- Start Module: rasscf at Tue Jun 10 20:26:38 2025 ---
 
()()()()()()()()()()()()()()()()()()()()()()()()()()()()()()()()()()()()()()()()()()()()()()()()()()

                                              &RASSCF

                                   only a single process is used
                       available to each process: 2.0 GB of memory, 1 thread
                                            pid: 3126571
()()()()()()()()()()()()()()()()()()()()()()()()()()()()()()()()()()()()()()()()()()()()()()()()()()
 
 
      Header of the ONEINT file:
      --------------------------
      orca_geometry_optimisation_300_130_BP86_def2-SVP_def2J_scf_cas1_ras12i11
      Integrals generated by Gateway/Seward, Tue Jun 10 20:24:47 2025
 
 
      OrdInt status: non-squared
 
 
      Cartesian coordinates in Angstrom:
      -----------------------------------------------------
      No.  Label        X            Y            Z        
      -----------------------------------------------------
       1   C1         0.00616900  -0.01102100   0.18404900
       2   C3         2.08079000   1.26243700   0.03287400
       3   C4         1.68802500   2.03906500  -1.24462600
       4   C6         0.89275500   4.20109100  -2.12425400
       5   C19       -0.66019100  -1.36933200   0.01033000
       6   N2         1.38545500  -0.00996700   0.13586800
       7   N5         1.32990400   3.34474000  -1.03750900
       8   O7        -0.62946000   1.02662700   0.37027000
       9   O8         1.76123600   1.50695700  -2.35147900
      10   H9        -1.09926800  -1.42358500  -1.00732400
      11   H10       -1.49436100  -1.45165700   0.73265200
      12   H11        0.03025700  -2.22506500   0.14477700
      13   H12        1.84878500  -0.82800000  -0.26330100
      14   H13        1.88462300   1.86170000   0.94699300
      15   H14        3.16995600   1.06292200  -0.01456000
      16   H15        1.09081800   3.61352100  -0.08164300
      17   H16        1.15959300   3.69437500  -3.07093100
      18   H17       -0.20765400   4.35934400  -2.10972100
      19   H18        1.39432000   5.19065300  -2.08471100
      -----------------------------------------------------
      Nuclear repulsion energy =  463.24185635
 
++    Wave function specifications:
      -----------------------------
 
      Number of closed shell electrons          58
      Number of electrons in active shells      12
      Max number of holes in RAS1 space          0
      Max nr of electrons in RAS3 space          0
      Number of inactive orbitals               29
      Number of active orbitals                  8
      Number of secondary orbitals             172
      Spin quantum number                      0.0
      State symmetry                             1
--
 
++    Orbital specifications:
      -----------------------
 
      Symmetry species                           1
                                                 a
      Frozen orbitals                            0
      Inactive orbitals                         29
      Active orbitals                            8
      RAS1 orbitals                              0
      RAS2 orbitals                              8
      RAS3 orbitals                              0
      Secondary orbitals                       172
      Deleted orbitals                           3
      Number of basis functions                212
--
 
++    CI expansion specifications:
      ----------------------------
 
      Number of CSFs                           336
      Number of determinants                   406
      Number of root(s) required                 7
      Root chosen for geometry opt.              7
      CI roots used                              1     2     3     4     5     6     7
      weights                                0.143 0.143 0.143 0.143 0.143 0.143 0.143
      highest root included in the CI            7
      max. size of the explicit Hamiltonian    200
--
 
++    Optimization specifications:
      ----------------------------
 
      RASSCF algorithm: Conventional
      Maximum number of macro iterations        64
      Maximum number of SX iterations           25
      Threshold for RASSCF energy            0.100E-07
      Threshold for max MO rotation          0.100E+00
      Threshold for max BLB element          0.100E-03
      Level shift parameter                  0.300E+00
      Make Quasi-Newton update
--
 
      The MO-coefficients are taken from the file:
      /home/pcaah4/diamide_project/cas/ras12i11/ras_orb/orca_geometry_optimisation_300_130_BP86_def2-SVP_def2J_scf_cas1_ras12i11.RasOrb                                                                                                                               
      Title: RASSCF average (pseudo-natural) orbitals                                      
 
      Total molecular charge    0.00
 
      Molecular orbitals exchanged:
        In symmetry  1 :  36  37
        In symmetry  1 :  37  39
 
 
      ************************************************************************************************************************
      *                                                                                                                      *
      *                                            Wave function control section                                             *
      *                                                                                                                      *
      ************************************************************************************************************************
 
 
                                         RASSCF iterations: Energy and convergence statistics
                                         ----------------------------------------------------
 
      Iter CI   SX   CI       RASSCF       Energy    max ROT     max BLB   max BLB  Level Ln srch  Step   QN   Walltime
          iter iter root      energy       change     param      element    value   shift minimum  type update hh:mm:ss
 Nr of preliminary CI iterations:   4
        1   1   25    0  -453.68888626    0.00E+00   0.72E-01   19  38 1 -0.13E-01*  0.15   0.00    SX    NO    0:00:13
        2   7   22    0  -453.70141516   -0.13E-01* -0.54E-01   33  39 1 -0.11E-01*  0.13   0.00    SX    NO    0:00:07
        3   5   13    0  -453.70463826   -0.32E-02*  0.31E-01   32  38 1 -0.62E-02*  0.14   0.00    SX    NO    0:00:06
        4   6   13    0  -453.70696371   -0.23E-02* -0.21E-01   32  38 1 -0.70E-02*  0.14   0.00    SX    NO    0:00:06
        5   7   12    0  -453.70825391   -0.13E-02*  0.57E-01   19  75 1  0.32E-02*  0.15   1.34    QN   YES    0:00:06
        6   6   15    0  -453.70823600    0.18E-04*  0.17E-01   32  38 1  0.13E-01*  0.15   0.55    LS   YES    0:00:06
        7   9   12    0  -453.70896918   -0.73E-03*  0.23E-01   32  38 1  0.77E-02*  0.15   2.50    LS   YES    0:00:06
        8   7   12    0  -453.70897053   -0.13E-05*  0.19E-01   21  98 1  0.35E-02*  0.15   0.53    QN   YES    0:00:07
        9   9   11    0  -453.70928721   -0.32E-03*  0.69E-02   32  38 1  0.27E-02*  0.15   1.05    QN   YES    0:00:07
       10   3   10    0  -453.70933519   -0.48E-04*  0.50E-02   32  38 1  0.11E-02*  0.15   1.27    QN   YES    0:00:06
       11   7    9    0  -453.70935596   -0.21E-04*  0.71E-03   21  98 1  0.27E-03*  0.15   1.09    QN   YES    0:00:06
       12   3    8    0  -453.70935899   -0.30E-05* -0.86E-03   21  98 1  0.19E-03*  0.15   1.56    QN   YES    0:00:06
       13   6    8    0  -453.70936007   -0.11E-05* -0.16E-03   19  38 1 -0.54E-04   0.15   1.01    QN   YES    0:00:06
       14   3    7    0  -453.70936018   -0.11E-06* -0.16E-03   21  98 1  0.21E-04   0.15   1.34    QN   YES    0:00:06
       15   3    7    0  -453.70936021   -0.33E-07* -0.24E-04   32  38 1  0.66E-05   0.15   0.96    QN   YES    0:00:06
       16   1    6    0  -453.70936022   -0.31E-08   0.27E-04   19  38 1  0.29E-05   0.15   1.41    QN   YES    0:00:06
      Convergence after 16 iterations
       17   1    6    0  -453.70936022   -0.81E-09   0.27E-04   19  38 1  0.16E-05   0.15   1.41    QN   YES    0:00:06
 
      ************************************************************************************************************************
                                                      Wave function printout:
                       occupation of active orbitals, and spin coupling of open shells (u,d: Spin up or down)
      ************************************************************************************************************************
 
      Note: transformation to natural orbitals
      has been made, which may change the order of the CSFs.
 
      printout of CI-coefficients larger than  0.05 for root  1
      energy=    -453.961404
      conf/sym  11111111     Coeff  Weight
             1  22222200  -0.96383 0.92897
             4  22222020   0.08390 0.00704
             8  2222u20d  -0.12509 0.01565
            17  22220202   0.07734 0.00598
            64  2u22220d  -0.07782 0.00606
            74  2u22d202   0.06982 0.00487
            81  u22222d0  -0.09143 0.00836
           175  20222202   0.10045 0.01009
           191  02222220   0.07758 0.00602
 
      printout of CI-coefficients larger than  0.05 for root  2
      energy=    -453.752892
      conf/sym  11111111     Coeff  Weight
             8  2222u20d   0.08863 0.00786
            21  222u22d0  -0.06896 0.00475
            24  222u220d   0.95271 0.90767
            29  222u202d  -0.08311 0.00691
            34  222ud202  -0.10249 0.01050
           115  22ud2202  -0.06467 0.00418
           125  2u2d2202  -0.18697 0.03496
           213  u22u22dd  -0.08159 0.00666
           269  022u222d   0.07771 0.00604
 
      printout of CI-coefficients larger than  0.05 for root  3
      energy=    -453.738763
      conf/sym  11111111     Coeff  Weight
             3  2222u2d0   0.25524 0.06515
            41  22u222d0  -0.91473 0.83672
            42  22u22d20   0.16639 0.02769
            46  22u2d2ud  -0.05952 0.00354
            48  22u2u2dd   0.10927 0.01194
            58  22u202d2  -0.07977 0.00636
           161  u2d22220   0.12661 0.01603
           219  2uu222dd  -0.06999 0.00490
           223  2uu2d2d2   0.06030 0.00364
           294  20u222d2   0.09641 0.00929
 
      printout of CI-coefficients larger than  0.05 for root  4
      energy=    -453.647071
      conf/sym  11111111     Coeff  Weight
             2  22222ud0  -0.90219 0.81395
             3  2222u2d0  -0.19566 0.03828
            12  2222uudd  -0.08691 0.00755
            19  22220ud2   0.07701 0.00593
            21  222u22d0  -0.18995 0.03608
            67  2u222udd  -0.06460 0.00417
            76  2u22dud2   0.06117 0.00374
            81  u22222d0   0.07309 0.00534
            82  u2222d20   0.22513 0.05069
           176  20222ud2   0.09094 0.00827
           191  02222220   0.05077 0.00258
 
      printout of CI-coefficients larger than  0.05 for root  5
      energy=    -453.642708
      conf/sym  11111111     Coeff  Weight
             1  22222200   0.08489 0.00721
             2  22222ud0  -0.21247 0.04514
             3  2222u2d0   0.60954 0.37154
             8  2222u20d  -0.58216 0.33891
            17  22220202  -0.10375 0.01077
            21  222u22d0   0.28834 0.08314
            24  222u220d   0.08268 0.00684
            26  222ud2ud  -0.07479 0.00559
            28  222uu2dd   0.10311 0.01063
            41  22u222d0   0.17180 0.02952
            66  2u22d2ud  -0.10501 0.01103
            68  2u22u2dd   0.12467 0.01554
            74  2u22d202   0.14851 0.02205
            88  u222u2dd   0.06567 0.00431
           175  20222202   0.06312 0.00398
           177  2022u2d2  -0.08494 0.00722
 
      printout of CI-coefficients larger than  0.05 for root  6
      energy=    -453.617651
      conf/sym  11111111     Coeff  Weight
             1  22222200   0.06243 0.00390
             3  2222u2d0  -0.64506 0.41611
             8  2222u20d  -0.45146 0.20382
            17  22220202  -0.09232 0.00852
            21  222u22d0   0.45599 0.20792
            24  222u220d   0.06880 0.00473
            26  222ud2ud  -0.11417 0.01303
            28  222uu2dd   0.15116 0.02285
            41  22u222d0  -0.17480 0.03055
            66  2u22d2ud   0.10910 0.01190
            68  2u22u2dd  -0.15182 0.02305
            74  2u22d202   0.10655 0.01135
           175  20222202   0.05254 0.00276
           177  2022u2d2   0.09915 0.00983
 
      printout of CI-coefficients larger than  0.05 for root  7
      energy=    -453.605033
      conf/sym  11111111     Coeff  Weight
             1  22222200   0.06285 0.00395
             2  22222ud0   0.16897 0.02855
             3  2222u2d0  -0.12209 0.01490
             8  2222u20d  -0.54195 0.29371
            13  2222u02d   0.05161 0.00266
            17  22220202  -0.13561 0.01839
            21  222u22d0  -0.70464 0.49652
            26  222ud2ud   0.16558 0.02742
            28  222uu2dd  -0.22386 0.05012
            64  2u22220d   0.06728 0.00453
            74  2u22d202   0.12310 0.01515
            81  u22222d0   0.05608 0.00314
            82  u2222d20  -0.05444 0.00296
           112  22ud22ud  -0.05123 0.00262
           175  20222202   0.07155 0.00512
           211  2u2ud2d2  -0.05051 0.00255
           262  202u22d2   0.05704 0.00325
 
      Natural orbitals and occupation numbers for root  1
      sym 1:   1.971172   1.996501   1.999867   1.999501   1.951260   1.994586   0.034751   0.052362
 
      Natural orbitals and occupation numbers for root  2
      sym 1:   1.969525   1.999830   1.999903   1.003659   1.999429   1.994979   0.035692   0.996983
 
      Natural orbitals and occupation numbers for root  3
      sym 1:   1.999763   1.995484   0.990175   1.999628   1.948275   1.998712   1.012827   0.055135
 
      Natural orbitals and occupation numbers for root  4
      sym 1:   1.950542   1.989598   1.999257   1.994455   1.982578   1.083124   0.942628   0.057818
 
      Natural orbitals and occupation numbers for root  5
      sym 1:   1.994871   1.939266   1.995937   1.886779   1.140049   1.982342   0.873243   0.187514
 
      Natural orbitals and occupation numbers for root  6
      sym 1:   1.997484   1.950378   1.986797   1.896945   1.113346   1.989912   0.905985   0.159152
 
      Natural orbitals and occupation numbers for root  7
      sym 1:   1.992449   1.967163   1.995461   1.441795   1.616686   1.976633   0.587567   0.422246
 
      ************************************************************************************************************************
      *                                                                                                                      *
      *                                                    Final results                                                     *
      *                                                                                                                      *
      ************************************************************************************************************************
 
 
++    Wave function specifications:
      -----------------------------
 
      Number of closed shell electrons          58
      Number of electrons in active shells      12
      Max number of holes in RAS1 space          0
      Max nr of electrons in RAS3 space          0
      Number of inactive orbitals               29
      Number of active orbitals                  8
      Number of secondary orbitals             172
      Spin quantum number                      0.0
      State symmetry                             1
--
 
++    Orbital specifications:
      -----------------------
 
      Symmetry species                           1
                                                 a
      Frozen orbitals                            0
      Inactive orbitals                         29
      Active orbitals                            8
      RAS1 orbitals                              0
      RAS2 orbitals                              8
      RAS3 orbitals                              0
      Secondary orbitals                       172
      Deleted orbitals                           3
      Number of basis functions                212
--
 
++    CI expansion specifications:
      ----------------------------
 
      Number of CSFs                           336
      Number of determinants                   406
      Number of root(s) required                 7
      CI roots used                              1     2     3     4     5     6     7
      weights                                0.143 0.143 0.143 0.143 0.143 0.143 0.143
      highest root included in the CI            7
      Root passed to geometry opt.               7
--
 
++    Final optimization conditions:
      ------------------------------
 
      Average CI energy                            -453.70936022
      RASSCF energy for state  7                   -453.60503279
      Super-CI energy                                -0.00000000
      RASSCF energy change                            0.00000000
      Max change in MO coefficients               0.328E-04
      Max non-diagonal density matrix element     0.273E-04
      Maximum BLB matrix element                  0.163E-05
      (orbital pair  19,  38 in symmetry   1)
      Norm of electronic gradient            0.195E+00
--
 
 
      Final state energy(ies):
      ------------------------
 
::    RASSCF root number  1 Total energy:   -453.96140431
::    RASSCF root number  2 Total energy:   -453.75289179
::    RASSCF root number  3 Total energy:   -453.73876299
::    RASSCF root number  4 Total energy:   -453.64707082
::    RASSCF root number  5 Total energy:   -453.64270773
::    RASSCF root number  6 Total energy:   -453.61765110
::    RASSCF root number  7 Total energy:   -453.60503279
 
++    Molecular orbitals:
      -------------------
 
      Pseudonatural active orbitals and approximate occupation numbers
 
 
 
 
      Molecular orbitals for symmetry species 1: a  
 
 
      Orbital                 1         2         3         4         5         6         7         8         9        10
      Energy           -20.5978  -20.5124  -15.6360  -15.5739  -11.3396  -11.2880  -11.2808  -11.2567  -11.2541   -1.4230
      Occ. No.           2.0000    2.0000    2.0000    2.0000    2.0000    2.0000    2.0000    2.0000    2.0000    2.0000
 
     1 C1     1s         0.0003    0.0000    0.0003   -0.0001    1.0000    0.0001   -0.0001    0.0037    0.0000   -0.0391
     2 C1     2s         0.0006    0.0001    0.0014   -0.0004    0.0021   -0.0010   -0.0010    0.0002    0.0001    0.3530
     3 C1     3s        -0.0007   -0.0000    0.0005   -0.0003   -0.0002   -0.0008   -0.0008    0.0006   -0.0000   -0.0070
     4 C1     4s        -0.0004   -0.0001    0.0001   -0.0001    0.0012   -0.0003   -0.0002    0.0002   -0.0000    0.0025
     5 C1     2px       -0.0010   -0.0003    0.0019   -0.0003    0.0012   -0.0001    0.0003    0.0003   -0.0001   -0.0463
     6 C1     3px       -0.0006   -0.0005    0.0014   -0.0003    0.0014   -0.0006    0.0004   -0.0003   -0.0002    0.0142
     7 C1     4px        0.0001   -0.0001   -0.0001    0.0000    0.0005   -0.0003    0.0000   -0.0003   -0.0001   -0.0140
     8 C1     2py        0.0030   -0.0006    0.0001   -0.0003    0.0010    0.0002    0.0003    0.0006   -0.0004    0.0961
     9 C1     3py        0.0022   -0.0007    0.0000   -0.0003    0.0009   -0.0002    0.0002   -0.0002   -0.0005   -0.0704
    10 C1     4py       -0.0003   -0.0001   -0.0000   -0.0000    0.0007   -0.0003   -0.0001   -0.0003   -0.0001    0.0222
    11 C1     2pz        0.0004    0.0004   -0.0002   -0.0001    0.0000    0.0000    0.0001    0.0002   -0.0001    0.0197
    12 C1     3pz        0.0002    0.0005   -0.0001   -0.0002   -0.0002   -0.0001    0.0001    0.0001   -0.0002   -0.0072
    13 C1     4pz       -0.0001    0.0001    0.0000   -0.0000    0.0000   -0.0001    0.0000    0.0000   -0.0000    0.0055
    14 C1     3d2-       0.0001    0.0000    0.0001    0.0000   -0.0003    0.0000   -0.0000   -0.0000   -0.0000   -0.0308
    15 C1     3d1-      -0.0000    0.0000   -0.0000    0.0000    0.0002   -0.0000   -0.0000    0.0000   -0.0000    0.0108
    16 C1     3d0       -0.0000    0.0000    0.0001    0.0000   -0.0004   -0.0001   -0.0000   -0.0001    0.0000   -0.0260
    17 C1     3d1+       0.0000    0.0000   -0.0000    0.0000   -0.0001   -0.0000   -0.0000   -0.0000    0.0000   -0.0067
    18 C1     3d2+       0.0001    0.0000   -0.0002   -0.0000   -0.0001    0.0001    0.0000    0.0000    0.0000   -0.0116
    19 C3     1s         0.0003    0.0000    0.0004   -0.0000   -0.0002    0.9988   -0.0394   -0.0000   -0.0000   -0.0108
    20 C3     2s         0.0019    0.0002    0.0024    0.0001    0.0001   -0.0008   -0.0001   -0.0006    0.0003    0.0140
    21 C3     3s         0.0012    0.0001    0.0013    0.0002    0.0000   -0.0022   -0.0002   -0.0003    0.0001   -0.0244
    22 C3     4s         0.0002   -0.0001    0.0002    0.0001   -0.0001    0.0008   -0.0001   -0.0000   -0.0000   -0.0036
    23 C3     2px       -0.0006   -0.0009   -0.0008    0.0001    0.0002   -0.0000    0.0002   -0.0002   -0.0004   -0.0157
    24 C3     3px       -0.0005   -0.0007   -0.0003    0.0001    0.0004   -0.0001    0.0002   -0.0003   -0.0004    0.0019
    25 C3     4px        0.0001    0.0001    0.0002    0.0000    0.0002   -0.0005   -0.0001   -0.0001   -0.0000   -0.0026
    26 C3     2py       -0.0003    0.0014   -0.0006   -0.0008    0.0000   -0.0007   -0.0002    0.0004    0.0005   -0.0136
    27 C3     3py       -0.0003    0.0013   -0.0001   -0.0008    0.0000   -0.0004   -0.0005    0.0004    0.0005    0.0057
    28 C3     4py        0.0000   -0.0000    0.0001   -0.0001    0.0000   -0.0007   -0.0001    0.0000    0.0000   -0.0017
    29 C3     2pz        0.0004    0.0009   -0.0002   -0.0005    0.0001    0.0005   -0.0002    0.0002   -0.0002    0.0007
    30 C3     3pz        0.0005    0.0008   -0.0003   -0.0003   -0.0002    0.0003    0.0002    0.0002    0.0000    0.0027
    31 C3     4pz        0.0001    0.0000    0.0000    0.0001   -0.0002   -0.0001    0.0001   -0.0000    0.0001    0.0012
    32 C3     3d2-       0.0000   -0.0000    0.0000   -0.0000    0.0001   -0.0001    0.0000   -0.0000   -0.0000    0.0042
    33 C3     3d1-       0.0000    0.0000    0.0000    0.0000    0.0000    0.0001   -0.0000    0.0000   -0.0001   -0.0008
    34 C3     3d0        0.0000   -0.0001    0.0001    0.0000   -0.0000   -0.0000    0.0000    0.0000    0.0000   -0.0021
    35 C3     3d1+      -0.0000   -0.0000    0.0000    0.0000   -0.0000   -0.0001   -0.0000   -0.0000    0.0000    0.0001
    36 C3     3d2+      -0.0000   -0.0001    0.0000   -0.0000    0.0000    0.0001    0.0001   -0.0000   -0.0000   -0.0012
    37 C4     1s        -0.0001    0.0003   -0.0002    0.0003   -0.0001    0.0394    0.9993    0.0000    0.0003   -0.0013
    38 C4     2s        -0.0005    0.0011   -0.0010    0.0017   -0.0003    0.0010    0.0027    0.0003   -0.0004    0.0409
    39 C4     3s        -0.0004   -0.0002   -0.0006    0.0009   -0.0003    0.0003    0.0003    0.0003   -0.0003    0.0116
    40 C4     4s        -0.0001   -0.0003   -0.0001    0.0002   -0.0001    0.0001    0.0014    0.0001   -0.0002    0.0041
    41 C4     2px        0.0004    0.0002    0.0002   -0.0006   -0.0000    0.0004   -0.0002    0.0000   -0.0000   -0.0050
    42 C4     3px        0.0006    0.0001    0.0001   -0.0004   -0.0002    0.0004   -0.0005   -0.0000    0.0001   -0.0055
    43 C4     4px        0.0001   -0.0001   -0.0000    0.0001   -0.0001    0.0001   -0.0001   -0.0000    0.0001   -0.0000
    44 C4     2py        0.0003   -0.0020    0.0000    0.0018   -0.0002   -0.0006    0.0011   -0.0005   -0.0002   -0.0175
    45 C4     3py        0.0001   -0.0017    0.0002    0.0014   -0.0000    0.0001    0.0007   -0.0007   -0.0007   -0.0166
    46 C4     4py       -0.0001    0.0000    0.0002   -0.0001    0.0001    0.0003    0.0003   -0.0001   -0.0004   -0.0044
    47 C4     2pz        0.0000   -0.0030   -0.0003    0.0003    0.0002    0.0009    0.0002   -0.0000   -0.0001   -0.0022
    48 C4     3pz        0.0001   -0.0021    0.0000    0.0004    0.0004    0.0005    0.0002   -0.0000    0.0004   -0.0028
    49 C4     4pz        0.0000    0.0004    0.0002    0.0001    0.0001   -0.0001   -0.0002   -0.0000    0.0004   -0.0021
    50 C4     3d2-      -0.0000   -0.0000    0.0001    0.0000    0.0000    0.0000   -0.0001    0.0000   -0.0001   -0.0004
    51 C4     3d1-       0.0000   -0.0001    0.0000   -0.0001   -0.0000   -0.0001    0.0004    0.0000    0.0000    0.0007
    52 C4     3d0       -0.0000   -0.0001    0.0000    0.0001    0.0000    0.0000    0.0002    0.0000   -0.0000    0.0020
    53 C4     3d1+       0.0000    0.0000    0.0000    0.0000    0.0000   -0.0000   -0.0001    0.0000    0.0000   -0.0009
    54 C4     3d2+       0.0000   -0.0001   -0.0000    0.0002    0.0000    0.0000   -0.0003   -0.0000   -0.0001   -0.0013
    55 C6     1s         0.0000    0.0001   -0.0000    0.0003   -0.0000    0.0001   -0.0004    0.0000    0.9997    0.0005
    56 C6     2s         0.0001    0.0003   -0.0001    0.0013   -0.0000    0.0003   -0.0004   -0.0001   -0.0001    0.0083
    57 C6     3s         0.0002    0.0002   -0.0001    0.0003   -0.0001    0.0002   -0.0005   -0.0000   -0.0017    0.0057
    58 C6     4s         0.0001    0.0001   -0.0000   -0.0001   -0.0001    0.0000   -0.0002    0.0000    0.0009    0.0023
    59 C6     2px        0.0000    0.0004   -0.0001    0.0001    0.0001   -0.0001   -0.0002    0.0000   -0.0000    0.0016
    60 C6     3px       -0.0000    0.0003   -0.0001   -0.0001    0.0001   -0.0001   -0.0002    0.0001   -0.0001    0.0026
    61 C6     4px       -0.0000   -0.0000   -0.0000   -0.0000    0.0000   -0.0000   -0.0000    0.0000    0.0002    0.0011
    62 C6     2py       -0.0002   -0.0000   -0.0001   -0.0002    0.0001   -0.0002    0.0004    0.0001    0.0002    0.0007
    63 C6     3py       -0.0002   -0.0000   -0.0001    0.0002    0.0001   -0.0001    0.0006    0.0000    0.0001    0.0016
    64 C6     4py        0.0000    0.0000   -0.0000    0.0002    0.0000    0.0000    0.0001   -0.0000   -0.0004   -0.0004
    65 C6     2pz        0.0000    0.0001   -0.0000    0.0005   -0.0001    0.0002   -0.0000    0.0001    0.0001    0.0051
    66 C6     3pz        0.0000    0.0001   -0.0000   -0.0000   -0.0001    0.0001   -0.0000    0.0001   -0.0002    0.0041
    67 C6     4pz        0.0000    0.0000   -0.0000   -0.0002   -0.0000   -0.0000    0.0000    0.0000    0.0005    0.0002
    68 C6     3d2-      -0.0000   -0.0000    0.0000    0.0001    0.0000   -0.0000   -0.0000    0.0000    0.0000   -0.0001
    69 C6     3d1-       0.0000   -0.0000    0.0000    0.0000    0.0000   -0.0000   -0.0000   -0.0000    0.0001   -0.0005
    70 C6     3d0        0.0000    0.0000    0.0000   -0.0001   -0.0000    0.0000   -0.0001   -0.0000   -0.0001   -0.0001
    71 C6     3d1+      -0.0000    0.0000   -0.0000   -0.0001   -0.0000    0.0000   -0.0000    0.0000   -0.0000    0.0003
    72 C6     3d2+      -0.0000   -0.0000    0.0000    0.0000   -0.0000    0.0000   -0.0000    0.0000    0.0000    0.0001
    73 C19    1s         0.0001    0.0000   -0.0001   -0.0001    0.0036    0.0001    0.0001   -0.9999   -0.0000   -0.0135
    74 C19    2s         0.0009    0.0001   -0.0003   -0.0004    0.0002    0.0005    0.0005   -0.0018   -0.0002   -0.0060
    75 C19    3s         0.0006    0.0001   -0.0002   -0.0003   -0.0000    0.0002    0.0003    0.0006   -0.0002   -0.0347
    76 C19    4s         0.0001   -0.0000   -0.0001   -0.0001    0.0000   -0.0001    0.0000   -0.0012   -0.0001   -0.0030
    77 C19    2px        0.0008   -0.0001   -0.0005   -0.0001   -0.0003    0.0002    0.0000    0.0001   -0.0001   -0.0086
    78 C19    3px        0.0005   -0.0000   -0.0004   -0.0000   -0.0004    0.0002   -0.0001    0.0001   -0.0001   -0.0068
    79 C19    4px       -0.0002    0.0000    0.0000    0.0000   -0.0000    0.0000   -0.0000   -0.0002    0.0000    0.0079
    80 C19    2py       -0.0002    0.0000    0.0003   -0.0001    0.0003    0.0002    0.0002    0.0003   -0.0001    0.0197
    81 C19    3py       -0.0003    0.0000    0.0003   -0.0001   -0.0001    0.0000    0.0001    0.0000   -0.0001   -0.0072
    82 C19    4py       -0.0001   -0.0000   -0.0001    0.0000   -0.0001   -0.0001   -0.0001   -0.0004    0.0000    0.0047
    83 C19    2pz        0.0002   -0.0003    0.0001    0.0000    0.0003    0.0002    0.0001   -0.0001    0.0000    0.0002
    84 C19    3pz        0.0002   -0.0003    0.0001    0.0000    0.0003    0.0001    0.0001   -0.0001    0.0000   -0.0040
    85 C19    4pz       -0.0000   -0.0000   -0.0000   -0.0000    0.0000   -0.0000   -0.0000   -0.0000    0.0000    0.0005
    86 C19    3d2-       0.0001    0.0000   -0.0000   -0.0000    0.0000    0.0001    0.0000    0.0001   -0.0000    0.0008
    87 C19    3d1-      -0.0000   -0.0000    0.0000    0.0000   -0.0000   -0.0000    0.0000    0.0000    0.0000    0.0012
    88 C19    3d0       -0.0001    0.0000   -0.0001    0.0000    0.0001   -0.0000   -0.0000   -0.0001    0.0000    0.0016
    89 C19    3d1+      -0.0000   -0.0000   -0.0000   -0.0000    0.0000   -0.0000   -0.0000    0.0000    0.0000    0.0000
    90 C19    3d2+       0.0001    0.0000   -0.0000    0.0000   -0.0001   -0.0000   -0.0000   -0.0001    0.0000   -0.0066
    91 N2     1s        -0.0000    0.0001    0.9998   -0.0000   -0.0003    0.0001   -0.0000   -0.0001   -0.0000   -0.0167
    92 N2     2s        -0.0003    0.0004   -0.0006    0.0001   -0.0006    0.0016    0.0000   -0.0004   -0.0000    0.1303
    93 N2     3s        -0.0002    0.0003   -0.0018    0.0001   -0.0006    0.0009    0.0001   -0.0003   -0.0000   -0.0426
    94 N2     4s        -0.0000    0.0001    0.0003    0.0001   -0.0001    0.0003    0.0000   -0.0001   -0.0000   -0.0104
    95 N2     2px       -0.0000    0.0005    0.0003   -0.0004   -0.0003    0.0004   -0.0001    0.0004    0.0002   -0.0303
    96 N2     3px       -0.0002    0.0007    0.0002   -0.0006   -0.0002   -0.0000   -0.0003    0.0004    0.0002    0.0209
    97 N2     4px       -0.0000    0.0001   -0.0004   -0.0000   -0.0002   -0.0001   -0.0001   -0.0001    0.0000   -0.0045
    98 N2     2py       -0.0016    0.0000   -0.0008    0.0000    0.0000    0.0005    0.0001    0.0002    0.0000    0.0368
    99 N2     3py       -0.0018    0.0001   -0.0002    0.0000   -0.0000    0.0004    0.0001    0.0001    0.0000    0.0103
   100 N2     4py        0.0000    0.0000    0.0005    0.0000   -0.0000    0.0002   -0.0000   -0.0001    0.0000   -0.0065
   101 N2     2pz       -0.0003   -0.0001   -0.0004    0.0000   -0.0001   -0.0002    0.0001    0.0001    0.0001    0.0078
   102 N2     3pz       -0.0004   -0.0001    0.0000    0.0000   -0.0003   -0.0003   -0.0001    0.0002    0.0001    0.0131
   103 N2     4pz       -0.0000   -0.0000   -0.0003   -0.0000   -0.0001   -0.0000   -0.0000    0.0000    0.0000    0.0004
   104 N2     3d2-       0.0001   -0.0000   -0.0002   -0.0000   -0.0001   -0.0000    0.0000    0.0000    0.0000   -0.0031
   105 N2     3d1-       0.0000    0.0000    0.0001    0.0000   -0.0001    0.0000   -0.0000   -0.0000    0.0000   -0.0009
   106 N2     3d0       -0.0000   -0.0000    0.0000    0.0000    0.0001    0.0001   -0.0000    0.0001    0.0000   -0.0028
   107 N2     3d1+       0.0000    0.0000   -0.0000    0.0000   -0.0000    0.0000   -0.0000    0.0000   -0.0000   -0.0009
   108 N2     3d2+      -0.0000    0.0000   -0.0000   -0.0000    0.0001   -0.0000   -0.0000   -0.0000   -0.0000    0.0044
   109 N5     1s        -0.0000    0.0002    0.0001    0.9998    0.0000    0.0000   -0.0003    0.0000    0.0001   -0.0013
   110 N5     2s        -0.0001    0.0010    0.0003    0.0001    0.0001    0.0001   -0.0005    0.0002    0.0016    0.0097
   111 N5     3s        -0.0000    0.0007    0.0002   -0.0014    0.0000    0.0000   -0.0005    0.0001    0.0009   -0.0016
   112 N5     4s         0.0000    0.0001    0.0000    0.0005   -0.0000   -0.0000   -0.0000    0.0000    0.0004    0.0000
   113 N5     2px       -0.0001    0.0001   -0.0000   -0.0002    0.0000    0.0002    0.0001    0.0001   -0.0003    0.0050
   114 N5     3px       -0.0001    0.0002   -0.0000    0.0000    0.0000    0.0001   -0.0000    0.0001   -0.0003    0.0073
   115 N5     4px       -0.0000    0.0000   -0.0000   -0.0003   -0.0000   -0.0000    0.0000    0.0000   -0.0000    0.0019
   116 N5     2py       -0.0000   -0.0002   -0.0002    0.0002   -0.0000   -0.0004    0.0000   -0.0000    0.0007   -0.0047
   117 N5     3py       -0.0001   -0.0001   -0.0001    0.0001    0.0001   -0.0003   -0.0000    0.0000    0.0004   -0.0039
   118 N5     4py       -0.0000    0.0001    0.0000   -0.0003    0.0001    0.0001   -0.0003    0.0000   -0.0001   -0.0015
   119 N5     2pz        0.0001    0.0012   -0.0001    0.0009   -0.0001    0.0001   -0.0004   -0.0001   -0.0007    0.0013
   120 N5     3pz        0.0001    0.0014   -0.0001    0.0004   -0.0001    0.0002   -0.0003   -0.0002   -0.0008    0.0028
   121 N5     4pz        0.0000   -0.0000    0.0000   -0.0004    0.0000    0.0000    0.0001   -0.0000   -0.0002    0.0005
   122 N5     3d2-       0.0000   -0.0000    0.0000    0.0001   -0.0000   -0.0000    0.0001    0.0000    0.0000   -0.0001
   123 N5     3d1-      -0.0000   -0.0001   -0.0000    0.0001    0.0000    0.0000    0.0001   -0.0000    0.0000    0.0000
   124 N5     3d0       -0.0000    0.0000   -0.0000    0.0001   -0.0000   -0.0000   -0.0001   -0.0000   -0.0000    0.0000
   125 N5     3d1+       0.0000    0.0000    0.0000   -0.0001    0.0000   -0.0000   -0.0000    0.0000   -0.0000   -0.0002
   126 N5     3d2+       0.0000   -0.0000   -0.0000    0.0001   -0.0000   -0.0001    0.0001    0.0000    0.0001   -0.0001
   127 O7     1s         0.9997    0.0001    0.0000   -0.0000   -0.0003   -0.0000   -0.0000   -0.0000    0.0000   -0.0238
   128 O7     2s        -0.0014    0.0004    0.0001   -0.0000    0.0003   -0.0001   -0.0000   -0.0003    0.0001    0.6876
   129 O7     3s        -0.0013    0.0002    0.0000   -0.0001   -0.0001    0.0000    0.0000   -0.0003    0.0001   -0.0343
   130 O7     4s         0.0001    0.0001   -0.0000   -0.0001   -0.0000    0.0000    0.0000   -0.0001    0.0000   -0.0141
   131 O7     2px        0.0001    0.0001   -0.0004   -0.0001    0.0003    0.0000   -0.0001   -0.0001   -0.0000    0.0824
   132 O7     3px       -0.0003    0.0001   -0.0005   -0.0001   -0.0001    0.0001   -0.0001   -0.0001   -0.0000   -0.0219
   133 O7     4px        0.0008   -0.0000   -0.0001   -0.0000    0.0001    0.0000   -0.0000    0.0000   -0.0000   -0.0008
   134 O7     2py       -0.0003    0.0001   -0.0002   -0.0001   -0.0007   -0.0000   -0.0001    0.0002   -0.0000   -0.1199
   135 O7     3py        0.0004    0.0002   -0.0002   -0.0001   -0.0005   -0.0000   -0.0002    0.0002   -0.0001    0.0411
   136 O7     4py       -0.0011    0.0001    0.0000   -0.0000   -0.0004   -0.0000   -0.0001   -0.0000   -0.0000    0.0014
   137 O7     2pz       -0.0001   -0.0001   -0.0000    0.0001   -0.0001   -0.0000    0.0001    0.0000    0.0001   -0.0196
   138 O7     3pz        0.0000   -0.0001    0.0000    0.0002   -0.0000   -0.0000    0.0001    0.0000    0.0001    0.0072
   139 O7     4pz       -0.0002    0.0000    0.0000    0.0000   -0.0000   -0.0000    0.0000   -0.0000    0.0001    0.0001
   140 O7     3d2-       0.0001   -0.0000    0.0000   -0.0000   -0.0002    0.0000    0.0000    0.0000   -0.0000   -0.0172
   141 O7     3d1-      -0.0000    0.0000    0.0000    0.0000    0.0000    0.0000   -0.0000   -0.0000    0.0000    0.0046
   142 O7     3d0       -0.0000    0.0000   -0.0000    0.0000   -0.0000   -0.0000   -0.0000    0.0000    0.0000   -0.0101
   143 O7     3d1+      -0.0000    0.0000    0.0000    0.0000   -0.0000   -0.0000   -0.0000    0.0000    0.0000   -0.0029
   144 O7     3d2+       0.0000    0.0000   -0.0001    0.0000   -0.0001    0.0000   -0.0000    0.0000   -0.0000   -0.0075
   145 O8     1s         0.0000    0.9997   -0.0000    0.0000   -0.0000    0.0000   -0.0002   -0.0000   -0.0001   -0.0022
   146 O8     2s         0.0003   -0.0017   -0.0004    0.0002   -0.0001    0.0002    0.0007   -0.0002   -0.0003    0.0259
   147 O8     3s         0.0002   -0.0016   -0.0003    0.0001   -0.0001    0.0001    0.0001   -0.0001   -0.0002   -0.0054
   148 O8     4s         0.0000   -0.0000   -0.0001   -0.0000   -0.0000    0.0001    0.0000   -0.0000   -0.0000   -0.0015
   149 O8     2px       -0.0001   -0.0000    0.0000    0.0001    0.0001   -0.0000    0.0002   -0.0000    0.0000   -0.0004
   150 O8     3px       -0.0001   -0.0001    0.0000    0.0002    0.0002   -0.0001    0.0001   -0.0000    0.0000   -0.0007
   151 O8     4px        0.0000   -0.0001   -0.0000    0.0000    0.0001   -0.0000    0.0000   -0.0000   -0.0000   -0.0007
   152 O8     2py       -0.0000    0.0002    0.0001   -0.0003    0.0001    0.0001    0.0005    0.0000   -0.0001    0.0024
   153 O8     3py       -0.0001   -0.0002    0.0001   -0.0004    0.0002    0.0001    0.0000   -0.0000   -0.0000   -0.0021
   154 O8     4py       -0.0000    0.0006    0.0000   -0.0001    0.0001   -0.0000    0.0000   -0.0000    0.0000   -0.0006
   155 O8     2pz        0.0000    0.0002   -0.0002    0.0001   -0.0002    0.0000    0.0007    0.0000   -0.0001    0.0094
   156 O8     3pz       -0.0000   -0.0005   -0.0003   -0.0001   -0.0003   -0.0000    0.0002    0.0001   -0.0000    0.0022
   157 O8     4pz       -0.0001    0.0013   -0.0000   -0.0001   -0.0000   -0.0001    0.0002    0.0001    0.0000    0.0019
   158 O8     3d2-      -0.0000   -0.0000    0.0000   -0.0000   -0.0000   -0.0000    0.0000    0.0000   -0.0000    0.0001
   159 O8     3d1-      -0.0000   -0.0001    0.0000   -0.0000    0.0000    0.0000    0.0002    0.0000   -0.0000    0.0007
   160 O8     3d0        0.0000   -0.0001   -0.0000    0.0001   -0.0000    0.0000    0.0002    0.0000    0.0000    0.0011
   161 O8     3d1+       0.0000    0.0000    0.0000    0.0000    0.0000    0.0000   -0.0000   -0.0000    0.0000   -0.0002
   162 O8     3d2+       0.0000   -0.0000    0.0000   -0.0000   -0.0000   -0.0000   -0.0000   -0.0000    0.0000   -0.0003
   163 H9     1s         0.0005   -0.0003    0.0002    0.0001    0.0003   -0.0000    0.0001   -0.0004   -0.0001    0.0100
   164 H9     2s         0.0003   -0.0002    0.0001    0.0000    0.0002   -0.0000    0.0001    0.0002   -0.0001    0.0013
   165 H9     2px       -0.0000   -0.0000    0.0000    0.0000    0.0001   -0.0000    0.0000   -0.0000   -0.0000    0.0009
   166 H9     2py       -0.0000    0.0000   -0.0000    0.0000    0.0000   -0.0000    0.0000   -0.0000    0.0000    0.0011
   167 H9     2pz        0.0000   -0.0000    0.0000    0.0000    0.0001   -0.0000    0.0000    0.0001   -0.0000    0.0004
   168 H10    1s         0.0002   -0.0002   -0.0001   -0.0000   -0.0001   -0.0003   -0.0001   -0.0003   -0.0001    0.0117
   169 H10    2s         0.0001   -0.0001   -0.0000   -0.0000   -0.0000   -0.0002   -0.0001    0.0002   -0.0001    0.0007
   170 H10    2px       -0.0000   -0.0000    0.0000   -0.0000    0.0000   -0.0000   -0.0000    0.0000   -0.0000    0.0008
   171 H10    2py       -0.0000   -0.0000   -0.0000   -0.0000    0.0001   -0.0000   -0.0000   -0.0000   -0.0000    0.0008
   172 H10    2pz       -0.0000    0.0000    0.0000    0.0000   -0.0000    0.0000    0.0000   -0.0001    0.0000   -0.0003
   173 H11    1s        -0.0004   -0.0000    0.0005   -0.0000    0.0003   -0.0000    0.0000   -0.0004   -0.0000    0.0174
   174 H11    2s        -0.0002   -0.0000    0.0004   -0.0000    0.0002   -0.0000    0.0000    0.0002   -0.0000    0.0038
   175 H11    2px       -0.0000    0.0000   -0.0001    0.0000   -0.0000    0.0000    0.0000   -0.0001    0.0000    0.0001
   176 H11    2py       -0.0000   -0.0000    0.0000   -0.0000    0.0001    0.0000   -0.0000    0.0000   -0.0000    0.0018
   177 H11    2pz        0.0000    0.0000   -0.0000    0.0000   -0.0000   -0.0000   -0.0000   -0.0000    0.0000   -0.0005
   178 H12    1s        -0.0009   -0.0000   -0.0008    0.0000   -0.0000   -0.0004    0.0000    0.0004   -0.0000    0.0426
   179 H12    2s        -0.0005   -0.0000   -0.0005   -0.0000   -0.0001   -0.0002    0.0000    0.0002   -0.0000   -0.0005
   180 H12    2px        0.0000   -0.0000    0.0002    0.0000   -0.0001    0.0001   -0.0000   -0.0000    0.0000   -0.0040
   181 H12    2py       -0.0000    0.0000   -0.0004   -0.0000    0.0000    0.0000   -0.0000    0.0000   -0.0000    0.0050
   182 H12    2pz       -0.0001   -0.0000   -0.0002    0.0000    0.0001   -0.0000    0.0001   -0.0000   -0.0000    0.0019
   183 H13    1s        -0.0007   -0.0011   -0.0006    0.0006   -0.0007    0.0008   -0.0001   -0.0002   -0.0001    0.0174
   184 H13    2s        -0.0004   -0.0006   -0.0003    0.0004   -0.0004    0.0001   -0.0001   -0.0001   -0.0001    0.0027
   185 H13    2px        0.0001   -0.0000    0.0000    0.0000    0.0000   -0.0000   -0.0000    0.0000    0.0000   -0.0011
   186 H13    2py        0.0001    0.0000    0.0000   -0.0001    0.0001   -0.0000    0.0000    0.0000   -0.0000   -0.0014
   187 H13    2pz        0.0001    0.0001    0.0000   -0.0001    0.0001   -0.0000   -0.0001    0.0000   -0.0000   -0.0014
   188 H14    1s         0.0002    0.0009   -0.0002   -0.0000   -0.0002    0.0007   -0.0003    0.0003    0.0002    0.0119
   189 H14    2s         0.0001    0.0005   -0.0001   -0.0000   -0.0002    0.0001   -0.0001    0.0002    0.0001    0.0023
   190 H14    2px       -0.0000   -0.0001   -0.0000   -0.0000   -0.0000   -0.0000   -0.0000   -0.0000   -0.0000   -0.0010
   191 H14    2py        0.0000   -0.0000    0.0000    0.0000   -0.0000   -0.0000    0.0000   -0.0000   -0.0000   -0.0002
   192 H14    2pz       -0.0000    0.0000    0.0000    0.0000    0.0000   -0.0000   -0.0001    0.0000    0.0000    0.0001
   193 H15    1s        -0.0000   -0.0009    0.0001   -0.0009    0.0001   -0.0001    0.0003    0.0001   -0.0002    0.0032
   194 H15    2s        -0.0000   -0.0005    0.0000   -0.0006    0.0000   -0.0000    0.0001    0.0001   -0.0001   -0.0000
   195 H15    2px        0.0000   -0.0001    0.0000   -0.0002    0.0000    0.0000    0.0001   -0.0000   -0.0000   -0.0002
   196 H15    2py       -0.0000    0.0000    0.0000    0.0001    0.0000    0.0000   -0.0001    0.0000    0.0001   -0.0002
   197 H15    2pz       -0.0000    0.0000   -0.0000    0.0005   -0.0000   -0.0000   -0.0001   -0.0000   -0.0000   -0.0004
   198 H16    1s        -0.0000    0.0000   -0.0001   -0.0001    0.0000    0.0001    0.0001    0.0001    0.0010    0.0053
   199 H16    2s         0.0000    0.0001   -0.0000    0.0000    0.0000    0.0001    0.0001    0.0001    0.0001    0.0029
   200 H16    2px        0.0000   -0.0000    0.0000   -0.0000   -0.0000    0.0000    0.0000   -0.0000   -0.0000   -0.0001
   201 H16    2py       -0.0000    0.0000    0.0000    0.0000   -0.0000    0.0000   -0.0000    0.0000    0.0000    0.0001
   202 H16    2pz       -0.0000    0.0000   -0.0000    0.0000    0.0000    0.0000    0.0000    0.0000    0.0001    0.0005
   203 H17    1s         0.0000    0.0006   -0.0000   -0.0006    0.0001   -0.0001   -0.0003    0.0001    0.0006    0.0026
   204 H17    2s         0.0000    0.0004   -0.0000   -0.0002    0.0001   -0.0001   -0.0003    0.0001   -0.0001    0.0017
   205 H17    2px        0.0000    0.0000    0.0000   -0.0000    0.0000   -0.0000   -0.0001    0.0000   -0.0000   -0.0001
   206 H17    2py        0.0000   -0.0000    0.0000    0.0000   -0.0000    0.0000    0.0000   -0.0000   -0.0000   -0.0002
   207 H17    2pz        0.0000    0.0000   -0.0000   -0.0000   -0.0000   -0.0000   -0.0000    0.0000    0.0000   -0.0001
   208 H18    1s         0.0002   -0.0000    0.0002   -0.0004   -0.0001    0.0001   -0.0003   -0.0001    0.0005   -0.0024
   209 H18    2s         0.0001   -0.0000    0.0001   -0.0002   -0.0001    0.0001   -0.0002   -0.0001   -0.0001   -0.0017
   210 H18    2px       -0.0000   -0.0000   -0.0000   -0.0000    0.0000   -0.0000    0.0000   -0.0000    0.0000   -0.0000
   211 H18    2py       -0.0000   -0.0000   -0.0000    0.0000    0.0000   -0.0000    0.0000    0.0000    0.0000   -0.0001
   212 H18    2pz        0.0000    0.0000    0.0000   -0.0000    0.0000   -0.0000    0.0000   -0.0000    0.0000   -0.0001
 
 
      Orbital                11        12        13        14        15        16        17        18        19        20
      Energy            -1.3537   -1.2538   -1.2056   -1.0265   -0.9674   -0.9100   -0.8152   -0.7659   -0.7074   -0.6967
      Occ. No.           2.0000    2.0000    2.0000    2.0000    2.0000    2.0000    2.0000    2.0000    2.0000    2.0000
 
     1 C1     1s         0.0030   -0.0070    0.0031   -0.0163   -0.0028    0.0061    0.0155   -0.0012    0.0067    0.0040
     2 C1     2s        -0.0041    0.1342   -0.0005    0.2720   -0.0411   -0.0881   -0.3799    0.0435   -0.2440   -0.1009
     3 C1     3s         0.0139    0.0042    0.0148   -0.0205   -0.0129    0.0111    0.0084   -0.0027    0.0077    0.0168
     4 C1     4s         0.0048    0.0009    0.0045   -0.0059   -0.0040    0.0046    0.0032   -0.0009    0.0041    0.0033
     5 C1     2px        0.0284    0.1353    0.0034   -0.0190    0.1093   -0.0956   -0.1361    0.0020    0.1886    0.2280
     6 C1     3px        0.0137   -0.0616    0.0176   -0.0395   -0.0172    0.0312    0.0217    0.0004   -0.0686   -0.0589
     7 C1     4px        0.0081    0.0218    0.0014   -0.0101    0.0149   -0.0081   -0.0108   -0.0001    0.0071    0.0144
     8 C1     2py        0.0203   -0.0458    0.0276   -0.1605    0.0505    0.0141   -0.0436    0.0359    0.0728   -0.1241
     9 C1     3py        0.0457    0.0399    0.0327    0.0141   -0.0484    0.0437    0.0136   -0.0123   -0.0210    0.0455
    10 C1     4py        0.0037   -0.0072    0.0075   -0.0261    0.0056    0.0050   -0.0052    0.0019   -0.0037   -0.0090
    11 C1     2pz       -0.0042   -0.0172    0.0062   -0.0150    0.0034    0.0054   -0.0117    0.0152    0.0080   -0.0320
    12 C1     3pz       -0.0018    0.0120    0.0056    0.0137   -0.0069    0.0062   -0.0021    0.0067   -0.0015    0.0110
    13 C1     4pz       -0.0016   -0.0004    0.0010   -0.0005   -0.0008    0.0017   -0.0011    0.0032    0.0008   -0.0029
    14 C1     3d2-       0.0034    0.0136    0.0001    0.0085   -0.0108    0.0063   -0.0107    0.0068    0.0167    0.0053
    15 C1     3d1-      -0.0012   -0.0033   -0.0001    0.0025   -0.0015    0.0002   -0.0019    0.0005   -0.0050   -0.0041
    16 C1     3d0        0.0004   -0.0065    0.0006   -0.0107   -0.0009    0.0049    0.0141   -0.0011    0.0041    0.0024
    17 C1     3d1+      -0.0002   -0.0011   -0.0002    0.0009   -0.0017    0.0009   -0.0026    0.0027    0.0060   -0.0004
    18 C1     3d2+       0.0032    0.0289   -0.0014    0.0014    0.0141   -0.0118   -0.0111    0.0003    0.0191    0.0168
    19 C3     1s        -0.0131   -0.0300   -0.0033    0.0325    0.0277   -0.0184    0.0028   -0.0060    0.0031    0.0031
    20 C3     2s         0.0344    0.1651    0.0203   -0.2790   -0.2904    0.3173   -0.0922    0.0664   -0.0504    0.0189
    21 C3     3s        -0.0346   -0.0569   -0.0099    0.0577    0.0438   -0.0067    0.0006   -0.0103    0.0126    0.0061
    22 C3     4s        -0.0055   -0.0133   -0.0013    0.0162    0.0115   -0.0033    0.0011   -0.0031    0.0045   -0.0006
    23 C3     2px        0.0198   -0.0394    0.0015   -0.0091   -0.0178    0.0565    0.0509   -0.0105   -0.1943   -0.0380
    24 C3     3px        0.0328    0.0275    0.0115   -0.0387   -0.0102    0.0321   -0.0137   -0.0020    0.0155   -0.0046
    25 C3     4px       -0.0001    0.0039    0.0026   -0.0135   -0.0085    0.0153    0.0032    0.0004   -0.0102    0.0009
    26 C3     2py       -0.0233   -0.0961    0.0323    0.0103   -0.0711   -0.0607   -0.1389   -0.0628   -0.1100    0.2194
    27 C3     3py       -0.0194    0.0016    0.0039   -0.0049    0.0186   -0.0300    0.0003    0.0221    0.0324   -0.0276
    28 C3     4py        0.0068   -0.0097    0.0033   -0.0007   -0.0049   -0.0061   -0.0098    0.0038    0.0008    0.0068
    29 C3     2pz       -0.0325    0.0151   -0.0050    0.0093    0.0183    0.0163    0.0039    0.1276    0.1515   -0.1331
    30 C3     3pz        0.0024    0.0170   -0.0024   -0.0105   -0.0341   -0.0027    0.0020   -0.0145   -0.0148    0.0156
    31 C3     4pz       -0.0023    0.0075   -0.0019   -0.0083   -0.0094    0.0094   -0.0023    0.0107    0.0004    0.0008
    32 C3     3d2-       0.0035    0.0165   -0.0031   -0.0015    0.0094    0.0002   -0.0002    0.0083    0.0245   -0.0109
    33 C3     3d1-      -0.0034   -0.0029   -0.0035    0.0049    0.0072    0.0027    0.0029    0.0097    0.0024   -0.0051
    34 C3     3d0        0.0029   -0.0106   -0.0035    0.0021   -0.0065   -0.0018   -0.0115   -0.0050   -0.0094    0.0198
    35 C3     3d1+       0.0015    0.0006    0.0007   -0.0006   -0.0032   -0.0020    0.0009   -0.0072   -0.0083    0.0074
    36 C3     3d2+       0.0027   -0.0124   -0.0013    0.0045   -0.0011    0.0000   -0.0123    0.0011   -0.0080    0.0075
    37 C4     1s        -0.0405    0.0060   -0.0062    0.0069    0.0139    0.0098    0.0060    0.0158    0.0008   -0.0030
    38 C4     2s         0.3560    0.0169    0.1177   -0.0906   -0.2191   -0.0784   -0.0908   -0.3954   -0.0465    0.0915
    39 C4     3s        -0.0139    0.0168    0.0034    0.0190    0.0140    0.0179    0.0117    0.0092    0.0013   -0.0017
    40 C4     4s        -0.0004    0.0040    0.0006    0.0071    0.0050    0.0051    0.0036    0.0051    0.0023   -0.0027
    41 C4     2px        0.0075    0.0033   -0.0392   -0.0218   -0.0294    0.0233   -0.0164    0.0087   -0.0505    0.0631
    42 C4     3px        0.0006    0.0023    0.0032   -0.0044   -0.0115   -0.0316    0.0083   -0.0105    0.0234   -0.0192
    43 C4     4px        0.0023    0.0016   -0.0073   -0.0054   -0.0050    0.0004   -0.0000    0.0001   -0.0038    0.0020
    44 C4     2py       -0.0095   -0.0248    0.1604    0.0086    0.0134   -0.0738    0.0031   -0.1173    0.0976   -0.1248
    45 C4     3py        0.0422   -0.0237   -0.0056   -0.0267    0.0424    0.0959   -0.0297    0.0130   -0.0456    0.0543
    46 C4     4py       -0.0042   -0.0053    0.0336   -0.0017    0.0082    0.0002   -0.0024   -0.0099    0.0035   -0.0049
    47 C4     2pz       -0.1048    0.0336    0.0529   -0.0678   -0.1226   -0.0383   -0.0309   -0.0190   -0.0745    0.1136
    48 C4     3pz        0.0475   -0.0343   -0.0761    0.0298    0.0248   -0.0745    0.0342    0.0021    0.0254   -0.0413
    49 C4     4pz       -0.0294    0.0032    0.0034   -0.0072   -0.0122   -0.0158    0.0022    0.0014   -0.0007    0.0017
    50 C4     3d2-      -0.0070   -0.0009   -0.0112    0.0021    0.0057    0.0050   -0.0006    0.0088    0.0007    0.0029
    51 C4     3d1-       0.0280   -0.0083   -0.0055    0.0071    0.0038   -0.0153    0.0054    0.0096   -0.0006    0.0022
    52 C4     3d0        0.0279   -0.0032   -0.0233   -0.0030   -0.0023    0.0094   -0.0073    0.0061   -0.0056    0.0146
    53 C4     3d1+      -0.0042    0.0006    0.0006   -0.0029   -0.0041    0.0055   -0.0024   -0.0044   -0.0068    0.0021
    54 C4     3d2+      -0.0141   -0.0004   -0.0153    0.0010    0.0077    0.0115    0.0003    0.0157   -0.0063    0.0077
    55 C6     1s        -0.0081    0.0047   -0.0339   -0.0133   -0.0357   -0.0436    0.0093    0.0070    0.0026   -0.0071
    56 C6     2s         0.0356    0.0231    0.1641    0.0675    0.2269    0.3883   -0.0713   -0.1029   -0.0268    0.0503
    57 C6     3s        -0.0093    0.0238   -0.0570   -0.0239   -0.0688   -0.0688    0.0241    0.0129    0.0062   -0.0196
    58 C6     4s         0.0002    0.0068   -0.0095   -0.0039   -0.0146   -0.0141    0.0064    0.0037    0.0018   -0.0050
    59 C6     2px        0.0034    0.0036    0.0308    0.0070    0.0087   -0.0038    0.0117   -0.0083    0.0266   -0.0707
    60 C6     3px       -0.0057    0.0053   -0.0071   -0.0006   -0.0040    0.0016    0.0003   -0.0039   -0.0036    0.0077
    61 C6     4px        0.0007    0.0006   -0.0008    0.0000   -0.0041   -0.0062    0.0015    0.0011    0.0010   -0.0034
    62 C6     2py       -0.0242   -0.0024   -0.0652   -0.0075   -0.0013    0.0349   -0.0255    0.0244   -0.0804    0.1461
    63 C6     3py       -0.0016   -0.0051    0.0148    0.0077    0.0205    0.0152   -0.0036   -0.0015    0.0087   -0.0185
    64 C6     4py       -0.0015   -0.0003    0.0020    0.0017    0.0091    0.0143   -0.0035   -0.0004   -0.0044    0.0078
    65 C6     2pz        0.0121    0.0083    0.0783    0.0194    0.0170   -0.0166    0.0480    0.1531   -0.0146   -0.0303
    66 C6     3pz       -0.0046    0.0100   -0.0143    0.0002   -0.0114    0.0037    0.0002   -0.0067   -0.0024    0.0087
    67 C6     4pz        0.0022    0.0007    0.0021   -0.0024   -0.0088   -0.0141    0.0050    0.0119   -0.0010   -0.0010
    68 C6     3d2-      -0.0023    0.0002   -0.0067   -0.0013   -0.0021    0.0005   -0.0006    0.0043   -0.0062    0.0100
    69 C6     3d1-      -0.0039   -0.0002   -0.0190   -0.0035   -0.0039    0.0032   -0.0053   -0.0103   -0.0034    0.0106
    70 C6     3d0        0.0015    0.0000    0.0089    0.0019    0.0040    0.0012    0.0034    0.0121    0.0003   -0.0040
    71 C6     3d1+       0.0016    0.0002    0.0085    0.0017    0.0025   -0.0005    0.0022    0.0064    0.0013   -0.0046
    72 C6     3d2+      -0.0014    0.0003   -0.0050   -0.0014   -0.0021    0.0003   -0.0012    0.0033   -0.0035    0.0077
    73 C19    1s         0.0017   -0.0083    0.0029   -0.0577    0.0401   -0.0177   -0.0133   -0.0008   -0.0097    0.0002
    74 C19    2s         0.0087    0.0112    0.0114    0.3192   -0.2771    0.1472    0.0866    0.0190    0.0979    0.0102
    75 C19    3s         0.0104   -0.0199    0.0164   -0.1122    0.0701   -0.0275   -0.0336    0.0002   -0.0187    0.0064
    76 C19    4s         0.0038   -0.0021    0.0051   -0.0243    0.0158   -0.0062   -0.0095   -0.0003   -0.0056    0.0017
    77 C19    2px        0.0031    0.0312    0.0028    0.0525    0.0025   -0.0240   -0.0461   -0.0220   -0.0792    0.0972
    78 C19    3px        0.0001    0.0055    0.0047   -0.0008    0.0049    0.0006    0.0071   -0.0020    0.0123   -0.0060
    79 C19    4px       -0.0011    0.0003   -0.0002   -0.0085    0.0123   -0.0080   -0.0028   -0.0024   -0.0069    0.0021
    80 C19    2py        0.0031    0.0031    0.0033    0.0491   -0.0085   -0.0140   -0.0680   -0.0052   -0.2332   -0.0838
    81 C19    3py        0.0041   -0.0064    0.0050   -0.0292    0.0171   -0.0025    0.0096   -0.0008    0.0266    0.0137
    82 C19    4py       -0.0006    0.0008   -0.0004   -0.0137    0.0139   -0.0087   -0.0130    0.0003   -0.0082   -0.0027
    83 C19    2pz        0.0047   -0.0062    0.0005    0.0054   -0.0046   -0.0012   -0.0121    0.0007   -0.0246   -0.0202
    84 C19    3pz        0.0058   -0.0073    0.0006   -0.0042   -0.0013   -0.0002   -0.0016   -0.0011    0.0057    0.0009
    85 C19    4pz        0.0004   -0.0007   -0.0001   -0.0019    0.0018   -0.0013   -0.0019   -0.0004   -0.0003   -0.0005
    86 C19    3d2-       0.0004    0.0055   -0.0006    0.0117   -0.0023   -0.0025   -0.0081   -0.0005   -0.0164   -0.0030
    87 C19    3d1-      -0.0000   -0.0007   -0.0001    0.0023   -0.0012    0.0001   -0.0010   -0.0001   -0.0049   -0.0025
    88 C19    3d0       -0.0001   -0.0010    0.0000   -0.0085    0.0033    0.0005    0.0035    0.0015    0.0094   -0.0042
    89 C19    3d1+       0.0001    0.0012   -0.0001    0.0016    0.0000   -0.0008   -0.0017   -0.0006   -0.0012    0.0038
    90 C19    3d2+       0.0008    0.0028   -0.0000   -0.0067    0.0040   -0.0009    0.0030    0.0003    0.0141    0.0054
    91 N2     1s        -0.0043   -0.0404    0.0026   -0.0032   -0.0054    0.0015   -0.0050    0.0016    0.0033   -0.0004
    92 N2     2s         0.0520    0.5888   -0.0340   -0.0263    0.2068   -0.0978    0.1353   -0.0112    0.1452   -0.0300
    93 N2     3s        -0.0063   -0.0759    0.0057   -0.0082   -0.0023   -0.0002   -0.0126    0.0045    0.0131    0.0009
    94 N2     4s        -0.0017   -0.0248    0.0018   -0.0002   -0.0029    0.0013   -0.0044    0.0007    0.0001    0.0005
    95 N2     2px       -0.0031   -0.0344    0.0101   -0.1320   -0.0481    0.1214    0.3660   -0.0189   -0.1077   -0.2486
    96 N2     3px       -0.0120   -0.0035    0.0079    0.0286    0.0366   -0.0653   -0.0920    0.0082    0.0100    0.0515
    97 N2     4px        0.0002    0.0030    0.0013   -0.0042    0.0075   -0.0056    0.0021   -0.0008   -0.0017    0.0065
    98 N2     2py        0.0017    0.0067    0.0019   -0.1245   -0.0697    0.1088   -0.1953    0.1583    0.3098   -0.1509
    99 N2     3py       -0.0146   -0.0377   -0.0059    0.0324    0.0513   -0.0462    0.0217   -0.0411   -0.0607    0.0231
   100 N2     4py       -0.0021   -0.0135   -0.0008   -0.0013    0.0036   -0.0041   -0.0101   -0.0007   -0.0001    0.0038
   101 N2     2pz       -0.0069   -0.0167    0.0006    0.0107   -0.0057    0.0002   -0.0846    0.0523    0.1229   -0.0370
   102 N2     3pz       -0.0033    0.0175   -0.0058    0.0142    0.0024   -0.0028    0.0291   -0.0222   -0.0195    0.0028
   103 N2     4pz       -0.0014   -0.0030   -0.0009    0.0031   -0.0006    0.0003   -0.0024   -0.0018   -0.0007    0.0008
   104 N2     3d2-       0.0011    0.0073   -0.0002   -0.0021   -0.0078    0.0088   -0.0023    0.0058    0.0075   -0.0043
   105 N2     3d1-      -0.0008    0.0018   -0.0005    0.0021    0.0040   -0.0030    0.0087   -0.0020   -0.0057   -0.0005
   106 N2     3d0       -0.0012   -0.0151    0.0008    0.0018   -0.0026    0.0010    0.0045   -0.0022   -0.0058   -0.0002
   107 N2     3d1+      -0.0004   -0.0025    0.0001    0.0020   -0.0012    0.0003   -0.0058    0.0025    0.0035    0.0020
   108 N2     3d2+      -0.0001    0.0045   -0.0006    0.0108    0.0070   -0.0107   -0.0201    0.0009    0.0007    0.0107
   109 N5     1s        -0.0195    0.0006   -0.0419   -0.0019    0.0004    0.0035   -0.0020   -0.0034    0.0027   -0.0028
   110 N5     2s         0.1351   -0.0036    0.5784    0.0428   -0.0102   -0.2103    0.0974    0.1590    0.0510   -0.1186
   111 N5     3s        -0.0471    0.0052   -0.0767   -0.0050   -0.0060   -0.0093    0.0014   -0.0007    0.0112   -0.0146
   112 N5     4s        -0.0111    0.0022   -0.0254   -0.0023   -0.0028   -0.0003   -0.0004   -0.0020    0.0014   -0.0014
   113 N5     2px        0.0051    0.0089   -0.0076   -0.0152   -0.0577   -0.0449   -0.0240   -0.1101    0.0302   -0.0149
   114 N5     3px       -0.0034    0.0115    0.0096    0.0153    0.0083    0.0217    0.0115    0.0350   -0.0080    0.0023
   115 N5     4px        0.0017    0.0019   -0.0022    0.0024   -0.0019    0.0021    0.0010   -0.0010   -0.0008   -0.0010
   116 N5     2py       -0.0221   -0.0144   -0.0220    0.0422    0.1326    0.1401    0.0271    0.3020   -0.0848    0.0757
   117 N5     3py        0.0229   -0.0228    0.0114   -0.0084   -0.0284   -0.0589   -0.0176   -0.0706    0.0127   -0.0009
   118 N5     4py       -0.0051   -0.0030    0.0055    0.0020    0.0045   -0.0014   -0.0010    0.0017    0.0001    0.0019
   119 N5     2pz       -0.0314    0.0230    0.0022   -0.0380   -0.0877   -0.0902    0.0398    0.2394   -0.1334    0.2180
   120 N5     3pz       -0.0004    0.0221    0.0379    0.0024    0.0304    0.0787   -0.0059   -0.0557    0.0215   -0.0429
   121 N5     4pz        0.0053    0.0025    0.0107   -0.0001   -0.0001    0.0040    0.0033    0.0079   -0.0019    0.0007
   122 N5     3d2-      -0.0025    0.0001   -0.0111   -0.0000    0.0004    0.0014    0.0004    0.0022    0.0000    0.0006
   123 N5     3d1-       0.0043   -0.0015   -0.0049   -0.0005   -0.0045   -0.0110    0.0017   -0.0022    0.0017   -0.0004
   124 N5     3d0       -0.0015   -0.0002    0.0010    0.0027    0.0061    0.0038    0.0032    0.0178   -0.0033    0.0026
   125 N5     3d1+      -0.0007    0.0002    0.0022    0.0011    0.0038    0.0064   -0.0014   -0.0039    0.0022   -0.0042
   126 N5     3d2+      -0.0040    0.0003   -0.0139    0.0007    0.0036    0.0062    0.0010    0.0108   -0.0035    0.0039
   127 O7     1s         0.0005    0.0034   -0.0007   -0.0043    0.0019    0.0004    0.0136   -0.0035    0.0137    0.0200
   128 O7     2s        -0.0834   -0.3068    0.0075   -0.2038    0.0563    0.0348    0.3503   -0.0847    0.2208    0.3297
   129 O7     3s        -0.0036   -0.0051   -0.0022   -0.0207    0.0079    0.0004    0.0429   -0.0109    0.0386    0.0569
   130 O7     4s        -0.0000    0.0013   -0.0008   -0.0039    0.0016   -0.0004    0.0082   -0.0024    0.0078    0.0119
   131 O7     2px       -0.0050    0.0051    0.0007   -0.0063    0.0225   -0.0293   -0.1640    0.0457   -0.0741   -0.1877
   132 O7     3px        0.0040    0.0062    0.0022   -0.0086   -0.0037    0.0052    0.0241   -0.0086   -0.0001    0.0139
   133 O7     4px        0.0014    0.0013    0.0004   -0.0014   -0.0021    0.0014    0.0023   -0.0012   -0.0007    0.0005
   134 O7     2py        0.0144    0.0445    0.0024   -0.0326    0.0161    0.0027    0.1649   -0.0530    0.2587    0.3809
   135 O7     3py       -0.0013    0.0039    0.0029    0.0142   -0.0054    0.0001   -0.0247    0.0071   -0.0344   -0.0396
   136 O7     4py        0.0000    0.0002    0.0018    0.0001   -0.0011    0.0015   -0.0026    0.0014   -0.0051   -0.0058
   137 O7     2pz       -0.0000    0.0025   -0.0032   -0.0051    0.0029    0.0012    0.0344   -0.0086    0.0374    0.0664
   138 O7     3pz       -0.0031   -0.0012   -0.0052    0.0001    0.0011   -0.0038   -0.0023    0.0022   -0.0045   -0.0057
   139 O7     4pz       -0.0013   -0.0002   -0.0014   -0.0008    0.0003   -0.0012    0.0000    0.0008   -0.0004   -0.0009
   140 O7     3d2-       0.0016    0.0032    0.0001    0.0011   -0.0025    0.0023    0.0119   -0.0032    0.0073    0.0153
   141 O7     3d1-      -0.0005   -0.0019   -0.0000   -0.0001   -0.0005    0.0004   -0.0015    0.0007   -0.0036   -0.0051
   142 O7     3d0        0.0008    0.0040   -0.0005    0.0015    0.0001   -0.0003    0.0045   -0.0019    0.0054    0.0101
   143 O7     3d1+       0.0000    0.0004   -0.0004    0.0006   -0.0005    0.0003    0.0021   -0.0003    0.0010    0.0024
   144 O7     3d2+       0.0010    0.0053   -0.0002   -0.0026    0.0038   -0.0025    0.0000   -0.0007    0.0124    0.0126
   145 O8     1s        -0.0229    0.0022    0.0044   -0.0001    0.0026    0.0010    0.0024    0.0119    0.0008   -0.0017
   146 O8     2s         0.6729   -0.1327   -0.3228    0.0885    0.1548    0.0256    0.0722    0.3428    0.0202   -0.0219
   147 O8     3s        -0.0247   -0.0012   -0.0074    0.0018    0.0132    0.0030    0.0082    0.0429    0.0023   -0.0051
   148 O8     4s        -0.0111    0.0008    0.0005   -0.0007    0.0018    0.0001    0.0013    0.0086    0.0005   -0.0010
   149 O8     2px       -0.0044    0.0004   -0.0045   -0.0092   -0.0091    0.0091   -0.0118    0.0179   -0.0170    0.0398
   150 O8     3px        0.0019   -0.0020   -0.0012   -0.0026    0.0039   -0.0003    0.0008   -0.0008    0.0033   -0.0036
   151 O8     4px        0.0001   -0.0004   -0.0003   -0.0013    0.0013   -0.0007    0.0009    0.0001    0.0006   -0.0015
   152 O8     2py        0.0701   -0.0206   -0.0017    0.0140    0.0049   -0.0408   -0.0048   -0.1189    0.0628   -0.0689
   153 O8     3py       -0.0222   -0.0038   -0.0045    0.0016    0.0042   -0.0094    0.0039    0.0168   -0.0045    0.0050
   154 O8     4py       -0.0020   -0.0020   -0.0019   -0.0003    0.0016   -0.0018   -0.0003    0.0021   -0.0016    0.0016
[...]
AIVX     1  Mu1.0001  In1.022 Se1.043               0.22697389      0.00162549     -0.00279591     -0.00000454
AIVX     1  Mu1.0001  In1.023 Se1.043               0.25665901      0.00235911     -0.00361282     -0.00000852
AIVX     1  Mu1.0001  In1.024 Se1.043               0.17342018      0.00032183     -0.00070330     -0.00000023
AIVX     1  Mu1.0001  In1.025 Se1.043               0.22170688      0.00055938     -0.00111288     -0.00000062
AIVX     1  Mu1.0001  In1.026 Se1.043               0.14389421     -0.00072292      0.00165302     -0.00000119
AIVX     1  Mu1.0001  In1.027 Se1.043               0.20621820     -0.00100708      0.00168983     -0.00000170
AIVX     1  Mu1.0001  In1.028 Se1.043               0.16187559     -0.00025530      0.00059363     -0.00000015
AIVX     1  Mu1.0001  In1.029 Se1.043               0.10922156      0.00014923     -0.00045877     -0.00000007
AIVX     1  Mu1.0001  In1.021 Se1.044               0.28542928     -0.00081687      0.00143695     -0.00000117
AIVX     1  Mu1.0001  In1.022 Se1.044               0.23728985      0.00287605     -0.00481849     -0.00001386
AIVX     1  Mu1.0001  In1.023 Se1.044               0.26697497     -0.00048857     -0.00100032      0.00000049
AIVX     1  Mu1.0001  In1.024 Se1.044               0.18373614      0.00083997     -0.00119074     -0.00000100
AIVX     1  Mu1.0001  In1.025 Se1.044               0.23202284      0.00012835     -0.00059512     -0.00000008
AIVX     1  Mu1.0001  In1.026 Se1.044               0.15421017      0.00042952     -0.00181509     -0.00000078
AIVX     1  Mu1.0001  In1.027 Se1.044               0.21653415      0.00162723     -0.00206327     -0.00000336
AIVX     1  Mu1.0001  In1.028 Se1.044               0.17219154      0.00177933     -0.00340265     -0.00000605
AIVX     1  Mu1.0001  In1.029 Se1.044               0.11953751     -0.00080352      0.00203894     -0.00000164
AIVX     1  Mu1.0001  In1.021 Se1.045               0.29858321      0.00146607     -0.00220132     -0.00000323
AIVX     1  Mu1.0001  In1.022 Se1.045               0.25044377      0.00004400     -0.00012877     -0.00000001
AIVX     1  Mu1.0001  In1.023 Se1.045               0.28012889      0.00030154     -0.00052127     -0.00000016
AIVX     1  Mu1.0001  In1.024 Se1.045               0.19689006     -0.00077225      0.00133177     -0.00000103
AIVX     1  Mu1.0001  In1.025 Se1.045               0.24517676     -0.00014344      0.00022541     -0.00000003
AIVX     1  Mu1.0001  In1.026 Se1.045               0.16736409     -0.00011765     -0.00007780      0.00000001
AIVX     1  Mu1.0001  In1.027 Se1.045               0.22968808     -0.00092866      0.00155269     -0.00000144
AIVX     1  Mu1.0001  In1.028 Se1.045               0.18534547     -0.00049010      0.00076833     -0.00000038
AIVX     1  Mu1.0001  In1.029 Se1.045               0.13269143     -0.00018374      0.00038593     -0.00000007
AIVX     1  Mu1.0001  In1.022 Se1.046               0.26557137      0.00175752     -0.00289242     -0.00000508
AIVX     1  Mu1.0001  In1.023 Se1.046               0.29525649      0.00096672     -0.00271016     -0.00000262
AIVX     1  Mu1.0001  In1.024 Se1.046               0.21201766     -0.00014365      0.00030274     -0.00000004
AIVX     1  Mu1.0001  In1.025 Se1.046               0.26030436      0.00016432     -0.00071228     -0.00000012
AIVX     1  Mu1.0001  In1.026 Se1.046               0.18249169     -0.00102869      0.00147308     -0.00000152
AIVX     1  Mu1.0001  In1.027 Se1.046               0.24481568     -0.00053446      0.00141882     -0.00000076
AIVX     1  Mu1.0001  In1.028 Se1.046               0.20047307      0.00044608     -0.00060461     -0.00000027
AIVX     1  Mu1.0001  In1.029 Se1.046               0.14781903      0.00106037     -0.00196898     -0.00000209
AIVX     1  Mu1.0001  In1.022 Se1.047               0.27335520     -0.00124203      0.00188020     -0.00000234
AIVX     1  Mu1.0001  In1.024 Se1.047               0.21980150     -0.00018088      0.00022156     -0.00000004
AIVX     1  Mu1.0001  In1.025 Se1.047               0.26808819     -0.00064382      0.00120618     -0.00000078
AIVX     1  Mu1.0001  In1.026 Se1.047               0.19027552     -0.00020223      0.00019645     -0.00000004
AIVX     1  Mu1.0001  In1.027 Se1.047               0.25259951     -0.00031180      0.00043950     -0.00000014
AIVX     1  Mu1.0001  In1.028 Se1.047               0.20825690     -0.00081875      0.00156751     -0.00000128
AIVX     1  Mu1.0001  In1.029 Se1.047               0.15560287      0.00055197     -0.00110060     -0.00000061
AIVX     1  Mu1.0001  In1.022 Se1.048               0.29513590     -0.00198907      0.00332368     -0.00000661
AIVX     1  Mu1.0001  In1.024 Se1.048               0.24158219     -0.00108176      0.00157468     -0.00000170
AIVX     1  Mu1.0001  In1.025 Se1.048               0.28986889     -0.00090958      0.00188499     -0.00000171
AIVX     1  Mu1.0001  In1.026 Se1.048               0.21205622      0.00046905     -0.00052295     -0.00000025
AIVX     1  Mu1.0001  In1.027 Se1.048               0.27438021     -0.00308276      0.00481124     -0.00001483
AIVX     1  Mu1.0001  In1.028 Se1.048               0.23003760     -0.00190844      0.00338221     -0.00000645
AIVX     1  Mu1.0001  In1.029 Se1.048               0.17738357      0.00000189     -0.00022990     -0.00000000
AIVX     1  Mu1.0001  In1.024 Se1.049               0.25450775      0.00015799     -0.00021720     -0.00000003
AIVX     1  Mu1.0001  In1.026 Se1.049               0.22498178     -0.00039606     -0.00008928      0.00000004
AIVX     1  Mu1.0001  In1.027 Se1.049               0.28730577     -0.00409187      0.00637912     -0.00002610
AIVX     1  Mu1.0001  In1.028 Se1.049               0.24296316      0.00053623     -0.00080744     -0.00000043
AIVX     1  Mu1.0001  In1.029 Se1.049               0.19030912     -0.00113730      0.00222128     -0.00000253
AIVX     1  Mu1.0001  In1.024 Se1.050               0.26030791      0.00033611     -0.00049578     -0.00000017
AIVX     1  Mu1.0001  In1.026 Se1.050               0.23078194      0.00046894     -0.00099424     -0.00000047
AIVX     1  Mu1.0001  In1.027 Se1.050               0.29310592     -0.00077639      0.00122176     -0.00000095
AIVX     1  Mu1.0001  In1.028 Se1.050               0.24876331      0.00202134     -0.00326943     -0.00000661
AIVX     1  Mu1.0001  In1.029 Se1.050               0.19610928     -0.00009100      0.00039023     -0.00000004
AIVX     1  Mu1.0001  In1.024 Se1.051               0.27046998     -0.00112296      0.00153282     -0.00000172
AIVX     1  Mu1.0001  In1.026 Se1.051               0.24094400      0.00121968     -0.00141942     -0.00000173
AIVX     1  Mu1.0001  In1.028 Se1.051               0.25892538     -0.00029042      0.00030194     -0.00000009
AIVX     1  Mu1.0001  In1.029 Se1.051               0.20627135     -0.00076573      0.00121615     -0.00000093
AIVX     1  Mu1.0001  In1.026 Se1.052               0.27700093      0.00176619     -0.00316199     -0.00000558
AIVX     1  Mu1.0001  In1.028 Se1.052               0.29498231      0.00159340     -0.00244377     -0.00000389
AIVX     1  Mu1.0001  In1.029 Se1.052               0.24232827     -0.00099290      0.00190866     -0.00000190
AIVX     1  Mu1.0001  In1.026 Se1.053               0.29299807     -0.00126440      0.00148120     -0.00000187
AIVX     1  Mu1.0001  In1.029 Se1.053               0.25832542     -0.00027709      0.00062621     -0.00000017
AIVX     1  Mu1.0001  In1.029 Se1.054               0.27676948      0.00140165     -0.00216853     -0.00000304
AIVX     1  Mu1.0001  In1.029 Se1.055               0.26817766     -0.00069137      0.00123077     -0.00000085
AIVX     1  Mu1.0001  In1.029 Se1.056               0.28277472      0.00112910     -0.00198845     -0.00000225
--
 
   (Skipping property calculation,
    use PROP keyword to activate)
--
 
  Total CASPT2 energies:
::    CASPT2 Root  1     Total energy:   -455.38266614
::    CASPT2 Root  2     Total energy:   -455.17284123
::    CASPT2 Root  3     Total energy:   -455.17670477
::    CASPT2 Root  4     Total energy:   -455.13501164
::    CASPT2 Root  5     Total energy:   -455.12625327
::    CASPT2 Root  6     Total energy:   -455.09904256
::    CASPT2 Root  7     Total energy:   -455.10518823
 
++ Multi-State CASPT2 section:
********************************************************************************
  MULTI-STATE CASPT2 SECTION
--------------------------------------------------------------------------------
 
  Output diagonal energies have been shifted. Add   -455.000000000000     
 
  Effective Hamiltonian matrix (Symmetric):
 
                1               2               3               4               5
   1        -0.38266614
   2        -0.00046253     -0.17284123
   3        -0.00082733      0.00016825     -0.17670477
   4         0.00760863     -0.00113350      0.00239829     -0.13501164
   5         0.01900169      0.00507665     -0.00281933     -0.00381340     -0.12625327
   6         0.01227853      0.00022900      0.00269252     -0.00068998     -0.01419352
   7         0.01821684      0.00172023      0.00002749      0.00303796     -0.02100825
 
                6               7
   6        -0.09904256
   7        -0.01964996     -0.10518823
 
       Total MS-CASPT2 energies:
::    MS-CASPT2 Root  1     Total energy:   -455.38646112
::    MS-CASPT2 Root  2     Total energy:   -455.17710509
::    MS-CASPT2 Root  3     Total energy:   -455.17365130
::    MS-CASPT2 Root  4     Total energy:   -455.14521541
::    MS-CASPT2 Root  5     Total energy:   -455.13514483
::    MS-CASPT2 Root  6     Total energy:   -455.09840743
::    MS-CASPT2 Root  7     Total energy:   -455.08172267
 
       Eigenvectors:
           -0.99210511      0.00132634     -0.02347892      0.12060544      0.01956668
           -0.00457319     -0.14145822      0.97531931      0.16259622     -0.03313566
           -0.00383189      0.98569473      0.15063814     -0.02543882      0.05142200
            0.03052679     -0.05580862      0.01576049      0.07917879      0.98760612
            0.08170323      0.06772009     -0.13209668      0.72220777      0.02131594
            0.05156607     -0.01688855     -0.04893392      0.40985198     -0.05422827
            0.07365788      0.02019618     -0.07359804      0.51238430     -0.13082062
 
            0.01325836      0.00837330
           -0.03409076      0.00481767
            0.04661658     -0.01532692
            0.10411820      0.05682780
           -0.66207846     -0.10441610
            0.57098979     -0.70548742
            0.47039463      0.69844624
 
--
 
  THE ORIGINAL CI ARRAYS ARE NOW MIXED AS LINEAR
  COMBINATIONS, GIVEN BY THE EIGENVECTORS.
  A NEW JOBIPH FILE NAMED 'JOBMIX' IS PREPARED.
********************************************************************************
 
++ Mixed CI coefficients:
  The CI coefficients for the MIXED state nr.   1
--------------------------------------------------------------------------------
 CI COEFFICIENTS LARGER THAN  0.50D-01
  Occupation of active orbitals, and spin coupling
  of open shells. (u,d: Spin up or down).
  SGUGA info is (Midvert:IsyUp:UpperWalk/LowerWalk)
        Conf  SGUGA info        Occupation    Coefficient         Weight
           1  ( 1:1:   1/   1)   22222200        0.971478       0.943770
           4  ( 1:1:   4/   1)   22222020       -0.088643       0.007857
          17  ( 1:1:  17/   1)   22220202       -0.099830       0.009966
          64  ( 2:1:   4/   3)   2u22220d        0.083580       0.006986
          81  ( 2:1:   1/   4)   u22222d0        0.100567       0.010114
         175  ( 3:1:   5/   8)   20222202       -0.086603       0.007500
         191  ( 3:1:   1/  10)   02222220       -0.076133       0.005796
 
  The CI coefficients for the MIXED state nr.   2
--------------------------------------------------------------------------------
 CI COEFFICIENTS LARGER THAN  0.50D-01
  Occupation of active orbitals, and spin coupling
  of open shells. (u,d: Spin up or down).
  SGUGA info is (Midvert:IsyUp:UpperWalk/LowerWalk)
        Conf  SGUGA info        Occupation    Coefficient         Weight
           3  ( 1:1:   3/   1)   2222u2d0        0.313789       0.098464
           8  ( 1:1:   8/   1)   2222u20d       -0.058153       0.003382
          24  ( 2:1:   4/   1)   222u220d       -0.126004       0.015877
          41  ( 2:1:   1/   2)   22u222d0       -0.886156       0.785273
          42  ( 2:1:   2/   2)   22u22d20        0.161128       0.025962
          46  ( 2:1:   6/   2)   22u2d2ud       -0.057571       0.003314
          48  ( 2:1:   8/   2)   22u2u2dd        0.108702       0.011816
          58  ( 2:1:  18/   2)   22u202d2       -0.078109       0.006101
         161  ( 3:1:   1/   7)   u2d22220        0.123401       0.015228
         219  ( 4:1:   1/   4)   2uu222dd       -0.067574       0.004566
         223  ( 4:1:   5/   4)   2uu2d2d2        0.058574       0.003431
         294  ( 5:1:   2/  15)   20u222d2        0.093110       0.008669
 
  The CI coefficients for the MIXED state nr.   3
--------------------------------------------------------------------------------
 CI COEFFICIENTS LARGER THAN  0.50D-01
  Occupation of active orbitals, and spin coupling
  of open shells. (u,d: Spin up or down).
  SGUGA info is (Midvert:IsyUp:UpperWalk/LowerWalk)
        Conf  SGUGA info        Occupation    Coefficient         Weight
           8  ( 1:1:   8/   1)   2222u20d        0.228429       0.052180
          21  ( 2:1:   1/   1)   222u22d0       -0.079546       0.006328
          24  ( 2:1:   4/   1)   222u220d        0.915220       0.837627
          29  ( 2:1:   9/   1)   222u202d       -0.079907       0.006385
          34  ( 2:1:  14/   1)   222ud202       -0.099024       0.009806
          41  ( 2:1:   1/   2)   22u222d0       -0.149259       0.022278
          74  ( 2:1:  14/   3)   2u22d202       -0.055727       0.003106
         115  ( 3:1:   5/   2)   22ud2202       -0.062062       0.003852
         125  ( 3:1:   5/   3)   2u2d2202       -0.178611       0.031902
         213  ( 4:1:   1/   3)   u22u22dd       -0.078371       0.006142
         269  ( 5:1:   1/   9)   022u222d        0.074659       0.005574
 
  The CI coefficients for the MIXED state nr.   4
--------------------------------------------------------------------------------
 CI COEFFICIENTS LARGER THAN  0.50D-01
  Occupation of active orbitals, and spin coupling
  of open shells. (u,d: Spin up or down).
  SGUGA info is (Midvert:IsyUp:UpperWalk/LowerWalk)
        Conf  SGUGA info        Occupation    Coefficient         Weight
           2  ( 1:1:   2/   1)   22222ud0       -0.126305       0.015953
           3  ( 1:1:   3/   1)   2222u2d0        0.089786       0.008062
           8  ( 1:1:   8/   1)   2222u20d       -0.881895       0.777739
          13  ( 1:1:  13/   1)   2222u02d        0.079052       0.006249
          17  ( 1:1:  17/   1)   22220202       -0.172548       0.029773
          24  ( 2:1:   4/   1)   222u220d        0.240428       0.057805
          41  ( 2:1:   1/   2)   22u222d0        0.057138       0.003265
          74  ( 2:1:  14/   3)   2u22d202        0.218284       0.047648
          81  ( 2:1:   1/   4)   u22222d0        0.054503       0.002971
          86  ( 2:1:   6/   4)   u222d2ud       -0.052416       0.002747
          88  ( 2:1:   8/   4)   u222u2dd        0.081694       0.006674
         125  ( 3:1:   5/   3)   2u2d2202       -0.054199       0.002938
         175  ( 3:1:   5/   8)   20222202        0.114544       0.013120
         194  ( 3:1:   4/  10)   0222u22d       -0.071299       0.005084
 
  The CI coefficients for the MIXED state nr.   5
--------------------------------------------------------------------------------
 CI COEFFICIENTS LARGER THAN  0.50D-01
  Occupation of active orbitals, and spin coupling
  of open shells. (u,d: Spin up or down).
  SGUGA info is (Midvert:IsyUp:UpperWalk/LowerWalk)
        Conf  SGUGA info        Occupation    Coefficient         Weight
           2  ( 1:1:   2/   1)   22222ud0       -0.920821       0.847911
           3  ( 1:1:   3/   1)   2222u2d0       -0.115751       0.013398
           8  ( 1:1:   8/   1)   2222u20d        0.101251       0.010252
          12  ( 1:1:  12/   1)   2222uudd       -0.089296       0.007974
          19  ( 1:1:  19/   1)   22220ud2        0.078709       0.006195
          21  ( 2:1:   1/   1)   222u22d0       -0.112047       0.012555
          41  ( 2:1:   1/   2)   22u222d0       -0.058876       0.003466
          67  ( 2:1:   7/   3)   2u222udd       -0.066478       0.004419
          76  ( 2:1:  16/   3)   2u22dud2        0.062423       0.003897
          81  ( 2:1:   1/   4)   u22222d0        0.064379       0.004145
          82  ( 2:1:   2/   4)   u2222d20        0.230720       0.053232
         176  ( 3:1:   6/   8)   20222ud2        0.092605       0.008576
         191  ( 3:1:   1/  10)   02222220        0.053630       0.002876
 
  The CI coefficients for the MIXED state nr.   6
--------------------------------------------------------------------------------
 CI COEFFICIENTS LARGER THAN  0.50D-01
  Occupation of active orbitals, and spin coupling
  of open shells. (u,d: Spin up or down).
  SGUGA info is (Midvert:IsyUp:UpperWalk/LowerWalk)
        Conf  SGUGA info        Occupation    Coefficient         Weight
           2  ( 1:1:   2/   1)   22222ud0        0.142681       0.020358
           3  ( 1:1:   3/   1)   2222u2d0       -0.837380       0.701205
           8  ( 1:1:   8/   1)   2222u20d       -0.129521       0.016776
          21  ( 2:1:   1/   1)   222u22d0       -0.279713       0.078239
          24  ( 2:1:   4/   1)   222u220d       -0.051654       0.002668
          26  ( 2:1:   6/   1)   222ud2ud        0.065777       0.004327
          28  ( 2:1:   8/   1)   222uu2dd       -0.091718       0.008412
          41  ( 2:1:   1/   2)   22u222d0       -0.273626       0.074871
          66  ( 2:1:   6/   3)   2u22d2ud        0.140682       0.019791
          68  ( 2:1:   8/   3)   2u22u2dd       -0.185670       0.034474
         177  ( 3:1:   7/   8)   2022u2d2        0.123906       0.015353
 
  The CI coefficients for the MIXED state nr.   7
--------------------------------------------------------------------------------
 CI COEFFICIENTS LARGER THAN  0.50D-01
  Occupation of active orbitals, and spin coupling
  of open shells. (u,d: Spin up or down).
  SGUGA info is (Midvert:IsyUp:UpperWalk/LowerWalk)
        Conf  SGUGA info        Occupation    Coefficient         Weight
           2  ( 1:1:   2/   1)   22222ud0        0.067250       0.004523
           3  ( 1:1:   3/   1)   2222u2d0        0.291104       0.084741
          21  ( 2:1:   1/   1)   222u22d0       -0.855019       0.731057
          24  ( 2:1:   4/   1)   222u220d       -0.056846       0.003231
          26  ( 2:1:   6/   1)   222ud2ud        0.206132       0.042491
          28  ( 2:1:   8/   1)   222uu2dd       -0.276572       0.076492
          41  ( 2:1:   1/   2)   22u222d0        0.096485       0.009309
          66  ( 2:1:   6/   3)   2u22d2ud       -0.054890       0.003013
          68  ( 2:1:   8/   3)   2u22u2dd        0.071177       0.005066
         112  ( 3:1:   2/   2)   22ud22ud       -0.068448       0.004685
         201  ( 4:1:   1/   1)   22uu22dd       -0.066061       0.004364
         211  ( 4:1:   5/   2)   2u2ud2d2       -0.063950       0.004090
         262  ( 5:1:   2/   7)   202u22d2        0.076271       0.005817
 
--
 
--- Stop Module: caspt2 at Tue Jun 10 20:36:29 2025 /rc=_RC_ALL_IS_WELL_ ---
*** files: xmldump
    saved to directory /home/pcaah4/diamide_project
--- Module caspt2 spent 6 minutes 57 seconds ---

.##################.
.# Happy landing! #.
.##################.

    Timing: Wall=699.07 User=608.60 System=80.41
******************************************************
*** WorkDir at /srv/COMMUNAL_SCRATCH/12449 cleaned ***
******************************************************
