   This run of MOLCAS is using the pymolcas driver

                             OPE
                             OPE          NMOL  CASOP  ENMOLC A   SO
                 OPE        NMOLC        AS  OP EN  MO LC     AS  OP
                OPENM       OL CA        SO  PE NM  OL CA     SOP EN
                OP EN      MO   LC       AS  OP ENMOL  CASO   PENMOL
                OP  EN     MO   LC       AS  OP EN     MO     LC ASO
               OP   E  NMOL  C  AS       OP  EN MO     LC     AS  OP
               OP  E   NMO   LC AS        OPEN  MO     LCASOP EN   M
               O  PEN   MO  LCA  SO
            OPE   NMO   L   CAS    OP
        OPENMOL  CASOP     ENMOL   CASOPE
     OPENMOLCA   SOPENMOLCASOPEN   MOLCASOPE
    OPENMOLCAS   OP           EN   MOL    CAS
    OPENMOLCAS       OP  ENM        O     LCA
    OPENMOLCAS    OPEN  MOLCASO     P  E  NMO
    OPENMOLCAS     OP               E  N  MOL
    OPENMOLCA   SO           PENM   O  L  CAS    OPEN    MO    LCAS
    OPENMOLCA   SOP           ENM   O  L  CAS   OP  EN  MOLC  AS   O
    OPENMOLCA   SOPE           NM      O  LCA   S      OP  EN MO
    OPENMOLC                AS         O  PEN   M      OL  CA  SOPE
    OPENMO        LCASOPE  NMOL        C  ASO   P      ENMOLC     AS
    OPE     NMO      LCA  SO     P     E   NM   OL  CA SO  PE N   MO
          OPENMOLCA            SOPE   NMO        LCAS  O    P  ENMO
     OPENMOLCASOPENMOLCASOPENMOLCASOPENMOLCA
        OPENMOLCASOPENMOLCASOPENMOLCASOPE
            OPENMOLCASOPENMOLCASOPENM
               OPENMOLCASOPENMOLCA        version: v23.06
                   OPENMOLCASO
                       OPE                tag:

 OpenMolcas is free software; you can redistribute it and/or modify it
 under the terms of the GNU Lesser General Public License version 2.1.
 OpenMolcas is distributed in the hope that it will be useful, but it
 is provided "as is" and without any express or implied warranties.
 For more details see the full text of the license in the file
 LICENSE or in <http://www.gnu.org/licenses/>.

                 Copyright (C) The OpenMolcas Authors
           For the author list and the recommended citation,
                   consult the file CONTRIBUTORS.md

           *************************************************
           * pymolcas version py2.24                       *
           *   build 4567b286dd94b1984b333a4ddf893180      *
           *   (after the EMIL interpreter by V. Veryazov) *
           *************************************************

configuration info
------------------
Host name: loginchem01.nottingham.ac.uk (Linux)
C Compiler ID: Intel
C flags: -std=gnu99 -gcc-sys -qopenmp
Fortran Compiler ID: Intel
Fortran flags: -fpp -i8 -heap-arrays -qopenmp
Definitions: _MOLCAS_;_I8_;_LINUX_
Parallel: OFF (GA=OFF)


   ----------------------------------------------------------------------------------------------------
  |
  |              Project: orca_geometry_optimisation_315_285_BP86_def2-SVP_def2J_scf_cas1_ras12i11_cas8
  |       Submitted from: /home/pcaah4/diamide_project
  |         Scratch area: /srv/COMMUNAL_SCRATCH/12473
  |      Save outputs to: /home/pcaah4/diamide_project
  |               Molcas: /software/chemistry/openmolcas/openmolcas-23.06-openmp
  |
  | Scratch area is empty
  |
  |       MOLCAS_DRIVER = /software/chemistry/openmolcas/openmolcas-23.06-openmp/sbin/pymolcas
  | MOLCAS_KEEP_WORKDIR = NO
  |       MOLCAS_NPROCS = 1
  |       MOLCAS_SOURCE = /software/chemistry/openmolcas/openmolcas-23.06-openmp
  |    MOLCAS_STRUCTURE = 0
  |
   ----------------------------------------------------------------------------------------------------

++ ---------   Input file   ---------

&SEWARD
TITLE
orca_geometry_optimisation_315_285_BP86_def2-SVP_def2J_scf_cas1_ras12i11
MULTIPOLES
2
SDIPOLE
ANGMOM
0 0 0
BASIS SET
C.ANO-S...4S3P1D.
C1           -0.072545   -0.109389   -0.012721 /Angstrom
C3            2.110839    1.108085   -0.219919 /Angstrom
C4            1.563964    2.232760   -1.136405 /Angstrom
C6            1.237705    2.893029   -3.496097 /Angstrom
C19          -0.686192   -1.481529    0.263817 /Angstrom
END OF BASIS
BASIS SET
N.ANO-S...4S3P1D.
N2            1.300716   -0.106306   -0.156625 /Angstrom
N5            1.735698    1.980532   -2.482311 /Angstrom
END OF BASIS
BASIS SET
O.ANO-S...4S3P1D.
O7           -0.749126    0.909092   -0.105152 /Angstrom
O8            1.203655    3.315150   -0.691729 /Angstrom
END OF BASIS
BASIS SET
H.ANO-S...2S1P.
H9           -1.602511   -1.586050   -0.347686 /Angstrom
H10          -0.997973   -1.526736    1.327661 /Angstrom
H11          -0.008348   -2.333820    0.057943 /Angstrom
H12           1.796726   -0.981561    0.018625 /Angstrom
H13           2.202887    1.584965    0.780127 /Angstrom
H14           3.125769    0.823063   -0.563691 /Angstrom
H15           1.907935    1.010506   -2.755958 /Angstrom
H16           0.281794    2.546856   -3.947781 /Angstrom
H17           1.054493    3.863967   -2.998266 /Angstrom
H18           1.983149    3.034028   -4.306207 /Angstrom
END OF BASIS
END OF INPUT

&RASSCF
TITLE
orca_geometry_optimisation_315_285_BP86_def2-SVP_def2J_scf_cas1_ras12i11
LUMORB
SPIN
1
SYMMETRY
1
NACTEL
12  0  0
INACTIVE
29
DELETED  ! delete Rydberg orbitals from an initial CAS(12,11) if done
3
FROZEN
0
RAS2
8
ITERATIONS
64 25
CIROOT
7 7
1 2 3 4 5 6 7
1 1 1 1 1 1 1
LEVSHFT
0.3
CIMX
20
FILEorb = /home/pcaah4/diamide_project/cas/ras12i11/ras_orb/orca_geometry_optimisation_315_285_BP86_def2-SVP_def2J_scf_cas1_ras12i11.RasOrb
ALTEr
2
 1 36 37
 1 37 40
END OF INPUT

&RASSI
NROF JOBIPH
    1 7
    1 2 3 5 4 6 7
TOFILE
TRDI
TDMN
1.0D-6
END OF INPUT

&CASPT2
TITLE
orca_geometry_optimisation_315_285_BP86_def2-SVP_def2J_scf_cas1_ras12i11
MULTISTATE
7 1 2 3 4 5 6 7
SHIFT
0.35
MAXITER
50
END OF INPUT

-- ----------------------------------

--- Start Module: seward at Tue Jun 10 21:15:19 2025 ---
 
()()()()()()()()()()()()()()()()()()()()()()()()()()()()()()()()()()()()()()()()()()()()()()()()()()

                                              &SEWARD

                                   only a single process is used
                       available to each process: 2.0 GB of memory, 1 thread
                                            pid: 3140280
()()()()()()()()()()()()()()()()()()()()()()()()()()()()()()()()()()()()()()()()()()()()()()()()()()
 
               SEWARD will generate:
                  Multipole Moment integrals up to order  2
                  Kinetic Energy integrals
                  Nuclear Attraction integrals (point charge)
                  One-Electron Hamiltonian integrals
                  Velocity integrals
                  Orbital angular momentum around ( 0.0000  0.0000  0.0000 )
                  Velocity quadrupole around ( 1.5902  2.2666 -1.7107 )
                  Two-Electron Repulsion integrals
 
 Title:
            orca_geometry_optimisation_315_285_BP86_def2-SVP_def2J_scf_cas1_ras12i11    
 
 
                   Integrals are discarded if absolute value <: 0.10E-13
                   Integral cutoff threshold is set to       <: 0.10E-15
 
++    Symmetry information:
      ---------------------
 
                    Character Table for C1 
 
                             E  
                    a        1  x, y, xy, Rz, z, xz, Ry, yz, Rx, I
--
 
 
++    Basis set information:
      ----------------------
 
 
      Basis set label: C.ANO-S...4S3P1D......
 
      Electronic valence basis set:
      ------------------
      Associated Effective Charge   6.000000 au
      Associated Actual Charge      6.000000 au
      Nuclear Model: Point charge
 
      Shell  nPrim  nBasis  Cartesian Spherical Contaminant
         s      10       4        X                  
         p       6       3        X                  
         d       3       1                 X         
 
 
      Basis set label: N.ANO-S...4S3P1D......
 
      Electronic valence basis set:
      ------------------
      Associated Effective Charge   7.000000 au
      Associated Actual Charge      7.000000 au
      Nuclear Model: Point charge
 
      Shell  nPrim  nBasis  Cartesian Spherical Contaminant
         s      10       4        X                  
         p       6       3        X                  
         d       3       1                 X         
 
 
      Basis set label: O.ANO-S...4S3P1D......
 
      Electronic valence basis set:
      ------------------
      Associated Effective Charge   8.000000 au
      Associated Actual Charge      8.000000 au
      Nuclear Model: Point charge
 
      Shell  nPrim  nBasis  Cartesian Spherical Contaminant
         s      10       4        X                  
         p       6       3        X                  
         d       3       1                 X         
 
 
      Basis set label: H.ANO-S...2S1P......
 
      Electronic valence basis set:
      ------------------
      Associated Effective Charge   1.000000 au
      Associated Actual Charge      1.000000 au
      Nuclear Model: Point charge
 
      Shell  nPrim  nBasis  Cartesian Spherical Contaminant
         s       7       2        X                  
         p       3       1        X                  
--
 
 
++    Molecular structure info:
      -------------------------
 
                    ************************************************ 
                    **** Cartesian Coordinates / Bohr, Angstrom **** 
                    ************************************************ 
 
     Center  Label                x              y              z                     x              y              z
        1      C1              -0.137090      -0.206715      -0.024039             -0.072545      -0.109389      -0.012721
        2      C3               3.988908       2.093977      -0.415587              2.110839       1.108085      -0.219919
        3      C4               2.955464       4.219305      -2.147494              1.563964       2.232760      -1.136405
        4      C6               2.338923       5.467032      -6.606666              1.237705       2.893029      -3.496097
        5      C19             -1.296715      -2.799684       0.498542             -0.686192      -1.481529       0.263817
        6      N2               2.457997      -0.200889      -0.295978              1.300716      -0.106306      -0.156625
        7      N5               3.279994       3.742663      -4.690888              1.735698       1.980532      -2.482311
        8      O7              -1.415643       1.717935      -0.198708             -0.749126       0.909092      -0.105152
        9      O8               2.274578       6.264726      -1.307178              1.203655       3.315150      -0.691729
       10      H9              -3.028307      -2.997200      -0.657031             -1.602511      -1.586050      -0.347686
       11      H10             -1.885896      -2.885113       2.508916             -0.997973      -1.526736       1.327661
       12      H11             -0.015775      -4.410281       0.109496             -0.008348      -2.333820       0.057943
       13      H12              3.395320      -1.854881       0.035196              1.796726      -0.981561       0.018625
       14      H13              4.162853       2.995150       1.474226              2.202887       1.584965       0.780127
       15      H14              5.906847       1.555364      -1.065222              3.125769       0.823063      -0.563691
       16      H15              3.605475       1.909580      -5.208006              1.907935       1.010506      -2.755958
       17      H16              0.532513       4.812860      -7.460225              0.281794       2.546856      -3.947781
       18      H17              1.992703       7.301839      -5.665902              1.054493       3.863967      -2.998266
       19      H18              3.747608       5.733482      -8.137552              1.983149       3.034028      -4.306207
 
                    ************************************************* 
                    **** InterNuclear Distances / Bohr, Angstrom **** 
                    ************************************************* 
 
     Atom centers         Bohr        Angstrom
   13 H12       6 N2      1.929752        1.021181
   16 H15       7 N5      1.932238        1.022496
   18 H17       4 C6      2.090795        1.106401
   10 H9        5 C19     2.091118        1.106572
   12 H11       5 C19     2.094322        1.108267
   15 H14       2 C3      2.095381        1.108828
   11 H10       5 C19     2.096672        1.109511
   19 H18       4 C6      2.097380        1.109885
   14 H13       2 C3      2.100896        1.111746
   17 H16       4 C6      2.102290        1.112484
    9 O8        3 C4      2.313759        1.224389
    8 O7        1 C1      2.317215        1.226217
    7 N5        3 C4      2.607942        1.380063
    6 N2        1 C1      2.609303        1.380784
    7 N5        4 C6      2.743951        1.452036
    6 N2        2 C3      2.761233        1.461181
    5 C19       1 C1      2.888132        1.528334
    3 C4        2 C3      2.929937        1.550456
   11 H10      10 H9      3.367623        1.782070
   18 H17      17 H16     3.398053        1.798172
   15 H14      14 H13     3.400485        1.799459
   12 H11      11 H10     3.403043        1.800813
   19 H18      17 H16     3.412206        1.805662
   19 H18      18 H17     3.412989        1.806076
   12 H11      10 H9      3.414631        1.806945
   16 H15       3 C4      3.888969        2.057954
   13 H12       1 C1      3.898446        2.062969
   18 H17       7 N5      3.908389        2.068230
   15 H14       6 N2      3.945976        2.088121
   19 H18       7 N5      4.007682        2.120774
   14 H13       3 C4      4.009140        2.121546
   13 H12       2 C3      4.018586        2.126544
   16 H15       4 C6      4.026894        2.130940
   14 H13       6 N2      4.031727        2.133498
   17 H16       7 N5      4.045145        2.140599
   10 H9        1 C1      4.067754        2.152562
   11 H10       1 C1      4.080195        2.159146
   15 H14       3 C4      4.120505        2.180477
   12 H11       1 C1      4.207435        2.226479
   13 H12      12 H11     4.262764        2.255758
    8 O7        6 N2      4.323937        2.288129
    9 O8        7 N5      4.338335        2.295748
   15 H14      13 H12     4.375895        2.315624
   18 H17       9 O8      4.489268        2.375618
    8 O7        5 C19     4.572656        2.419745
    9 O8        2 C3      4.596630        2.432432
    6 N2        5 C19     4.634960        2.452715
    7 N5        2 C3      4.636693        2.453632
    4 C6        3 C4      4.671312        2.471952
   14 H13       9 O8      4.689554        2.481605
    2 C3        1 C1      4.740290        2.508454
   16 H15      15 H14     4.752310        2.514814
   18 H17       3 C4      4.775784        2.527236
   17 H16      16 H15     4.790054        2.534788
   13 H12       5 C19     4.808590        2.544596
   16 H15       2 C3      4.811269        2.546014
    6 N2        3 C4      4.818060        2.549607
   19 H18      16 H15     4.819198        2.550210
   12 H11       6 N2      4.899279        2.592587
   15 H14       7 N5      4.982980        2.636880
   10 H9        8 O7      5.004322        2.648173
   14 H13      13 H12     5.116905        2.707750
    9 O8        4 C6      5.359573        2.836164
   11 H10       8 O7      5.361009        2.836924
    8 O7        3 C4      5.400110        2.857615
    8 O7        2 C3      5.421956        2.869176
   16 H15       6 N2      5.467979        2.893530
   14 H13       1 C1      5.566530        2.945681
   18 H17      16 H15     5.646872        2.988196
--
 
 
            Nuclear Potential Energy            460.93193437 au
 
 
      Basis set specifications :
      Symmetry species         a  
      Basis functions          212
 
 
      Input file to MOLDEN was generated!
 
--- Stop Module: seward at Tue Jun 10 21:17:10 2025 /rc=_RC_ALL_IS_WELL_ ---
*** files: orca_geometry_optimisation_315_285_BP86_def2-SVP_def2J_scf_cas1_ras12i11_cas8.GssOrb
           orca_geometry_optimisation_315_285_BP86_def2-SVP_def2J_scf_cas1_ras12i11_cas8.guessorb.molden xmldump
    saved to directory /home/pcaah4/diamide_project
--- Module seward spent 1 minute 50 seconds ---

*** symbolic link created: INPORB -> orca_geometry_optimisation_315_285_BP86_def2-SVP_def2J_scf_cas1_ras12i11_cas8.GssOrb
--- Start Module: rasscf at Tue Jun 10 21:17:11 2025 ---
 
()()()()()()()()()()()()()()()()()()()()()()()()()()()()()()()()()()()()()()()()()()()()()()()()()()

                                              &RASSCF

                                   only a single process is used
                       available to each process: 2.0 GB of memory, 1 thread
                                            pid: 3140316
()()()()()()()()()()()()()()()()()()()()()()()()()()()()()()()()()()()()()()()()()()()()()()()()()()
 
 
      Header of the ONEINT file:
      --------------------------
      orca_geometry_optimisation_315_285_BP86_def2-SVP_def2J_scf_cas1_ras12i11
      Integrals generated by Gateway/Seward, Tue Jun 10 21:15:20 2025
 
 
      OrdInt status: non-squared
 
 
      Cartesian coordinates in Angstrom:
      -----------------------------------------------------
      No.  Label        X            Y            Z        
      -----------------------------------------------------
       1   C1        -0.07254500  -0.10938900  -0.01272100
       2   C3         2.11083900   1.10808500  -0.21991900
       3   C4         1.56396400   2.23276000  -1.13640500
       4   C6         1.23770500   2.89302900  -3.49609700
       5   C19       -0.68619200  -1.48152900   0.26381700
       6   N2         1.30071600  -0.10630600  -0.15662500
       7   N5         1.73569800   1.98053200  -2.48231100
       8   O7        -0.74912600   0.90909200  -0.10515200
       9   O8         1.20365500   3.31515000  -0.69172900
      10   H9        -1.60251100  -1.58605000  -0.34768600
      11   H10       -0.99797300  -1.52673600   1.32766100
      12   H11       -0.00834800  -2.33382000   0.05794300
      13   H12        1.79672600  -0.98156100   0.01862500
      14   H13        2.20288700   1.58496500   0.78012700
      15   H14        3.12576900   0.82306300  -0.56369100
      16   H15        1.90793500   1.01050600  -2.75595800
      17   H16        0.28179400   2.54685600  -3.94778100
      18   H17        1.05449300   3.86396700  -2.99826600
      19   H18        1.98314900   3.03402800  -4.30620700
      -----------------------------------------------------
      Nuclear repulsion energy =  460.93193437
 
++    Wave function specifications:
      -----------------------------
 
      Number of closed shell electrons          58
      Number of electrons in active shells      12
      Max number of holes in RAS1 space          0
      Max nr of electrons in RAS3 space          0
      Number of inactive orbitals               29
      Number of active orbitals                  8
      Number of secondary orbitals             172
      Spin quantum number                      0.0
      State symmetry                             1
--
 
++    Orbital specifications:
      -----------------------
 
      Symmetry species                           1
                                                 a
      Frozen orbitals                            0
      Inactive orbitals                         29
      Active orbitals                            8
      RAS1 orbitals                              0
      RAS2 orbitals                              8
      RAS3 orbitals                              0
      Secondary orbitals                       172
      Deleted orbitals                           3
      Number of basis functions                212
--
 
++    CI expansion specifications:
      ----------------------------
 
      Number of CSFs                           336
      Number of determinants                   406
      Number of root(s) required                 7
      Root chosen for geometry opt.              7
      CI roots used                              1     2     3     4     5     6     7
      weights                                0.143 0.143 0.143 0.143 0.143 0.143 0.143
      highest root included in the CI            7
      max. size of the explicit Hamiltonian    200
--
 
++    Optimization specifications:
      ----------------------------
 
      RASSCF algorithm: Conventional
      Maximum number of macro iterations        64
      Maximum number of SX iterations           25
      Threshold for RASSCF energy            0.100E-07
      Threshold for max MO rotation          0.100E+00
      Threshold for max BLB element          0.100E-03
      Level shift parameter                  0.300E+00
      Make Quasi-Newton update
--
 
      The MO-coefficients are taken from the file:
      /home/pcaah4/diamide_project/cas/ras12i11/ras_orb/orca_geometry_optimisation_315_285_BP86_def2-SVP_def2J_scf_cas1_ras12i11.RasOrb                                                                                                                               
      Title: RASSCF average (pseudo-natural) orbitals                                      
 
      Total molecular charge    0.00
 
      Molecular orbitals exchanged:
        In symmetry  1 :  36  37
        In symmetry  1 :  37  40
 
 
      ************************************************************************************************************************
      *                                                                                                                      *
      *                                            Wave function control section                                             *
      *                                                                                                                      *
      ************************************************************************************************************************
 
 
                                         RASSCF iterations: Energy and convergence statistics
                                         ----------------------------------------------------
 
      Iter CI   SX   CI       RASSCF       Energy    max ROT     max BLB   max BLB  Level Ln srch  Step   QN   Walltime
          iter iter root      energy       change     param      element    value   shift minimum  type update hh:mm:ss
 Nr of preliminary CI iterations:   4
        1   1   25    0  -453.67991060    0.00E+00   0.13E+00*  37  40 1  0.23E-01*  0.16   0.00    SX    NO    0:00:13
        2   6   15    0  -453.69629626   -0.16E-01* -0.81E-01   37  40 1  0.14E-01*  0.14   0.00    SX    NO    0:00:06
        3   3   11    0  -453.69943026   -0.31E-02*  0.46E-01   37  40 1  0.82E-02*  0.14   0.00    SX    NO    0:00:06
        4   4   11    0  -453.70054180   -0.11E-02* -0.27E-01   37  40 1  0.48E-02*  0.14   0.00    SX    NO    0:00:07
        5   5   11    0  -453.70091393   -0.37E-03* -0.43E-01   37  40 1  0.30E-02*  0.14   1.80    QN   YES    0:00:07
        6   5   10    0  -453.70116918   -0.26E-03* -0.24E-02   33  40 1  0.41E-03*  0.14   1.03    QN   YES    0:00:07
        7   3    9    0  -453.70117326   -0.41E-05* -0.27E-02   24  85 1  0.55E-03*  0.14   0.67    QN   YES    0:00:06
        8   7    9    0  -453.70118128   -0.80E-05* -0.17E-02   22  98 1  0.29E-03*  0.14   1.05    QN   YES    0:00:07
        9   3    8    0  -453.70118435   -0.31E-05* -0.16E-02   20  67 1  0.21E-03*  0.14   1.49    QN   YES    0:00:06
       10   7    9    0  -453.70118654   -0.22E-05* -0.90E-03   33  38 1  0.11E-03*  0.14   0.80    QN   YES    0:00:06
       11   3    8    0  -453.70118681   -0.27E-06* -0.35E-03   22  68 1 -0.90E-04   0.14   0.71    QN   YES    0:00:06
       12   7    7    0  -453.70118706   -0.25E-06* -0.71E-04   10  84 1 -0.36E-04   0.14   1.31    QN   YES    0:00:06
       13   4    7    0  -453.70118717   -0.11E-06* -0.96E-04   10  84 1 -0.25E-04   0.14   1.19    QN   YES    0:00:06
       14   6    7    0  -453.70118727   -0.10E-06* -0.43E-04   22  68 1  0.20E-04   0.14   0.88    QN   YES    0:00:06
       15   4    6    0  -453.70118725    0.22E-07* -0.23E-04   22  68 1 -0.38E-04   0.14   0.23    LS   YES    0:00:06
       16   4    7    0  -453.70118726   -0.14E-07* -0.34E-04   24  98 1  0.13E-04   0.14   2.50    LS   YES    0:00:06
       17   4    7    0  -453.70118727   -0.95E-08  -0.42E-04   31  40 1  0.94E-05   0.14   0.85    QN   YES    0:00:06
      Convergence after 17 iterations
       18   1    7    0  -453.70118728   -0.18E-08  -0.42E-04   22  68 1 -0.18E-04   0.14   0.85    QN   YES    0:00:06
 
      ************************************************************************************************************************
                                                      Wave function printout:
                       occupation of active orbitals, and spin coupling of open shells (u,d: Spin up or down)
      ************************************************************************************************************************
 
      Note: transformation to natural orbitals
      has been made, which may change the order of the CSFs.
 
      printout of CI-coefficients larger than  0.05 for root  1
      energy=    -453.953583
      conf/sym  11111111     Coeff  Weight
             1  22222200   0.93880 0.88134
             7  22222u0d   0.15832 0.02507
            15  22222002  -0.09398 0.00883
            24  222u220d  -0.14058 0.01976
            41  22u222d0   0.05897 0.00348
            64  2u22220d  -0.08033 0.00645
            73  2u222d02   0.07359 0.00542
            81  u22222d0  -0.11446 0.01310
           141  22022220  -0.09041 0.00817
           161  u2d22220   0.06380 0.00407
           175  20222202  -0.08189 0.00671
           191  02222220  -0.07457 0.00556
 
      printout of CI-coefficients larger than  0.05 for root  2
      energy=    -453.750497
      conf/sym  11111111     Coeff  Weight
             3  2222u2d0  -0.10450 0.01092
             8  2222u20d  -0.94197 0.88730
            16  2222ud02   0.12169 0.01481
            34  222ud202   0.13305 0.01770
            74  2u22d202  -0.15109 0.02283
            86  u222d2ud   0.06417 0.00412
            88  u222u2dd  -0.10238 0.01048
           144  2202u22d  -0.09348 0.00874
           164  u2d2u22d   0.06399 0.00409
           194  0222u22d  -0.07502 0.00563
 
      printout of CI-coefficients larger than  0.05 for root  3
      energy=    -453.747838
      conf/sym  11111111     Coeff  Weight
             2  22222ud0   0.30257 0.09155
            21  222u22d0  -0.88205 0.77801
            24  222u220d   0.06352 0.00403
            25  222u2dud  -0.10912 0.01191
            27  222u2udd   0.08466 0.00717
            35  222u20d2  -0.09639 0.00929
            41  22u222d0  -0.09279 0.00861
           102  222022ud   0.12243 0.01499
           111  22ud2220   0.15845 0.02511
           131  u22d2220  -0.11387 0.01297
           207  2u2u22dd   0.07888 0.00622
           210  2u2u2dd2  -0.05309 0.00282
           262  202u22d2   0.07392 0.00546
 
      printout of CI-coefficients larger than  0.05 for root  4
      energy=    -453.629976
      conf/sym  11111111     Coeff  Weight
             1  22222200   0.05680 0.00323
             2  22222ud0  -0.11665 0.01361
             3  2222u2d0   0.29222 0.08539
             7  22222u0d   0.17900 0.03204
            12  2222uudd   0.05189 0.00269
            24  222u220d   0.18550 0.03441
            28  222uu2dd   0.05453 0.00297
            41  22u222d0  -0.83151 0.69141
            45  22u22dud  -0.06078 0.00369
            47  22u22udd   0.10924 0.01193
            55  22u220d2  -0.09420 0.00887
            73  2u222d02   0.06143 0.00377
            81  u22222d0  -0.11031 0.01217
           152  2ud222ud   0.05053 0.00255
           161  u2d22220  -0.19626 0.03852
           191  02222220   0.05074 0.00257
           201  22uu22dd  -0.06817 0.00465
           219  2uu222dd   0.07509 0.00564
           222  2uu22dd2  -0.05405 0.00292
           294  20u222d2   0.07051 0.00497
 
      printout of CI-coefficients larger than  0.05 for root  5
      energy=    -453.622052
      conf/sym  11111111     Coeff  Weight
             1  22222200   0.11039 0.01219
             2  22222ud0  -0.21089 0.04448
             3  2222u2d0   0.20186 0.04075
             7  22222u0d  -0.81667 0.66695
            12  2222uudd   0.05401 0.00292
            15  22222002  -0.14583 0.02127
            21  222u22d0  -0.06831 0.00467
            24  222u220d  -0.20464 0.04188
            41  22u222d0  -0.10909 0.01190
            47  22u22udd   0.06970 0.00486
            64  2u22220d  -0.16615 0.02761
            73  2u222d02  -0.24037 0.05778
            85  u2222dud   0.05749 0.00330
            87  u2222udd  -0.09086 0.00825
           143  22022u2d  -0.07992 0.00639
           163  u2d22u2d   0.06168 0.00380
           175  20222202   0.06432 0.00414
           193  02222u2d  -0.06772 0.00459
 
      printout of CI-coefficients larger than  0.05 for root  6
      energy=    -453.608150
      conf/sym  11111111     Coeff  Weight
             2  22222ud0   0.36000 0.12960
             3  2222u2d0   0.73144 0.53501
             7  22222u0d   0.05241 0.00275
             8  2222u20d  -0.08035 0.00646
            10  2222udud  -0.16688 0.02785
            12  2222uudd   0.23374 0.05464
            21  222u22d0   0.06028 0.00363
            25  222u2dud   0.09663 0.00934
            26  222ud2ud   0.21283 0.04530
            28  222uu2dd   0.22869 0.05230
            41  22u222d0   0.25577 0.06542
            65  2u222dud   0.05595 0.00313
            67  2u222udd  -0.05666 0.00321
            83  u222d220   0.05509 0.00303
           107  2220u2d2  -0.10517 0.01106
           161  u2d22220   0.05520 0.00305
           177  2022u2d2  -0.05271 0.00278
           203  22uud22d   0.07645 0.00585
 
      printout of CI-coefficients larger than  0.05 for root  7
      energy=    -453.596215
      conf/sym  11111111     Coeff  Weight
             2  22222ud0   0.73222 0.53615
             3  2222u2d0  -0.23291 0.05425
             7  22222u0d  -0.21045 0.04429
             9  222220ud  -0.14067 0.01979
            10  2222udud   0.07686 0.00591
            12  2222uudd  -0.08712 0.00759
            21  222u22d0   0.27534 0.07581
            24  222u220d  -0.06698 0.00449
            25  222u2dud   0.26232 0.06881
            26  222ud2ud  -0.07794 0.00607
            27  222u2udd   0.10302 0.01061
            28  222uu2dd  -0.09362 0.00876
            41  22u222d0  -0.24267 0.05889
            64  2u22220d  -0.05345 0.00286
            65  2u222dud   0.12469 0.01555
            67  2u222udd  -0.13322 0.01775
            73  2u222d02  -0.05919 0.00350
           102  222022ud   0.07738 0.00599
           106  22202ud2  -0.07028 0.00494
           122  2u2d22ud  -0.07225 0.00522
           161  u2d22220  -0.05044 0.00254
           176  20222ud2  -0.08060 0.00650
           202  22uu2d2d   0.07053 0.00497
 
      Natural orbitals and occupation numbers for root  1
      sym 1:   1.946773   1.996849   1.996439   1.999159   1.999762   1.955673   0.047952   0.057394
 
      Natural orbitals and occupation numbers for root  2
      sym 1:   1.955797   1.999879   1.996278   1.998682   1.003691   1.999621   0.048765   0.997288
 
      Natural orbitals and occupation numbers for root  3
      sym 1:   1.999857   1.996239   1.999562   1.004926   1.998955   1.945933   0.996271   0.058257
 
      Natural orbitals and occupation numbers for root  4
      sym 1:   1.966834   1.985284   1.105765   1.954002   1.978705   1.902668   0.951828   0.154913
 
      Natural orbitals and occupation numbers for root  5
      sym 1:   1.994386   1.955649   1.963354   1.985555   1.933058   1.120477   0.116481   0.931041
 
      Natural orbitals and occupation numbers for root  6
      sym 1:   1.996242   1.984101   1.974365   1.940830   1.090024   1.887622   0.966114   0.160702
 
      Natural orbitals and occupation numbers for root  7
      sym 1:   1.996062   1.977609   1.988881   1.851536   1.949833   1.087796   0.950848   0.197435
 
      ************************************************************************************************************************
      *                                                                                                                      *
      *                                                    Final results                                                     *
      *                                                                                                                      *
      ************************************************************************************************************************
 
 
++    Wave function specifications:
      -----------------------------
 
      Number of closed shell electrons          58
      Number of electrons in active shells      12
      Max number of holes in RAS1 space          0
      Max nr of electrons in RAS3 space          0
      Number of inactive orbitals               29
      Number of active orbitals                  8
      Number of secondary orbitals             172
      Spin quantum number                      0.0
      State symmetry                             1
--
 
++    Orbital specifications:
      -----------------------
 
      Symmetry species                           1
                                                 a
      Frozen orbitals                            0
      Inactive orbitals                         29
      Active orbitals                            8
      RAS1 orbitals                              0
      RAS2 orbitals                              8
      RAS3 orbitals                              0
      Secondary orbitals                       172
      Deleted orbitals                           3
      Number of basis functions                212
--
 
++    CI expansion specifications:
      ----------------------------
 
      Number of CSFs                           336
      Number of determinants                   406
      Number of root(s) required                 7
      CI roots used                              1     2     3     4     5     6     7
      weights                                0.143 0.143 0.143 0.143 0.143 0.143 0.143
      highest root included in the CI            7
      Root passed to geometry opt.               7
--
 
++    Final optimization conditions:
      ------------------------------
 
      Average CI energy                            -453.70118728
      RASSCF energy for state  7                   -453.59621458
      Super-CI energy                                -0.00000000
      RASSCF energy change                            0.00000000
      Max change in MO coefficients               0.672E-04
      Max non-diagonal density matrix element    -0.418E-04
      Maximum BLB matrix element                 -0.178E-04
      (orbital pair  22,  68 in symmetry   1)
      Norm of electronic gradient            0.262E+00
--
 
 
      Final state energy(ies):
      ------------------------
 
::    RASSCF root number  1 Total energy:   -453.95358328
::    RASSCF root number  2 Total energy:   -453.75049674
::    RASSCF root number  3 Total energy:   -453.74783782
::    RASSCF root number  4 Total energy:   -453.62997586
::    RASSCF root number  5 Total energy:   -453.62205225
::    RASSCF root number  6 Total energy:   -453.60815040
::    RASSCF root number  7 Total energy:   -453.59621458
 
++    Molecular orbitals:
      -------------------
 
      Pseudonatural active orbitals and approximate occupation numbers
 
 
 
 
      Molecular orbitals for symmetry species 1: a  
 
 
      Orbital                 1         2         3         4         5         6         7         8         9        10
      Energy           -20.5886  -20.5275  -15.6248  -15.5875  -11.3313  -11.2924  -11.2836  -11.2744  -11.2257   -1.4154
      Occ. No.           2.0000    2.0000    2.0000    2.0000    2.0000    2.0000    2.0000    2.0000    2.0000    2.0000
 
     1 C1     1s        -0.0001    0.0002    0.0001    0.0002   -0.0002   -0.0008   -0.0000    0.9999    0.0062   -0.0007
     2 C1     2s        -0.0004    0.0004    0.0003    0.0007   -0.0009   -0.0012   -0.0001    0.0018    0.0005    0.0401
     3 C1     3s        -0.0004   -0.0008    0.0001    0.0002   -0.0006   -0.0009   -0.0001   -0.0005    0.0007    0.0140
     4 C1     4s        -0.0001   -0.0005   -0.0000    0.0001   -0.0001   -0.0003   -0.0001    0.0013    0.0002    0.0049
     5 C1     2px        0.0001   -0.0012   -0.0002    0.0015   -0.0000   -0.0002   -0.0002    0.0015    0.0003    0.0064
     6 C1     3px        0.0003   -0.0007   -0.0004    0.0012   -0.0001   -0.0004   -0.0002    0.0015   -0.0002    0.0096
     7 C1     4px        0.0001    0.0002   -0.0001   -0.0001   -0.0001   -0.0002   -0.0000    0.0006   -0.0002    0.0018
     8 C1     2py        0.0003    0.0029   -0.0004   -0.0001   -0.0003    0.0003   -0.0003    0.0007    0.0006    0.0202
     9 C1     3py        0.0002    0.0020   -0.0005   -0.0002   -0.0003   -0.0000   -0.0005    0.0007   -0.0001    0.0160
    10 C1     4py       -0.0000   -0.0004   -0.0001   -0.0001   -0.0000   -0.0003   -0.0001    0.0006   -0.0003    0.0055
    11 C1     2pz       -0.0001   -0.0004    0.0001   -0.0001    0.0001   -0.0001    0.0001   -0.0003   -0.0001   -0.0017
    12 C1     3pz       -0.0002   -0.0003    0.0001   -0.0001    0.0002   -0.0001    0.0002   -0.0004    0.0001   -0.0012
    13 C1     4pz       -0.0000    0.0000    0.0000   -0.0000    0.0001   -0.0000    0.0001   -0.0002    0.0001   -0.0011
    14 C1     3d2-      -0.0000    0.0002    0.0000    0.0001   -0.0000    0.0000    0.0000   -0.0004   -0.0001   -0.0019
    15 C1     3d1-      -0.0000   -0.0000    0.0000   -0.0000    0.0000    0.0000   -0.0000   -0.0000   -0.0000   -0.0003
    16 C1     3d0       -0.0000   -0.0000    0.0000    0.0001   -0.0000   -0.0001    0.0000   -0.0003   -0.0001   -0.0023
    17 C1     3d1+       0.0000   -0.0000    0.0000    0.0001    0.0000   -0.0000    0.0000   -0.0000   -0.0000   -0.0000
    18 C1     3d2+      -0.0000    0.0001    0.0000   -0.0002    0.0000    0.0000   -0.0000   -0.0000    0.0001    0.0002
    19 C3     1s         0.0000    0.0001    0.0000    0.0004    0.0070    0.9995   -0.0001    0.0006   -0.0000   -0.0119
    20 C3     2s         0.0001    0.0006    0.0003    0.0021   -0.0004   -0.0013    0.0006   -0.0002   -0.0003    0.0114
    21 C3     3s         0.0001    0.0003    0.0003    0.0011   -0.0005   -0.0026    0.0004   -0.0003   -0.0001   -0.0338
    22 C3     4s        -0.0000    0.0000    0.0001    0.0001   -0.0000    0.0007    0.0000   -0.0001    0.0000   -0.0051
    23 C3     2px        0.0004    0.0003   -0.0007   -0.0004    0.0001    0.0003   -0.0001    0.0009   -0.0003   -0.0098
    24 C3     3px        0.0005    0.0004   -0.0005    0.0002    0.0002    0.0002   -0.0000    0.0011   -0.0004    0.0049
    25 C3     4px        0.0001    0.0001    0.0001    0.0002   -0.0001   -0.0006    0.0000    0.0002   -0.0001   -0.0009
    26 C3     2py       -0.0012   -0.0005    0.0003   -0.0008    0.0005   -0.0006   -0.0001    0.0000    0.0003    0.0306
    27 C3     3py       -0.0011   -0.0004    0.0003   -0.0001   -0.0000   -0.0004   -0.0004    0.0001    0.0002    0.0080
    28 C3     4py       -0.0000    0.0001   -0.0000    0.0003   -0.0002   -0.0004   -0.0002    0.0000   -0.0001    0.0023
    29 C3     2pz       -0.0007   -0.0003    0.0004   -0.0005    0.0002   -0.0002   -0.0004   -0.0004    0.0004    0.0130
    30 C3     3pz       -0.0006   -0.0003    0.0003   -0.0007    0.0005   -0.0001   -0.0004   -0.0006    0.0004    0.0204
    31 C3     4pz        0.0001    0.0000    0.0000   -0.0001    0.0001   -0.0003   -0.0000   -0.0002    0.0000   -0.0053
    32 C3     3d2-       0.0000    0.0000   -0.0000   -0.0000   -0.0000   -0.0001   -0.0000    0.0000   -0.0000   -0.0015
    33 C3     3d1-      -0.0000    0.0000    0.0000   -0.0000   -0.0000    0.0001   -0.0001    0.0000    0.0000   -0.0023
    34 C3     3d0        0.0001   -0.0000    0.0000    0.0000   -0.0001    0.0000   -0.0000   -0.0000    0.0000   -0.0051
    35 C3     3d1+       0.0000   -0.0000    0.0000   -0.0000   -0.0000   -0.0001    0.0000   -0.0000    0.0000    0.0003
    36 C3     3d2+       0.0000    0.0000   -0.0001    0.0000    0.0000    0.0001   -0.0000    0.0001   -0.0000   -0.0029
    37 C4     1s         0.0005    0.0000    0.0003   -0.0000    1.0000   -0.0070    0.0002   -0.0000    0.0000   -0.0416
    38 C4     2s         0.0021    0.0003    0.0014   -0.0002    0.0025    0.0009   -0.0002   -0.0002    0.0002    0.3350
    39 C4     3s         0.0004    0.0002    0.0007    0.0000    0.0001    0.0003   -0.0002   -0.0002    0.0001   -0.0208
    40 C4     4s        -0.0001    0.0001    0.0002    0.0000    0.0013    0.0000   -0.0001   -0.0001    0.0000   -0.0011
    41 C4     2px       -0.0012   -0.0002    0.0000    0.0001   -0.0001    0.0005   -0.0001   -0.0004    0.0002   -0.0130
    42 C4     3px       -0.0011   -0.0003   -0.0000   -0.0001   -0.0006    0.0005    0.0000   -0.0006    0.0003    0.0319
    43 C4     4px       -0.0000   -0.0001   -0.0000   -0.0001   -0.0002    0.0001    0.0001   -0.0001    0.0001   -0.0048
    44 C4     2py        0.0028   -0.0000   -0.0004   -0.0001    0.0007   -0.0008    0.0002    0.0001   -0.0001    0.1155
    45 C4     3py        0.0020   -0.0000   -0.0004   -0.0001    0.0002   -0.0001   -0.0002    0.0002   -0.0002   -0.0571
    46 C4     4py       -0.0003    0.0000   -0.0001    0.0000    0.0005    0.0002   -0.0003    0.0001   -0.0001    0.0262
    47 C4     2pz        0.0016    0.0005   -0.0017   -0.0002   -0.0009    0.0011    0.0003    0.0002   -0.0002    0.0092
    48 C4     3pz        0.0013    0.0006   -0.0012    0.0001   -0.0007    0.0009    0.0009    0.0003   -0.0002   -0.0350
    49 C4     4pz       -0.0001    0.0000    0.0002    0.0002   -0.0004    0.0000    0.0005    0.0001    0.0000    0.0043
    50 C4     3d2-       0.0000   -0.0000    0.0000    0.0000   -0.0003    0.0001   -0.0000    0.0000   -0.0000   -0.0212
    51 C4     3d1-      -0.0001   -0.0000   -0.0001   -0.0000    0.0004   -0.0001    0.0000   -0.0000    0.0000    0.0253
    52 C4     3d0        0.0001   -0.0000   -0.0001    0.0000    0.0000   -0.0000    0.0001    0.0000    0.0000   -0.0070
    53 C4     3d1+       0.0000    0.0000    0.0001    0.0001   -0.0002    0.0000   -0.0000    0.0000    0.0000   -0.0086
    54 C4     3d2+      -0.0000   -0.0000    0.0000    0.0000   -0.0004   -0.0000   -0.0000    0.0000   -0.0000   -0.0288
    55 C6     1s         0.0001    0.0000    0.0003   -0.0001   -0.0002    0.0002    0.9997    0.0000    0.0000   -0.0071
    56 C6     2s         0.0003    0.0002    0.0013   -0.0007   -0.0000    0.0003   -0.0001   -0.0001    0.0002    0.0277
    57 C6     3s         0.0002    0.0001    0.0003   -0.0005   -0.0003    0.0002   -0.0017   -0.0002    0.0002   -0.0074
    58 C6     4s         0.0000    0.0000   -0.0001   -0.0001   -0.0002    0.0000    0.0009   -0.0001    0.0000    0.0006
    59 C6     2px        0.0005    0.0000    0.0002   -0.0001   -0.0001   -0.0000    0.0001   -0.0001    0.0000   -0.0051
    60 C6     3px        0.0005    0.0000    0.0000   -0.0001   -0.0000   -0.0001   -0.0001   -0.0001    0.0000   -0.0100
    61 C6     4px        0.0000    0.0000   -0.0000    0.0000    0.0000   -0.0000    0.0002    0.0000   -0.0000    0.0007
    62 C6     2py        0.0001   -0.0001   -0.0004    0.0001   -0.0000   -0.0001   -0.0002    0.0000   -0.0000   -0.0104
    63 C6     3py        0.0001   -0.0000    0.0000    0.0001   -0.0001   -0.0001    0.0002    0.0000   -0.0000    0.0010
    64 C6     4py       -0.0001    0.0000    0.0002   -0.0000   -0.0000    0.0000   -0.0004    0.0000    0.0000   -0.0012
    65 C6     2pz        0.0001   -0.0001    0.0002   -0.0001   -0.0005    0.0002   -0.0000   -0.0001    0.0001    0.0230
    66 C6     3pz        0.0000   -0.0001   -0.0002   -0.0001   -0.0007    0.0001   -0.0001   -0.0002    0.0001    0.0023
    67 C6     4pz       -0.0000    0.0000   -0.0002   -0.0000   -0.0002   -0.0001    0.0006   -0.0001    0.0000    0.0021
    68 C6     3d2-      -0.0000    0.0000    0.0001    0.0000    0.0000   -0.0000    0.0001    0.0000   -0.0000   -0.0014
    69 C6     3d1-      -0.0000   -0.0000    0.0000    0.0000    0.0000   -0.0000    0.0001    0.0000   -0.0000   -0.0030
    70 C6     3d0        0.0000   -0.0000   -0.0000    0.0000    0.0001    0.0000    0.0000    0.0000    0.0000    0.0015
    71 C6     3d1+      -0.0000   -0.0000   -0.0001   -0.0000    0.0000    0.0000   -0.0001    0.0000   -0.0000    0.0026
    72 C6     3d2+      -0.0000    0.0000    0.0001   -0.0000   -0.0000   -0.0000    0.0001   -0.0000    0.0000   -0.0012
    73 C19    1s        -0.0000    0.0002   -0.0000   -0.0000    0.0000    0.0001   -0.0000    0.0061   -1.0000    0.0002
    74 C19    2s        -0.0003    0.0010   -0.0003   -0.0001    0.0002    0.0008   -0.0003    0.0006   -0.0020    0.0089
    75 C19    3s        -0.0003    0.0006   -0.0003   -0.0000    0.0001    0.0005   -0.0003    0.0002    0.0004    0.0081
    76 C19    4s        -0.0001    0.0000   -0.0001   -0.0000    0.0000    0.0001   -0.0001    0.0001   -0.0012    0.0038
    77 C19    2px        0.0000    0.0007    0.0000   -0.0003    0.0002    0.0002   -0.0000   -0.0002    0.0001   -0.0001
    78 C19    3px       -0.0000    0.0004    0.0001   -0.0002    0.0001    0.0002   -0.0000   -0.0004    0.0001   -0.0002
    79 C19    4px       -0.0000   -0.0002    0.0000   -0.0000   -0.0000   -0.0000    0.0000   -0.0001   -0.0002    0.0005
    80 C19    2py       -0.0001   -0.0001   -0.0002    0.0003    0.0000    0.0003   -0.0001    0.0004    0.0004    0.0081
    81 C19    3py       -0.0001   -0.0002   -0.0002    0.0003    0.0000    0.0001   -0.0001   -0.0000    0.0000    0.0064
    82 C19    4py        0.0000   -0.0001    0.0000   -0.0000   -0.0000   -0.0001    0.0000   -0.0001   -0.0003    0.0003
    83 C19    2pz       -0.0001   -0.0002   -0.0001    0.0001   -0.0001   -0.0000   -0.0000    0.0001   -0.0001    0.0010
    84 C19    3pz       -0.0000   -0.0001   -0.0001    0.0001   -0.0001    0.0000   -0.0000    0.0002   -0.0000    0.0011
    85 C19    4pz       -0.0000    0.0001   -0.0000    0.0000   -0.0000    0.0000   -0.0000    0.0000    0.0001   -0.0001
    86 C19    3d2-      -0.0000    0.0001   -0.0000   -0.0000    0.0000    0.0001   -0.0000   -0.0000    0.0001    0.0003
    87 C19    3d1-       0.0000   -0.0000    0.0000   -0.0000   -0.0000   -0.0000    0.0000    0.0000   -0.0000   -0.0002
    88 C19    3d0       -0.0000   -0.0001   -0.0000   -0.0001   -0.0000   -0.0000   -0.0000    0.0001   -0.0001    0.0003
    89 C19    3d1+      -0.0000   -0.0000    0.0000   -0.0000   -0.0000   -0.0000   -0.0000    0.0000   -0.0000    0.0000
    90 C19    3d2+      -0.0000    0.0001    0.0000   -0.0000   -0.0000   -0.0000    0.0000   -0.0001   -0.0001   -0.0003
    91 N2     1s        -0.0000    0.0001   -0.0001    0.9998    0.0001    0.0001    0.0000   -0.0003   -0.0001   -0.0015
    92 N2     2s        -0.0002    0.0004   -0.0003   -0.0002    0.0005    0.0018    0.0000   -0.0004   -0.0004    0.0324
    93 N2     3s        -0.0001    0.0003   -0.0003   -0.0016    0.0004    0.0010    0.0000   -0.0005   -0.0003   -0.0009
    94 N2     4s        -0.0000    0.0001   -0.0001    0.0004    0.0001    0.0003    0.0000    0.0000   -0.0001   -0.0007
    95 N2     2px       -0.0006   -0.0001    0.0001    0.0001    0.0001    0.0003   -0.0001   -0.0004    0.0004    0.0096
    96 N2     3px       -0.0010   -0.0002    0.0002   -0.0001    0.0001   -0.0000   -0.0002   -0.0003    0.0003    0.0138
    97 N2     4px       -0.0001   -0.0000    0.0000   -0.0000   -0.0000   -0.0000   -0.0000   -0.0002   -0.0001    0.0008
    98 N2     2py       -0.0000   -0.0015   -0.0002   -0.0005    0.0004    0.0008   -0.0000    0.0007    0.0001    0.0070
    99 N2     3py       -0.0001   -0.0018   -0.0002    0.0003    0.0004    0.0008    0.0000    0.0008    0.0001   -0.0033
   100 N2     4py       -0.0000   -0.0000    0.0000    0.0006   -0.0001    0.0001    0.0000    0.0000   -0.0001   -0.0012
   101 N2     2pz        0.0002    0.0003    0.0000    0.0002   -0.0001   -0.0000    0.0000    0.0001   -0.0001   -0.0063
   102 N2     3pz        0.0002    0.0004    0.0000   -0.0001   -0.0001    0.0000   -0.0000    0.0000   -0.0001   -0.0074
   103 N2     4pz        0.0000    0.0000   -0.0000    0.0001   -0.0000    0.0000   -0.0000    0.0000    0.0000   -0.0002
   104 N2     3d2-      -0.0000    0.0001   -0.0000   -0.0002    0.0000   -0.0000    0.0000   -0.0001    0.0000    0.0003
   105 N2     3d1-       0.0000   -0.0000    0.0000   -0.0000   -0.0000   -0.0000    0.0000    0.0001    0.0000   -0.0006
   106 N2     3d0       -0.0000   -0.0000    0.0000    0.0001   -0.0000    0.0001   -0.0000    0.0001    0.0001   -0.0006
   107 N2     3d1+       0.0000   -0.0000    0.0000    0.0000   -0.0000    0.0000   -0.0000    0.0000    0.0000   -0.0008
   108 N2     3d2+      -0.0000   -0.0001    0.0000    0.0000   -0.0000   -0.0000   -0.0000    0.0000   -0.0000    0.0002
   109 N5     1s         0.0001   -0.0000    0.9998   -0.0000   -0.0002    0.0000    0.0001    0.0000   -0.0000   -0.0174
   110 N5     2s         0.0009   -0.0000    0.0001   -0.0003   -0.0002    0.0003    0.0016    0.0002   -0.0003    0.1129
   111 N5     3s         0.0006   -0.0000   -0.0013   -0.0002   -0.0003    0.0002    0.0009    0.0001   -0.0002   -0.0447
   112 N5     4s         0.0001   -0.0000    0.0005   -0.0001    0.0000    0.0000    0.0004   -0.0000   -0.0000   -0.0104
   113 N5     2px        0.0004    0.0000    0.0001   -0.0001    0.0003   -0.0000   -0.0003    0.0002   -0.0000   -0.0056
   114 N5     3px        0.0005    0.0001    0.0002   -0.0001    0.0001   -0.0000   -0.0004    0.0003   -0.0000    0.0020
   115 N5     4px        0.0000    0.0000   -0.0005   -0.0000   -0.0000   -0.0000   -0.0001    0.0000   -0.0000    0.0007
   116 N5     2py       -0.0013    0.0002   -0.0009    0.0003    0.0004   -0.0001    0.0005    0.0001   -0.0001    0.0383
   117 N5     3py       -0.0016    0.0002   -0.0003    0.0005    0.0000    0.0000    0.0006    0.0003   -0.0002    0.0079
   118 N5     4py        0.0000   -0.0000    0.0003    0.0001   -0.0001    0.0001    0.0002    0.0001   -0.0000   -0.0045
   119 N5     2pz        0.0001    0.0002   -0.0002   -0.0006    0.0002    0.0002   -0.0008   -0.0003    0.0001    0.0204
   120 N5     3pz        0.0002    0.0002   -0.0001   -0.0008    0.0002    0.0000   -0.0005   -0.0005    0.0001   -0.0220
   121 N5     4pz       -0.0000   -0.0000    0.0002   -0.0000    0.0003   -0.0001    0.0000   -0.0001    0.0000    0.0046
   122 N5     3d2-      -0.0000    0.0000    0.0000    0.0000    0.0001   -0.0000    0.0001   -0.0000   -0.0000   -0.0012
   123 N5     3d1-      -0.0001    0.0000    0.0001    0.0000    0.0001    0.0000    0.0000    0.0000   -0.0000    0.0048
   124 N5     3d0        0.0000    0.0000   -0.0001   -0.0000   -0.0001    0.0000   -0.0001   -0.0000    0.0000    0.0040
   125 N5     3d1+       0.0000   -0.0000   -0.0000    0.0000   -0.0000   -0.0000   -0.0000    0.0000    0.0000   -0.0012
   126 N5     3d2+      -0.0001    0.0000   -0.0001    0.0000    0.0001   -0.0000    0.0000   -0.0000    0.0000    0.0002
   127 O7     1s        -0.0001    0.9997    0.0000    0.0000    0.0000   -0.0000    0.0000   -0.0002   -0.0001   -0.0020
   128 O7     2s        -0.0003   -0.0013    0.0001    0.0002    0.0003   -0.0002    0.0000    0.0006   -0.0004    0.0390
   129 O7     3s        -0.0003   -0.0013    0.0000    0.0001    0.0003   -0.0001    0.0000    0.0001   -0.0003   -0.0025
   130 O7     4s        -0.0001    0.0001   -0.0000   -0.0000    0.0001   -0.0000    0.0000    0.0000   -0.0001   -0.0004
   131 O7     2px       -0.0003    0.0001   -0.0000   -0.0003    0.0001   -0.0000   -0.0001    0.0004   -0.0001    0.0102
   132 O7     3px       -0.0004   -0.0003   -0.0000   -0.0005    0.0001    0.0000   -0.0001   -0.0001   -0.0001    0.0043
   133 O7     4px       -0.0001    0.0008   -0.0000   -0.0001   -0.0000    0.0000   -0.0000    0.0000    0.0000    0.0017
   134 O7     2py       -0.0002   -0.0003    0.0000   -0.0002   -0.0002    0.0000    0.0000   -0.0008    0.0002   -0.0011
   135 O7     3py       -0.0004    0.0004    0.0001   -0.0002   -0.0002   -0.0000   -0.0000   -0.0005    0.0002    0.0097
   136 O7     4py       -0.0002   -0.0011    0.0000    0.0000   -0.0001    0.0000   -0.0000   -0.0003   -0.0000    0.0023
   137 O7     2pz        0.0001    0.0000    0.0001    0.0001    0.0000   -0.0000    0.0000    0.0002   -0.0000   -0.0033
   138 O7     3pz        0.0002   -0.0000    0.0001    0.0000    0.0001    0.0000    0.0000    0.0001   -0.0000   -0.0050
   139 O7     4pz        0.0001    0.0001    0.0000   -0.0000    0.0000   -0.0000    0.0000    0.0000   -0.0000   -0.0015
   140 O7     3d2-      -0.0000    0.0001    0.0000    0.0000    0.0000    0.0000    0.0000   -0.0002    0.0000   -0.0009
   141 O7     3d1-       0.0000    0.0000    0.0000   -0.0000   -0.0000    0.0000    0.0000   -0.0000    0.0000   -0.0002
   142 O7     3d0        0.0000    0.0000   -0.0000   -0.0000   -0.0000   -0.0000    0.0000   -0.0001    0.0000   -0.0010
   143 O7     3d1+       0.0000   -0.0000    0.0000   -0.0000   -0.0000   -0.0000    0.0000    0.0000    0.0000   -0.0002
   144 O7     3d2+      -0.0000    0.0000   -0.0000   -0.0001    0.0000   -0.0000    0.0000   -0.0001    0.0000   -0.0001
   145 O8     1s         0.9997   -0.0000    0.0000    0.0000   -0.0003    0.0000   -0.0001    0.0000    0.0000   -0.0238
   146 O8     2s        -0.0018   -0.0002    0.0002    0.0002    0.0002    0.0002   -0.0004    0.0000    0.0000    0.6922
   147 O8     3s        -0.0016   -0.0001    0.0001    0.0001   -0.0001    0.0001   -0.0002   -0.0000    0.0000   -0.0325
   148 O8     4s        -0.0000   -0.0000   -0.0000   -0.0000   -0.0000    0.0000   -0.0001   -0.0000    0.0000   -0.0130
   149 O8     2px        0.0001    0.0000    0.0000   -0.0000    0.0006   -0.0000   -0.0000    0.0001   -0.0000    0.0560
   150 O8     3px       -0.0002    0.0000    0.0000   -0.0000    0.0002   -0.0001   -0.0000    0.0001   -0.0001   -0.0151
   151 O8     4px        0.0004    0.0000   -0.0000   -0.0000    0.0001   -0.0000   -0.0000    0.0000   -0.0000   -0.0009
   152 O8     2py       -0.0003    0.0000   -0.0001   -0.0001   -0.0005   -0.0001    0.0001   -0.0001    0.0000   -0.1242
   153 O8     3py        0.0004   -0.0000    0.0000   -0.0000   -0.0003   -0.0001    0.0000   -0.0001    0.0001    0.0405
   154 O8     4py       -0.0013   -0.0000    0.0001    0.0000   -0.0004    0.0000   -0.0000   -0.0000    0.0000    0.0002
   155 O8     2pz       -0.0002   -0.0001    0.0003   -0.0000   -0.0003   -0.0001    0.0001   -0.0001    0.0000   -0.0601
   156 O8     3pz        0.0001   -0.0001    0.0004   -0.0000    0.0000   -0.0002    0.0000   -0.0001    0.0000    0.0208
   157 O8     4pz       -0.0006   -0.0000    0.0001    0.0000   -0.0000   -0.0000   -0.0000   -0.0000   -0.0000    0.0021
   158 O8     3d2-      -0.0000   -0.0000   -0.0000    0.0000   -0.0001   -0.0000   -0.0000   -0.0000    0.0000   -0.0106
   159 O8     3d1-      -0.0000    0.0000   -0.0000    0.0000    0.0001    0.0000   -0.0000    0.0000   -0.0000    0.0130
   160 O8     3d0        0.0001    0.0000   -0.0000   -0.0000   -0.0001    0.0000   -0.0000    0.0000   -0.0000   -0.0059
   161 O8     3d1+       0.0000    0.0000    0.0000    0.0000   -0.0001    0.0000    0.0000    0.0000    0.0000   -0.0045
   162 O8     3d2+      -0.0000    0.0000   -0.0001   -0.0000   -0.0001   -0.0000   -0.0000   -0.0000    0.0000   -0.0122
   163 H9     1s         0.0001    0.0001   -0.0001    0.0001    0.0000   -0.0002   -0.0000    0.0001   -0.0003    0.0046
   164 H9     2s         0.0001    0.0001   -0.0001    0.0001   -0.0000   -0.0001   -0.0000    0.0001    0.0003    0.0032
   165 H9     2px        0.0000   -0.0000   -0.0000    0.0000    0.0000   -0.0000   -0.0000    0.0001    0.0001    0.0006
   166 H9     2py        0.0000   -0.0001    0.0000   -0.0000    0.0000   -0.0000    0.0000    0.0000   -0.0000    0.0000
   167 H9     2pz        0.0000    0.0000   -0.0000   -0.0000    0.0000   -0.0000   -0.0000    0.0000    0.0001    0.0002
   168 H10    1s         0.0002    0.0003    0.0000    0.0000    0.0000   -0.0001   -0.0000   -0.0001   -0.0003    0.0012
   169 H10    2s         0.0002    0.0002    0.0000   -0.0000    0.0000   -0.0001   -0.0000   -0.0000    0.0003    0.0009
   170 H10    2px       -0.0000   -0.0000   -0.0000    0.0000   -0.0000   -0.0000   -0.0000    0.0000    0.0000    0.0003
   171 H10    2py        0.0000   -0.0000   -0.0000   -0.0000   -0.0000    0.0000   -0.0000    0.0001   -0.0000   -0.0001
   172 H10    2pz       -0.0000   -0.0000    0.0000   -0.0000   -0.0000    0.0000    0.0000   -0.0000   -0.0001   -0.0004
   173 H11    1s        -0.0001   -0.0003   -0.0002    0.0004   -0.0002    0.0000   -0.0001    0.0003   -0.0002    0.0084
   174 H11    2s        -0.0000   -0.0002   -0.0002    0.0003   -0.0001    0.0000   -0.0001    0.0002    0.0003    0.0053
   175 H11    2px        0.0000   -0.0000    0.0000   -0.0000    0.0000    0.0000    0.0000    0.0000   -0.0001   -0.0007
   176 H11    2py       -0.0000   -0.0000   -0.0000   -0.0000   -0.0000    0.0000   -0.0000    0.0001    0.0001    0.0008
   177 H11    2pz       -0.0000   -0.0000   -0.0000    0.0000   -0.0000   -0.0000    0.0000    0.0000    0.0000    0.0002
   178 H12    1s         0.0001   -0.0011    0.0001   -0.0003    0.0003   -0.0000   -0.0002    0.0007    0.0003    0.0026
   179 H12    2s         0.0000   -0.0006    0.0001   -0.0002    0.0002    0.0000   -0.0001    0.0003    0.0001   -0.0019
   180 H12    2px        0.0000    0.0000    0.0000    0.0003   -0.0000    0.0000    0.0000   -0.0002   -0.0000   -0.0008
   181 H12    2py       -0.0000   -0.0000    0.0000   -0.0004    0.0000    0.0000   -0.0000    0.0000    0.0000    0.0010
   182 H12    2pz       -0.0000    0.0000   -0.0000    0.0001   -0.0000    0.0000    0.0000   -0.0000   -0.0000    0.0003
   183 H13    1s         0.0005    0.0003   -0.0002   -0.0003   -0.0002    0.0011   -0.0000   -0.0003   -0.0003    0.0062
   184 H13    2s         0.0003    0.0002   -0.0001   -0.0001   -0.0001    0.0002   -0.0000   -0.0002   -0.0002   -0.0055
   185 H13    2px        0.0000    0.0000    0.0000    0.0000   -0.0000   -0.0000    0.0000    0.0000    0.0000   -0.0008
   186 H13    2py       -0.0000   -0.0000    0.0000    0.0000   -0.0000   -0.0001   -0.0000    0.0000    0.0000    0.0004
   187 H13    2pz       -0.0000    0.0000   -0.0000   -0.0001   -0.0000   -0.0001    0.0000    0.0000    0.0000   -0.0007
   188 H14    1s        -0.0001   -0.0004    0.0006   -0.0008    0.0001    0.0005   -0.0002   -0.0007    0.0003    0.0183
   189 H14    2s        -0.0001   -0.0002    0.0004   -0.0005    0.0001   -0.0001   -0.0001   -0.0005    0.0002    0.0046
   190 H14    2px        0.0000    0.0000   -0.0001    0.0000   -0.0001    0.0000    0.0000    0.0000   -0.0000   -0.0019
   191 H14    2py        0.0001    0.0000   -0.0000    0.0000    0.0000   -0.0000    0.0000   -0.0000   -0.0000   -0.0004
   192 H14    2pz        0.0000   -0.0000    0.0001    0.0000   -0.0001   -0.0000   -0.0000   -0.0000    0.0000   -0.0015
   193 H15    1s        -0.0011    0.0006   -0.0008   -0.0000    0.0003   -0.0002   -0.0003   -0.0002   -0.0000    0.0389
   194 H15    2s        -0.0006    0.0004   -0.0006   -0.0000    0.0000   -0.0001   -0.0001   -0.0002   -0.0000   -0.0007
   195 H15    2px       -0.0000   -0.0000    0.0000    0.0000    0.0000    0.0000   -0.0000    0.0000    0.0000   -0.0007
   196 H15    2py       -0.0001    0.0000   -0.0005    0.0000    0.0001   -0.0000    0.0000   -0.0001    0.0000    0.0056
   197 H15    2pz       -0.0000    0.0000   -0.0001   -0.0000    0.0001    0.0000   -0.0001   -0.0000    0.0000    0.0028
   198 H16    1s         0.0007   -0.0000   -0.0005    0.0000   -0.0004   -0.0000    0.0006   -0.0001   -0.0000    0.0032
   199 H16    2s         0.0005    0.0000   -0.0002    0.0000   -0.0003   -0.0000   -0.0001   -0.0001   -0.0000   -0.0040
   200 H16    2px        0.0000   -0.0000   -0.0000    0.0000   -0.0001    0.0000    0.0000   -0.0000    0.0000    0.0009
   201 H16    2py        0.0000   -0.0000    0.0000   -0.0000   -0.0000    0.0000   -0.0000   -0.0000    0.0000   -0.0003
   202 H16    2pz        0.0001    0.0000   -0.0001    0.0000   -0.0000   -0.0000    0.0001   -0.0000   -0.0000    0.0002
   203 H17    1s        -0.0000   -0.0000   -0.0001   -0.0001   -0.0001   -0.0000    0.0010   -0.0000    0.0000    0.0089
   204 H17    2s         0.0000   -0.0000    0.0000   -0.0000   -0.0000   -0.0000    0.0001   -0.0000    0.0000   -0.0044
   205 H17    2px       -0.0000    0.0000    0.0000    0.0000    0.0000    0.0000    0.0000    0.0000   -0.0000    0.0006
   206 H17    2py       -0.0000   -0.0000   -0.0000    0.0000    0.0000   -0.0000   -0.0001    0.0000   -0.0000   -0.0005
   207 H17    2pz       -0.0000   -0.0000   -0.0000   -0.0000    0.0000   -0.0000   -0.0000    0.0000   -0.0000    0.0008
   208 H18    1s        -0.0001   -0.0001   -0.0005    0.0001   -0.0004    0.0001    0.0006   -0.0002    0.0001    0.0138
   209 H18    2s        -0.0001   -0.0001   -0.0002    0.0000   -0.0003    0.0001   -0.0001   -0.0002    0.0000    0.0051
   210 H18    2px        0.0000    0.0000    0.0000   -0.0000    0.0001   -0.0000    0.0000    0.0000    0.0000   -0.0009
   211 H18    2py       -0.0000    0.0000    0.0000    0.0000    0.0000    0.0000   -0.0000    0.0000   -0.0000   -0.0003
   212 H18    2pz       -0.0000   -0.0000   -0.0000    0.0000   -0.0000    0.0000    0.0000   -0.0000    0.0000    0.0013
 
 
      Orbital                11        12        13        14        15        16        17        18        19        20
      Energy            -1.3627   -1.2486   -1.2143   -1.0106   -0.9645   -0.9194   -0.8100   -0.7744   -0.6977   -0.6805
      Occ. No.           2.0000    2.0000    2.0000    2.0000    2.0000    2.0000    2.0000    2.0000    2.0000    2.0000
 
     1 C1     1s         0.0390    0.0013    0.0053   -0.0126    0.0076    0.0047    0.0066   -0.0132    0.0044    0.0005
     2 C1     2s        -0.3624    0.0216   -0.1068    0.2139   -0.1605   -0.0089   -0.1646    0.3468   -0.0911   -0.0266
     3 C1     3s         0.0014    0.0138   -0.0048   -0.0094    0.0052    0.0142   -0.0028   -0.0008    0.0111   -0.0019
     4 C1     4s        -0.0034    0.0048   -0.0011   -0.0037    0.0014    0.0053    0.0003   -0.0027    0.0030   -0.0005
     5 C1     2px        0.0477    0.0455   -0.1304    0.0300    0.0561   -0.1046   -0.0835    0.1303    0.0268    0.0045
     6 C1     3px       -0.0169    0.0146    0.0517   -0.0486    0.0128    0.0264    0.0255   -0.0280    0.0031   -0.0073
     7 C1     4px        0.0153    0.0105   -0.0231   -0.0037    0.0099   -0.0131   -0.0060    0.0091    0.0038   -0.0000
     8 C1     2py       -0.0980    0.0144    0.0372   -0.1134    0.1111   -0.0163   -0.0010    0.0177   -0.0636    0.0050
     9 C1     3py        0.0624    0.0430   -0.0467   -0.0023   -0.0305    0.0648    0.0044   -0.0133    0.0311   -0.0060
    10 C1     4py       -0.0233    0.0045    0.0072   -0.0185    0.0171    0.0022   -0.0001    0.0028   -0.0023   -0.0009
    11 C1     2pz        0.0076   -0.0078   -0.0008    0.0122   -0.0274    0.0183    0.0101   -0.0160   -0.0027    0.0107
    12 C1     3pz       -0.0090   -0.0116   -0.0036   -0.0045   -0.0026   -0.0064   -0.0037    0.0069   -0.0065    0.0064
    13 C1     4pz        0.0022   -0.0036   -0.0002    0.0006   -0.0047    0.0020    0.0006   -0.0008   -0.0024    0.0033
    14 C1     3d2-       0.0324    0.0035   -0.0138    0.0043   -0.0090    0.0086   -0.0018    0.0104   -0.0095    0.0013
    15 C1     3d1-       0.0058    0.0000   -0.0011   -0.0017    0.0035   -0.0028    0.0007   -0.0028    0.0020    0.0001
    16 C1     3d0        0.0273   -0.0007    0.0047   -0.0087    0.0045    0.0030    0.0061   -0.0116    0.0025    0.0001
    17 C1     3d1+      -0.0014   -0.0012    0.0043   -0.0031    0.0021    0.0010    0.0030   -0.0060    0.0000    0.0025
    18 C1     3d2+       0.0086    0.0054   -0.0262    0.0073    0.0077   -0.0149   -0.0078    0.0106    0.0002    0.0012
    19 C3     1s         0.0088   -0.0117    0.0302    0.0369   -0.0013   -0.0255   -0.0076   -0.0028    0.0045   -0.0034
    20 C3     2s        -0.0244    0.0608   -0.1902   -0.3336    0.0207    0.3724    0.0723    0.0795   -0.1023    0.0191
    21 C3     3s         0.0166   -0.0263    0.0528    0.0650   -0.0017   -0.0240   -0.0143   -0.0056    0.0022   -0.0141
    22 C3     4s         0.0023   -0.0048    0.0127    0.0178   -0.0017   -0.0076   -0.0038   -0.0030    0.0013   -0.0034
    23 C3     2px        0.0293   -0.0066    0.0568   -0.0259   -0.0068    0.0335    0.0503   -0.0638   -0.0215   -0.0288
    24 C3     3px        0.0122    0.0132   -0.0174   -0.0435    0.0148    0.0023   -0.0032   -0.0006   -0.0075    0.0079
    25 C3     4px        0.0036    0.0022   -0.0047   -0.0163    0.0052    0.0131    0.0065    0.0004    0.0002   -0.0018
    26 C3     2py        0.0171   -0.0135    0.1004   -0.0265   -0.0343    0.0428   -0.1300    0.1810    0.1938    0.0328
    27 C3     3py       -0.0003    0.0048    0.0142    0.0230    0.0515   -0.0169   -0.0069    0.0029   -0.0303   -0.0011
    28 C3     4py        0.0053    0.0023    0.0134   -0.0021    0.0025    0.0031   -0.0096    0.0094   -0.0010    0.0014
    29 C3     2pz       -0.0154   -0.0240   -0.0190    0.0530    0.0454    0.0230    0.0559    0.0081   -0.1159    0.2163
    30 C3     3pz       -0.0196    0.0075   -0.0243   -0.0008   -0.0017    0.0299   -0.0148    0.0054    0.0182   -0.0120
    31 C3     4pz       -0.0038    0.0027   -0.0099   -0.0054    0.0030    0.0158    0.0023    0.0040   -0.0050    0.0055
    32 C3     3d2-      -0.0047    0.0052   -0.0174    0.0053    0.0090   -0.0077    0.0045   -0.0049   -0.0206    0.0043
    33 C3     3d1-       0.0010   -0.0044    0.0030    0.0080    0.0064   -0.0007    0.0103   -0.0022   -0.0125    0.0107
    34 C3     3d0        0.0014    0.0013    0.0102    0.0002   -0.0060    0.0008   -0.0054    0.0080    0.0040    0.0005
    35 C3     3d1+      -0.0003    0.0018    0.0001   -0.0032   -0.0029    0.0004   -0.0058    0.0062    0.0073   -0.0009
    36 C3     3d2+       0.0010   -0.0005    0.0092    0.0036   -0.0025   -0.0014   -0.0031    0.0094   -0.0093   -0.0052
    37 C4     1s        -0.0043   -0.0071   -0.0027    0.0146    0.0099    0.0026    0.0179    0.0015   -0.0061   -0.0012
    38 C4     2s        -0.0007    0.1378   -0.0161   -0.2151   -0.1765    0.0493   -0.3612   -0.0584    0.2395    0.0255
    39 C4     3s        -0.0120    0.0014   -0.0073    0.0265    0.0071    0.0097    0.0239   -0.0080   -0.0062   -0.0101
    40 C4     4s        -0.0030   -0.0001   -0.0022    0.0092    0.0026    0.0016    0.0075   -0.0030   -0.0031   -0.0000
    41 C4     2px       -0.0095    0.0302   -0.0091   -0.0583   -0.0557    0.0239   -0.0342    0.0222    0.0206   -0.0885
    42 C4     3px       -0.0104   -0.0181   -0.0062    0.0159   -0.0263   -0.0124   -0.0037   -0.0121    0.0007    0.0289
    43 C4     4px       -0.0060    0.0054   -0.0032   -0.0059   -0.0100    0.0018   -0.0010   -0.0009   -0.0012   -0.0053
    44 C4     2py        0.0196   -0.0570    0.0153    0.1050    0.0754   -0.0194   -0.0102   -0.0653    0.0051    0.2236
    45 C4     3py       -0.0009    0.0712   -0.0077   -0.0398    0.0282    0.0597   -0.0066    0.0261   -0.0023   -0.0822
    46 C4     4py        0.0061   -0.0068    0.0029    0.0094    0.0149    0.0056   -0.0026   -0.0031    0.0068    0.0121
    47 C4     2pz        0.0020   -0.1511   -0.0573   -0.0391    0.0203    0.0912    0.1097    0.1386    0.1959    0.1531
    48 C4     3pz        0.0041   -0.0015    0.0031   -0.0238   -0.0752   -0.0879    0.0039   -0.0750   -0.0705   -0.0263
    49 C4     4pz        0.0021   -0.0327   -0.0082   -0.0077   -0.0052   -0.0011    0.0100    0.0033    0.0089    0.0146
    50 C4     3d2-      -0.0017    0.0048    0.0024    0.0064    0.0031   -0.0046    0.0026   -0.0023   -0.0115   -0.0008
    51 C4     3d1-       0.0025   -0.0023    0.0039    0.0071   -0.0061   -0.0166    0.0091   -0.0032    0.0115   -0.0002
    52 C4     3d0       -0.0006    0.0286    0.0061   -0.0067   -0.0115   -0.0088   -0.0167   -0.0105   -0.0196   -0.0080
    53 C4     3d1+       0.0001   -0.0008   -0.0009   -0.0028    0.0026    0.0100    0.0002    0.0066    0.0010    0.0024
    54 C4     3d2+      -0.0019    0.0079    0.0038    0.0029    0.0008   -0.0016    0.0043   -0.0010   -0.0112   -0.0088
    55 C6     1s        -0.0018   -0.0317   -0.0147   -0.0318   -0.0382   -0.0296    0.0082   -0.0016   -0.0067    0.0062
    56 C6     2s        -0.0088    0.1597    0.0242    0.1971    0.3023    0.2902   -0.1034    0.0080    0.0484   -0.0683
    57 C6     3s        -0.0091   -0.0499   -0.0407   -0.0597   -0.0677   -0.0436    0.0182   -0.0055   -0.0197    0.0200
    58 C6     4s        -0.0028   -0.0076   -0.0094   -0.0121   -0.0150   -0.0089    0.0054   -0.0016   -0.0050    0.0066
    59 C6     2px       -0.0043    0.0359    0.0049    0.0192    0.0116   -0.0004    0.0452    0.0143   -0.0386    0.1251
    60 C6     3px       -0.0044   -0.0039   -0.0075    0.0022    0.0054    0.0098   -0.0065    0.0015    0.0038   -0.0207
    61 C6     4px        0.0003    0.0006    0.0003   -0.0032   -0.0039   -0.0048    0.0049    0.0014   -0.0012    0.0051
    62 C6     2py        0.0027   -0.0660   -0.0119   -0.0196   -0.0007    0.0264   -0.1321   -0.0539   -0.0071   -0.1991
    63 C6     3py        0.0024    0.0095    0.0110    0.0069    0.0055   -0.0040    0.0016    0.0028   -0.0072    0.0293
    64 C6     4py       -0.0001   -0.0021    0.0000    0.0065    0.0097    0.0093   -0.0107   -0.0042   -0.0001   -0.0078
    65 C6     2pz       -0.0013    0.0749    0.0169    0.0105   -0.0171   -0.0356   -0.0091   -0.0685   -0.2273    0.1782
    66 C6     3pz       -0.0033   -0.0148   -0.0130   -0.0188   -0.0244   -0.0040    0.0041    0.0054    0.0291   -0.0272
    67 C6     4pz       -0.0008   -0.0010   -0.0023   -0.0079   -0.0143   -0.0118    0.0021   -0.0046   -0.0094    0.0104
    68 C6     3d2-       0.0001   -0.0082   -0.0023   -0.0041   -0.0025    0.0007   -0.0067   -0.0009    0.0084   -0.0148
    69 C6     3d1-       0.0001   -0.0185   -0.0052   -0.0051   -0.0009    0.0048   -0.0124   -0.0016    0.0103   -0.0266
    70 C6     3d0        0.0001    0.0045    0.0018    0.0014   -0.0001   -0.0013   -0.0083   -0.0075   -0.0119    0.0055
    71 C6     3d1+       0.0000    0.0095    0.0028    0.0023    0.0007   -0.0024    0.0017   -0.0022   -0.0105    0.0127
    72 C6     3d2+      -0.0003   -0.0065   -0.0023   -0.0027   -0.0015    0.0010   -0.0039    0.0010    0.0097   -0.0080
    73 C19    1s         0.0148   -0.0002    0.0084   -0.0362    0.0535   -0.0343   -0.0099    0.0103    0.0008   -0.0005
    74 C19    2s         0.0096    0.0062   -0.0012    0.1761   -0.3156    0.2522    0.0562   -0.0768   -0.0178    0.0096
    75 C19    3s         0.0398    0.0058    0.0253   -0.0737    0.1026   -0.0566   -0.0253    0.0236    0.0024   -0.0004
    76 C19    4s         0.0040    0.0035    0.0038   -0.0151    0.0223   -0.0123   -0.0067    0.0067    0.0013   -0.0004
    77 C19    2px        0.0087    0.0041   -0.0246    0.0426   -0.0226   -0.0113   -0.0326    0.0450    0.0432   -0.0056
    78 C19    3px        0.0062   -0.0010   -0.0006    0.0054    0.0056   -0.0017    0.0005   -0.0060   -0.0025    0.0032
    79 C19    4px       -0.0080   -0.0006   -0.0002   -0.0024    0.0107   -0.0112   -0.0036    0.0022    0.0036   -0.0007
    80 C19    2py       -0.0185    0.0087   -0.0024    0.0300   -0.0249   -0.0037   -0.0324    0.0660   -0.0074   -0.0183
    81 C19    3py        0.0095    0.0085    0.0071   -0.0182    0.0249   -0.0123    0.0019   -0.0111    0.0077    0.0004
    82 C19    4py       -0.0046    0.0004    0.0001   -0.0066    0.0145   -0.0131   -0.0059    0.0114   -0.0019   -0.0008
    83 C19    2pz        0.0048   -0.0012    0.0065   -0.0107    0.0133   -0.0047    0.0078   -0.0184   -0.0086    0.0087
    84 C19    3pz        0.0009   -0.0007    0.0030    0.0017    0.0030   -0.0047   -0.0015   -0.0025    0.0013    0.0004
    85 C19    4pz        0.0018   -0.0001    0.0002    0.0024   -0.0034    0.0032    0.0008   -0.0027   -0.0004    0.0003
    86 C19    3d2-      -0.0006    0.0011   -0.0054    0.0079   -0.0064   -0.0002   -0.0041    0.0078   -0.0009   -0.0012
    87 C19    3d1-       0.0012   -0.0001    0.0003   -0.0025    0.0028   -0.0008    0.0009   -0.0020   -0.0001    0.0008
    88 C19    3d0       -0.0012    0.0001    0.0006   -0.0053    0.0060   -0.0021    0.0016   -0.0029   -0.0026    0.0009
    89 C19    3d1+      -0.0015   -0.0003    0.0014   -0.0019    0.0013    0.0004    0.0014   -0.0020   -0.0015   -0.0001
    90 C19    3d2+       0.0064    0.0007   -0.0025   -0.0038    0.0055   -0.0029    0.0009   -0.0031    0.0005    0.0009
    91 N2     1s         0.0181   -0.0089    0.0380   -0.0073   -0.0019    0.0041   -0.0026    0.0046   -0.0013    0.0006
    92 N2     2s        -0.1383    0.1161   -0.5776    0.0982    0.1426   -0.1982    0.0009   -0.1018    0.0166    0.0094
    93 N2     3s         0.0449   -0.0153    0.0629   -0.0122    0.0044   -0.0010   -0.0101    0.0065   -0.0016    0.0023
    94 N2     4s         0.0111   -0.0052    0.0219   -0.0029   -0.0013    0.0024   -0.0030    0.0021   -0.0001    0.0002
    95 N2     2px        0.0265    0.0029    0.0152   -0.1088    0.0728    0.0804    0.1788   -0.3444    0.0238    0.0035
    96 N2     3px       -0.0212   -0.0022    0.0134    0.0435    0.0183   -0.0496   -0.0632    0.0936    0.0087   -0.0008
    97 N2     4px        0.0057    0.0007   -0.0004   -0.0002    0.0087   -0.0068   -0.0032   -0.0003    0.0040    0.0003
    98 N2     2py       -0.0291    0.0078    0.0123   -0.1115    0.0380    0.0765    0.0004    0.1611   -0.2906    0.0324
    99 N2     3py       -0.0020   -0.0115    0.0564    0.0373    0.0083   -0.0643   -0.0151   -0.0292    0.0474   -0.0045
   100 N2     4py        0.0078   -0.0044    0.0151   -0.0020    0.0012   -0.0051   -0.0056    0.0075   -0.0001   -0.0011
   101 N2     2pz       -0.0006   -0.0009   -0.0185    0.0326    0.0004   -0.0173   -0.0021   -0.0127   -0.0088    0.0551
   102 N2     3pz        0.0071   -0.0014    0.0038   -0.0013   -0.0004    0.0031    0.0006   -0.0021   -0.0018   -0.0186
   103 N2     4pz       -0.0019    0.0003   -0.0024    0.0030    0.0009    0.0000    0.0001   -0.0020    0.0012   -0.0030
   104 N2     3d2-       0.0026    0.0024   -0.0077   -0.0047   -0.0020    0.0099    0.0039    0.0035   -0.0133    0.0009
   105 N2     3d1-      -0.0008   -0.0011    0.0027   -0.0006    0.0002    0.0013   -0.0002    0.0043   -0.0058    0.0040
   106 N2     3d0        0.0031   -0.0030    0.0149   -0.0003   -0.0031    0.0026    0.0003   -0.0002    0.0011   -0.0004
   107 N2     3d1+       0.0005   -0.0008    0.0026   -0.0016    0.0017    0.0011    0.0034   -0.0060    0.0005    0.0022
   108 N2     3d2+      -0.0046    0.0009   -0.0045    0.0091   -0.0017   -0.0076   -0.0088    0.0168   -0.0042   -0.0015
   109 N5     1s         0.0003   -0.0416   -0.0094   -0.0019    0.0026    0.0020   -0.0040   -0.0024   -0.0047    0.0013
   110 N5     2s         0.0073    0.5658    0.1586    0.0043   -0.1057   -0.2026    0.1538   -0.0104   -0.1444    0.1052
   111 N5     3s         0.0009   -0.0801   -0.0198   -0.0118   -0.0036   -0.0095   -0.0048   -0.0091   -0.0211    0.0069
   112 N5     4s        -0.0001   -0.0258   -0.0075   -0.0041   -0.0006   -0.0000   -0.0027   -0.0016   -0.0020    0.0004
   113 N5     2px       -0.0002   -0.0163   -0.0119   -0.0389   -0.0303   -0.0185    0.0569    0.0546    0.0953   -0.0703
   114 N5     3px        0.0032    0.0240    0.0031    0.0059    0.0241    0.0158   -0.0044   -0.0068   -0.0134    0.0087
   115 N5     4px        0.0012    0.0034    0.0002   -0.0005    0.0026    0.0016    0.0035    0.0005    0.0001    0.0009
   116 N5     2py        0.0115   -0.0072    0.0210    0.0660    0.0713    0.0585   -0.2464   -0.1857   -0.2623    0.1958
   117 N5     3py        0.0133   -0.0336    0.0143   -0.0213   -0.0468   -0.0584    0.0603    0.0228    0.0598   -0.0219
   118 N5     4py        0.0021   -0.0120    0.0016   -0.0013   -0.0008   -0.0039   -0.0078   -0.0035    0.0005   -0.0032
   119 N5     2pz       -0.0093    0.0265   -0.0299   -0.1336   -0.1608   -0.0779   -0.2760   -0.1701   -0.0691   -0.3059
   120 N5     3pz       -0.0158    0.0027   -0.0353    0.0384    0.0479    0.0491    0.0720    0.0312   -0.0017    0.0587
   121 N5     4pz       -0.0023   -0.0041   -0.0068   -0.0025   -0.0017    0.0043   -0.0004    0.0004   -0.0008    0.0086
   122 N5     3d2-      -0.0001   -0.0061   -0.0023   -0.0039   -0.0030   -0.0002   -0.0020    0.0008    0.0039   -0.0055
   123 N5     3d1-       0.0006   -0.0037    0.0001   -0.0046   -0.0086   -0.0092   -0.0016   -0.0022    0.0059   -0.0073
   124 N5     3d0       -0.0004    0.0155    0.0027   -0.0047   -0.0060   -0.0017   -0.0160   -0.0082   -0.0051   -0.0074
   125 N5     3d1+      -0.0001    0.0017    0.0008    0.0036    0.0059    0.0053    0.0051    0.0040    0.0001    0.0076
   126 N5     3d2+       0.0001   -0.0068   -0.0023   -0.0013    0.0000    0.0032   -0.0103   -0.0055   -0.0037   -0.0012
   127 O7     1s         0.0244    0.0006   -0.0036   -0.0024    0.0035   -0.0013    0.0037   -0.0104    0.0081    0.0011
   128 O7     2s        -0.6773   -0.0849    0.3083   -0.1603    0.1424   -0.0198    0.1167   -0.2931    0.1729    0.0177
   129 O7     3s         0.0332   -0.0040    0.0074   -0.0150    0.0175   -0.0059    0.0129   -0.0350    0.0253    0.0036
   130 O7     4s         0.0137   -0.0003   -0.0006   -0.0028    0.0035   -0.0017    0.0021   -0.0066    0.0052    0.0008
   131 O7     2px       -0.0835   -0.0028    0.0020    0.0011    0.0134   -0.0248   -0.0622    0.1421   -0.0945   -0.0077
   132 O7     3px        0.0241    0.0017   -0.0042   -0.0050    0.0055    0.0056    0.0039   -0.0171    0.0106   -0.0002
   133 O7     4px        0.0007    0.0008   -0.0008   -0.0008    0.0002    0.0022    0.0003   -0.0017    0.0003   -0.0002
   134 O7     2py        0.1184    0.0126   -0.0465   -0.0121    0.0195   -0.0149    0.0208   -0.1094    0.1289    0.0154
   135 O7     3py       -0.0394   -0.0013    0.0006    0.0095   -0.0130    0.0003   -0.0120    0.0188   -0.0150   -0.0022
   136 O7     4py       -0.0008   -0.0000    0.0013   -0.0001   -0.0013    0.0006   -0.0017    0.0016   -0.0022   -0.0004
   137 O7     2pz       -0.0114   -0.0024    0.0058    0.0082   -0.0033    0.0025    0.0052    0.0074   -0.0136   -0.0030
   138 O7     3pz        0.0037   -0.0003    0.0004    0.0018    0.0034   -0.0025    0.0037    0.0003    0.0021   -0.0017
   139 O7     4pz       -0.0002   -0.0001   -0.0001    0.0008    0.0006   -0.0010    0.0010    0.0004    0.0007   -0.0005
   140 O7     3d2-       0.0176    0.0011   -0.0041    0.0006   -0.0019    0.0020    0.0033   -0.0091    0.0072    0.0007
   141 O7     3d1-       0.0021    0.0003   -0.0014    0.0001    0.0005   -0.0009   -0.0004    0.0002    0.0010   -0.0001
   142 O7     3d0        0.0103    0.0010   -0.0042    0.0015   -0.0010   -0.0005    0.0009   -0.0036    0.0039    0.0004
   143 O7     3d1+      -0.0017   -0.0004    0.0002    0.0003   -0.0001   -0.0000    0.0000    0.0007   -0.0010    0.0001
[...]
AIVX     1  Mu1.0001  In1.022 Se1.048               0.20872117      0.00045520     -0.00071700     -0.00000033
AIVX     1  Mu1.0001  In1.024 Se1.048               0.25602464      0.00090156     -0.00167257     -0.00000151
AIVX     1  Mu1.0001  In1.025 Se1.048               0.29903004      0.00069931     -0.00097576     -0.00000068
AIVX     1  Mu1.0001  In1.026 Se1.048               0.15509799      0.00001170     -0.00003253     -0.00000000
AIVX     1  Mu1.0001  In1.027 Se1.048               0.28204662      0.00037517     -0.00042568     -0.00000016
AIVX     1  Mu1.0001  In1.028 Se1.048               0.16374116     -0.00011901      0.00008264     -0.00000001
AIVX     1  Mu1.0001  In1.029 Se1.048               0.13510916     -0.00023266      0.00061720     -0.00000014
AIVX     1  Mu1.0001  In1.022 Se1.049               0.22812146      0.00045040     -0.00090708     -0.00000041
AIVX     1  Mu1.0001  In1.024 Se1.049               0.27542493     -0.00079377      0.00141120     -0.00000112
AIVX     1  Mu1.0001  In1.026 Se1.049               0.17449828     -0.00012188      0.00017536     -0.00000002
AIVX     1  Mu1.0001  In1.028 Se1.049               0.18314145     -0.00040555      0.00101326     -0.00000041
AIVX     1  Mu1.0001  In1.029 Se1.049               0.15450945      0.00010768     -0.00035146     -0.00000004
AIVX     1  Mu1.0001  In1.022 Se1.050               0.23266732     -0.00118002      0.00207688     -0.00000245
AIVX     1  Mu1.0001  In1.024 Se1.050               0.27997078     -0.00028760      0.00030999     -0.00000009
AIVX     1  Mu1.0001  In1.026 Se1.050               0.17904413     -0.00047369      0.00083786     -0.00000040
AIVX     1  Mu1.0001  In1.028 Se1.050               0.18768731     -0.00019593      0.00034323     -0.00000007
AIVX     1  Mu1.0001  In1.029 Se1.050               0.15905530     -0.00010948      0.00020558     -0.00000002
AIVX     1  Mu1.0001  In1.022 Se1.051               0.23537259     -0.00041703      0.00057296     -0.00000024
AIVX     1  Mu1.0001  In1.024 Se1.051               0.28267606     -0.00105424      0.00196403     -0.00000207
AIVX     1  Mu1.0001  In1.026 Se1.051               0.18174941      0.00025156     -0.00038915     -0.00000010
AIVX     1  Mu1.0001  In1.028 Se1.051               0.19039258      0.00018785     -0.00030090     -0.00000006
AIVX     1  Mu1.0001  In1.029 Se1.051               0.16176058     -0.00000343      0.00003721     -0.00000000
AIVX     1  Mu1.0001  In1.022 Se1.052               0.27466061      0.00027593     -0.00048670     -0.00000013
AIVX     1  Mu1.0001  In1.026 Se1.052               0.22103743     -0.00038762      0.00078729     -0.00000031
AIVX     1  Mu1.0001  In1.028 Se1.052               0.22968060      0.00007538     -0.00021137     -0.00000002
AIVX     1  Mu1.0001  In1.029 Se1.052               0.20104860      0.00020294     -0.00011177     -0.00000002
AIVX     1  Mu1.0001  In1.022 Se1.053               0.28136391     -0.00014879      0.00013425     -0.00000002
AIVX     1  Mu1.0001  In1.026 Se1.053               0.22774073     -0.00021656      0.00024682     -0.00000005
AIVX     1  Mu1.0001  In1.028 Se1.053               0.23638390      0.00015797     -0.00025086     -0.00000004
AIVX     1  Mu1.0001  In1.029 Se1.053               0.20775190     -0.00046483      0.00084628     -0.00000039
AIVX     1  Mu1.0001  In1.026 Se1.054               0.25661567     -0.00060680      0.00101586     -0.00000062
AIVX     1  Mu1.0001  In1.028 Se1.054               0.26525884      0.00057509     -0.00107743     -0.00000062
AIVX     1  Mu1.0001  In1.029 Se1.054               0.23662684      0.00074142     -0.00140943     -0.00000104
AIVX     1  Mu1.0001  In1.026 Se1.055               0.27451656      0.00064404     -0.00090917     -0.00000059
AIVX     1  Mu1.0001  In1.028 Se1.055               0.28315974      0.00111471     -0.00201177     -0.00000224
AIVX     1  Mu1.0001  In1.029 Se1.055               0.25452773     -0.00003344      0.00005688     -0.00000000
AIVX     1  Mu1.0001  In1.026 Se1.056               0.26734609      0.00027920     -0.00048107     -0.00000013
AIVX     1  Mu1.0001  In1.028 Se1.056               0.27598926      0.00046114     -0.00073671     -0.00000034
AIVX     1  Mu1.0001  In1.029 Se1.056               0.24735726      0.00027915     -0.00030961     -0.00000009
AIVX     1  Mu1.0001  In1.026 Se1.057               0.29332505     -0.00015185      0.00026238     -0.00000004
AIVX     1  Mu1.0001  In1.029 Se1.057               0.27333622     -0.00043347      0.00003788     -0.00000002
AIVX     1  Mu1.0001  In1.026 Se1.058               0.28607689      0.00034429     -0.00048222     -0.00000017
AIVX     1  Mu1.0001  In1.028 Se1.058               0.29472006      0.00060982     -0.00095396     -0.00000058
AIVX     1  Mu1.0001  In1.029 Se1.058               0.26608806      0.00040046     -0.00065527     -0.00000026
AIVX     1  Mu1.0001  In1.029 Se1.059               0.29262618     -0.00051035      0.00048909     -0.00000025
--
 
   (Skipping property calculation,
    use PROP keyword to activate)
--
 
  Total CASPT2 energies:
::    CASPT2 Root  1     Total energy:   -455.36887306
::    CASPT2 Root  2     Total energy:   -455.16525359
::    CASPT2 Root  3     Total energy:   -455.16533764
::    CASPT2 Root  4     Total energy:   -455.11751526
::    CASPT2 Root  5     Total energy:   -455.12579994
::    CASPT2 Root  6     Total energy:   -455.06116666
::    CASPT2 Root  7     Total energy:   -455.05549218
 
++ Multi-State CASPT2 section:
********************************************************************************
  MULTI-STATE CASPT2 SECTION
--------------------------------------------------------------------------------
 
  Output diagonal energies have been shifted. Add   -455.000000000000     
 
  Effective Hamiltonian matrix (Symmetric):
 
                1               2               3               4               5
   1        -0.36887306
   2        -0.00009495     -0.16525359
   3        -0.00028843     -0.00013832     -0.16533764
   4        -0.01283544      0.00090933     -0.00158993     -0.11751526
   5        -0.02372068     -0.00111319      0.00000835      0.00239845     -0.12579994
   6         0.00826416      0.00064337      0.00094155      0.00917706      0.01018679
   7        -0.00915942     -0.00005351      0.00026020     -0.00554851     -0.01016182
 
                6               7
   6        -0.06116666
   7        -0.00199647     -0.05549218
 
       Total MS-CASPT2 energies:
::    MS-CASPT2 Root  1     Total energy:   -455.37242084
::    MS-CASPT2 Root  2     Total energy:   -455.16547701
::    MS-CASPT2 Root  3     Total energy:   -455.16523472
::    MS-CASPT2 Root  4     Total energy:   -455.12630356
::    MS-CASPT2 Root  5     Total energy:   -455.11820269
::    MS-CASPT2 Root  6     Total energy:   -455.06076204
::    MS-CASPT2 Root  7     Total energy:   -455.05103746
 
       Eigenvectors:
            0.99290692     -0.00483211     -0.00046195     -0.09036431     -0.07501463
            0.00086170      0.55437688      0.83145708     -0.03410317      0.01220840
            0.00186988      0.83182195     -0.55383812      0.00778996     -0.03484182
            0.05090540      0.01760960     -0.03556325     -0.21185764      0.96085938
            0.09762391      0.01488268      0.02592197      0.96085720      0.17592750
           -0.03085763     -0.01354912      0.00054991     -0.10546504     -0.17131150
            0.03252117     -0.00008316      0.00229225      0.10657149      0.09726742
 
           -0.00063974     -0.01785975
            0.00513110     -0.00250264
            0.00757889     -0.00011900
            0.08868931     -0.14083183
            0.05508526     -0.17984630
            0.84805074     -0.48908420
            0.51944738      0.84160151
 
--
 
  THE ORIGINAL CI ARRAYS ARE NOW MIXED AS LINEAR
  COMBINATIONS, GIVEN BY THE EIGENVECTORS.
  A NEW JOBIPH FILE NAMED 'JOBMIX' IS PREPARED.
********************************************************************************
 
++ Mixed CI coefficients:
  The CI coefficients for the MIXED state nr.   1
--------------------------------------------------------------------------------
 CI COEFFICIENTS LARGER THAN  0.50D-01
  Occupation of active orbitals, and spin coupling
  of open shells. (u,d: Spin up or down).
  SGUGA info is (Midvert:IsyUp:UpperWalk/LowerWalk)
        Conf  SGUGA info        Occupation    Coefficient         Weight
           1  ( 1:1:   1/   1)   22222200        0.947745       0.898220
           7  ( 1:1:   7/   1)   22222u0d        0.078076       0.006096
          15  ( 1:1:  15/   1)   22222002       -0.108701       0.011816
          24  ( 2:1:   4/   1)   222u220d       -0.153180       0.023464
          64  ( 2:1:   4/   3)   2u22220d       -0.098077       0.009619
          73  ( 2:1:  13/   3)   2u222d02        0.050271       0.002527
          81  ( 2:1:   1/   4)   u22222d0       -0.124961       0.015615
         141  ( 3:1:   1/   5)   22022220       -0.094485       0.008927
         175  ( 3:1:   5/   8)   20222202       -0.075311       0.005672
         191  ( 3:1:   1/  10)   02222220       -0.070685       0.004996
 
  The CI coefficients for the MIXED state nr.   2
--------------------------------------------------------------------------------
 CI COEFFICIENTS LARGER THAN  0.50D-01
  Occupation of active orbitals, and spin coupling
  of open shells. (u,d: Spin up or down).
  SGUGA info is (Midvert:IsyUp:UpperWalk/LowerWalk)
        Conf  SGUGA info        Occupation    Coefficient         Weight
           2  ( 1:1:   2/   1)   22222ud0        0.245114       0.060081
           3  ( 1:1:   3/   1)   2222u2d0       -0.093071       0.008662
           8  ( 1:1:   8/   1)   2222u20d       -0.497611       0.247617
          16  ( 1:1:  16/   1)   2222ud02        0.064915       0.004214
          21  ( 2:1:   1/   1)   222u22d0       -0.746796       0.557704
          24  ( 2:1:   4/   1)   222u220d        0.065200       0.004251
          25  ( 2:1:   5/   1)   222u2dud       -0.094153       0.008865
          27  ( 2:1:   7/   1)   222u2udd        0.070982       0.005038
          34  ( 2:1:  14/   1)   222ud202        0.069469       0.004826
          35  ( 2:1:  15/   1)   222u20d2       -0.081825       0.006695
          41  ( 2:1:   1/   2)   22u222d0       -0.098404       0.009683
          74  ( 2:1:  14/   3)   2u22d202       -0.080174       0.006428
          88  ( 2:1:   8/   4)   u222u2dd       -0.054018       0.002918
         102  ( 3:1:   2/   1)   222022ud        0.102266       0.010458
         111  ( 3:1:   1/   2)   22ud2220        0.134033       0.017965
         131  ( 3:1:   1/   4)   u22d2220       -0.096167       0.009248
         207  ( 4:1:   1/   2)   2u2u22dd        0.067075       0.004499
         262  ( 5:1:   2/   7)   202u22d2        0.062661       0.003926
 
  The CI coefficients for the MIXED state nr.   3
--------------------------------------------------------------------------------
 CI COEFFICIENTS LARGER THAN  0.50D-01
  Occupation of active orbitals, and spin coupling
  of open shells. (u,d: Spin up or down).
  SGUGA info is (Midvert:IsyUp:UpperWalk/LowerWalk)
        Conf  SGUGA info        Occupation    Coefficient         Weight
           2  ( 1:1:   2/   1)   22222ud0       -0.161600       0.026114
           3  ( 1:1:   3/   1)   2222u2d0       -0.069938       0.004891
           8  ( 1:1:   8/   1)   2222u20d       -0.798495       0.637594
          16  ( 1:1:  16/   1)   2222ud02        0.102323       0.010470
          21  ( 2:1:   1/   1)   222u22d0        0.467901       0.218931
          25  ( 2:1:   5/   1)   222u2dud        0.058079       0.003373
          34  ( 2:1:  14/   1)   222ud202        0.113489       0.012880
          35  ( 2:1:  15/   1)   222u20d2        0.050942       0.002595
          41  ( 2:1:   1/   2)   22u222d0        0.075853       0.005754
          74  ( 2:1:  14/   3)   2u22d202       -0.127847       0.016345
          86  ( 2:1:   6/   4)   u222d2ud        0.053942       0.002910
          88  ( 2:1:   8/   4)   u222u2dd       -0.086944       0.007559
         102  ( 3:1:   2/   1)   222022ud       -0.065368       0.004273
         111  ( 3:1:   1/   2)   22ud2220       -0.083622       0.006993
         131  ( 3:1:   1/   4)   u22d2220        0.059916       0.003590
         144  ( 3:1:   4/   5)   2202u22d       -0.079076       0.006253
         164  ( 3:1:   4/   7)   u2d2u22d        0.054319       0.002951
         194  ( 3:1:   4/  10)   0222u22d       -0.063575       0.004042
 
  The CI coefficients for the MIXED state nr.   4
--------------------------------------------------------------------------------
 CI COEFFICIENTS LARGER THAN  0.50D-01
  Occupation of active orbitals, and spin coupling
  of open shells. (u,d: Spin up or down).
  SGUGA info is (Midvert:IsyUp:UpperWalk/LowerWalk)
        Conf  SGUGA info        Occupation    Coefficient         Weight
           2  ( 1:1:   2/   1)   22222ud0       -0.136847       0.018727
           7  ( 1:1:   7/   1)   22222u0d       -0.864410       0.747204
          15  ( 1:1:  15/   1)   22222002       -0.141414       0.019998
          21  ( 2:1:   1/   1)   222u22d0       -0.055113       0.003037
          24  ( 2:1:   4/   1)   222u220d       -0.234100       0.054803
          47  ( 2:1:   7/   2)   22u22udd        0.050581       0.002558
          64  ( 2:1:   4/   3)   2u22220d       -0.165782       0.027484
          73  ( 2:1:  13/   3)   2u222d02       -0.258544       0.066845
          85  ( 2:1:   5/   4)   u2222dud        0.063046       0.003975
          87  ( 2:1:   7/   4)   u2222udd       -0.098222       0.009648
         143  ( 3:1:   3/   5)   22022u2d       -0.085948       0.007387
         163  ( 3:1:   3/   7)   u2d22u2d        0.059548       0.003546
         175  ( 3:1:   5/   8)   20222202        0.075358       0.005679
         193  ( 3:1:   3/  10)   02222u2d       -0.069455       0.004824
 
  The CI coefficients for the MIXED state nr.   5
--------------------------------------------------------------------------------
 CI COEFFICIENTS LARGER THAN  0.50D-01
  Occupation of active orbitals, and spin coupling
  of open shells. (u,d: Spin up or down).
  SGUGA info is (Midvert:IsyUp:UpperWalk/LowerWalk)
        Conf  SGUGA info        Occupation    Coefficient         Weight
           2  ( 1:1:   2/   1)   22222ud0       -0.151028       0.022809
           3  ( 1:1:   3/   1)   2222u2d0        0.168593       0.028423
          21  ( 2:1:   1/   1)   222u22d0        0.075406       0.005686
          24  ( 2:1:   4/   1)   222u220d        0.138635       0.019220
          41  ( 2:1:   1/   2)   22u222d0       -0.886792       0.786400
          45  ( 2:1:   5/   2)   22u22dud       -0.069995       0.004899
          47  ( 2:1:   7/   2)   22u22udd        0.125316       0.015704
          55  ( 2:1:  15/   2)   22u220d2       -0.096335       0.009280
          81  ( 2:1:   1/   4)   u22222d0       -0.113469       0.012875
         152  ( 3:1:   2/   6)   2ud222ud        0.051761       0.002679
         161  ( 3:1:   1/   7)   u2d22220       -0.210961       0.044505
         191  ( 3:1:   1/  10)   02222220        0.057092       0.003260
         201  ( 4:1:   1/   1)   22uu22dd       -0.069338       0.004808
         219  ( 4:1:   1/   4)   2uu222dd        0.074884       0.005608
         222  ( 4:1:   4/   4)   2uu22dd2       -0.060920       0.003711
         294  ( 5:1:   2/  15)   20u222d2        0.075734       0.005736
 
  The CI coefficients for the MIXED state nr.   6
--------------------------------------------------------------------------------
 CI COEFFICIENTS LARGER THAN  0.50D-01
  Occupation of active orbitals, and spin coupling
  of open shells. (u,d: Spin up or down).
  SGUGA info is (Midvert:IsyUp:UpperWalk/LowerWalk)
        Conf  SGUGA info        Occupation    Coefficient         Weight
           2  ( 1:1:   2/   1)   22222ud0        0.666009       0.443568
           3  ( 1:1:   3/   1)   2222u2d0        0.535513       0.286774
           7  ( 1:1:   7/   1)   22222u0d       -0.094311       0.008895
           8  ( 1:1:   8/   1)   2222u20d       -0.062044       0.003849
           9  ( 1:1:   9/   1)   222220ud       -0.106310       0.011302
          10  ( 1:1:  10/   1)   2222udud       -0.107389       0.011532
          12  ( 1:1:  12/   1)   2222uudd        0.160515       0.025765
          21  ( 2:1:   1/   1)   222u22d0        0.187169       0.035032
          25  ( 2:1:   5/   1)   222u2dud        0.216030       0.046669
          26  ( 2:1:   6/   1)   222ud2ud        0.146819       0.021556
          27  ( 2:1:   7/   1)   222u2udd        0.085098       0.007242
          28  ( 2:1:   8/   1)   222uu2dd        0.152716       0.023322
          65  ( 2:1:   5/   3)   2u222dud        0.109952       0.012089
          67  ( 2:1:   7/   3)   2u222udd       -0.115843       0.013420
         102  ( 3:1:   2/   1)   222022ud        0.057841       0.003346
         106  ( 3:1:   6/   1)   22202ud2       -0.061812       0.003821
         107  ( 3:1:   7/   1)   2220u2d2       -0.071960       0.005178
         122  ( 3:1:   2/   3)   2u2d22ud       -0.053970       0.002913
         176  ( 3:1:   6/   8)   20222ud2       -0.072059       0.005192
         202  ( 4:1:   2/   1)   22uu2d2d        0.060800       0.003697
         203  ( 4:1:   3/   1)   22uud22d        0.053627       0.002876
 
  The CI coefficients for the MIXED state nr.   7
--------------------------------------------------------------------------------
 CI COEFFICIENTS LARGER THAN  0.50D-01
  Occupation of active orbitals, and spin coupling
  of open shells. (u,d: Spin up or down).
  SGUGA info is (Midvert:IsyUp:UpperWalk/LowerWalk)
        Conf  SGUGA info        Occupation    Coefficient         Weight
           2  ( 1:1:   2/   1)   22222ud0        0.494249       0.244282
           3  ( 1:1:   3/   1)   2222u2d0       -0.630916       0.398055
           7  ( 1:1:   7/   1)   22222u0d       -0.083863       0.007033
           8  ( 1:1:   8/   1)   2222u20d        0.071207       0.005070
           9  ( 1:1:   9/   1)   222220ud       -0.097415       0.009490
          10  ( 1:1:  10/   1)   2222udud        0.159613       0.025476
          12  ( 1:1:  12/   1)   2222uudd       -0.204713       0.041907
          21  ( 2:1:   1/   1)   222u22d0        0.209456       0.043872
          24  ( 2:1:   4/   1)   222u220d       -0.059468       0.003536
          25  ( 2:1:   5/   1)   222u2dud        0.177595       0.031540
          26  ( 2:1:   6/   1)   222ud2ud       -0.183976       0.033847
          27  ( 2:1:   7/   1)   222u2udd        0.071896       0.005169
          28  ( 2:1:   8/   1)   222uu2dd       -0.206970       0.042837
          41  ( 2:1:   1/   2)   22u222d0       -0.193635       0.037494
          65  ( 2:1:   5/   3)   2u222dud        0.085130       0.007247
          67  ( 2:1:   7/   3)   2u222udd       -0.087218       0.007607
         102  ( 3:1:   2/   1)   222022ud        0.057710       0.003330
         107  ( 3:1:   7/   1)   2220u2d2        0.093889       0.008815
         122  ( 3:1:   2/   3)   2u2d22ud       -0.051891       0.002693
         176  ( 3:1:   6/   8)   20222ud2       -0.053487       0.002861
         203  ( 4:1:   3/   1)   22uud22d       -0.067431       0.004547
 
--
 
--- Stop Module: caspt2 at Tue Jun 10 21:27:00 2025 /rc=_RC_ALL_IS_WELL_ ---
*** files: xmldump
    saved to directory /home/pcaah4/diamide_project
--- Module caspt2 spent 6 minutes 49 seconds ---

.##################.
.# Happy landing! #.
.##################.

    Timing: Wall=697.59 User=607.15 System=81.28
******************************************************
*** WorkDir at /srv/COMMUNAL_SCRATCH/12473 cleaned ***
******************************************************
